<event>
 4    1  0.2514307E-008  0.9095402E+03  0.7818608E-02  0.9510887E-01
         -1   -1    0    0    0  501 -0.00000000000E+00  0.00000000000E+00  0.16843435330E+04  0.16843435330E+04  0.50400000000E-02 0.  1.
          1   -1    0    0  501    0  0.00000000000E+00 -0.00000000000E+00 -0.69575176329E+03  0.69575176331E+03  0.50400000000E-02 0. -1.
    8880023    1    1    2    0    0  0.31620207792E+03  0.54172814582E+03  0.13593542861E+04  0.16355755621E+04  0.65864270000E+03 0.  0.
    8880022    1    1    2    0    0 -0.31620207792E+03 -0.54172814582E+03 -0.37076251637E+03  0.74451973420E+03  0.15294330000E+03 0.  0.
<mgrwt>
<rscale>  0 0.83485916E+03</rscale>
<asrwt>0</asrwt>
<pdfrwt beam="1">  1        1 0.10703873E+00 0.90954018E+03</pdfrwt>
<pdfrwt beam="2">  1       -1 0.25912977E+00 0.90954018E+03</pdfrwt>
<totfact> 0.17076760E+00</totfact>
</mgrwt>
</event>
<event>
 4    1  0.2514307E-008  0.8248676E+03  0.7818608E-02  0.9659402E-01
         -1   -1    0    0    0  501 -0.00000000000E+00  0.00000000000E+00  0.14310242611E+04  0.14310242611E+04  0.50400000000E-02 0.  1.
          1   -1    0    0  501    0  0.00000000000E+00 -0.00000000000E+00 -0.68031757814E+03  0.68031757816E+03  0.50400000000E-02 0. -1.
    8880023    1    1    2    0    0 -0.36228472465E+03 -0.33962646781E+03  0.11783607195E+04  0.14383812258E+04  0.65864270000E+03 0.  1.
    8880022    1    1    2    0    0  0.36228472465E+03  0.33962646781E+03 -0.42765403648E+03  0.67296061347E+03  0.15294330000E+03 0.  0.
<mgrwt>
<rscale>  0 0.73486277E+03</rscale>
<asrwt>0</asrwt>
<pdfrwt beam="1">  1        1 0.10466424E+00 0.82486760E+03</pdfrwt>
<pdfrwt beam="2">  1       -1 0.22015758E+00 0.82486760E+03</pdfrwt>
<totfact> 0.32124487E+00</totfact>
</mgrwt>
</event>
<event>
 4    1  0.2514307E-008  0.8111639E+03  0.7818608E-02  0.9687158E-01
          1   -1    0    0  501    0  0.00000000000E+00  0.00000000000E+00  0.97633355130E+03  0.97633355131E+03  0.50400000000E-02 0. -1.
         -1   -1    0    0    0  501 -0.00000000000E+00 -0.00000000000E+00 -0.56386045172E+03  0.56386045175E+03  0.50400000000E-02 0.  1.
    8880023    1    1    2    0    0  0.33162904260E+02  0.47231013954E+03 -0.11013582880E+03  0.81860659244E+03  0.65864270000E+03 0.  0.
    8880022    1    1    2    0    0 -0.33162904260E+02 -0.47231013954E+03  0.52260892837E+03  0.72158741062E+03  0.15294330000E+03 0.  0.
<mgrwt>
<rscale>  0 0.71786592E+03</rscale>
<asrwt>0</asrwt>
<pdfrwt beam="1">  1        1 0.15020516E+00 0.81116389E+03</pdfrwt>
<pdfrwt beam="2">  1       -1 0.86747762E-01 0.81116389E+03</pdfrwt>
<totfact> 0.21130046E+01</totfact>
</mgrwt>
</event>
<event>
 4    1  0.2514307E-008  0.9252492E+03  0.7818608E-02  0.9486657E-01
         -1   -1    0    0    0  501 -0.00000000000E+00  0.00000000000E+00  0.54006946677E+03  0.54006946679E+03  0.50400000000E-02 0.  1.
          1   -1    0    0  501    0  0.00000000000E+00 -0.00000000000E+00 -0.31295713325E+04  0.31295713325E+04  0.50400000000E-02 0. -1.
    8880023    1    1    2    0    0 -0.64971743495E+03 -0.11959987261E+02  0.69749059584E+02  0.92787441184E+03  0.65864270000E+03 0.  0.
    8880022    1    1    2    0    0  0.64971743495E+03  0.11959987261E+02 -0.26592509253E+04  0.27417663874E+04  0.15294330000E+03 0.  0.
<mgrwt>
<rscale>  0 0.85274736E+03</rscale>
<asrwt>0</asrwt>
<pdfrwt beam="1">  1        1 0.48147250E+00 0.92524915E+03</pdfrwt>
<pdfrwt beam="2">  1       -1 0.83087612E-01 0.92524915E+03</pdfrwt>
<totfact> 0.72098631E-01</totfact>
</mgrwt>
</event>
<event>
 4    1  0.2514307E-008  0.9988431E+03  0.7818608E-02  0.9383073E-01
          1   -1    0    0  501    0  0.00000000000E+00  0.00000000000E+00  0.13764617567E+04  0.13764617567E+04  0.50400000000E-02 0. -1.
         -1   -1    0    0    0  501 -0.00000000000E+00 -0.00000000000E+00 -0.60002452598E+03  0.60002452600E+03  0.50400000000E-02 0.  1.
    8880023    1    1    2    0    0 -0.42267801361E+03 -0.62066150030E+03  0.20276824402E+03  0.10192166444E+04  0.65864270000E+03 0.  0.
    8880022    1    1    2    0    0  0.42267801361E+03  0.62066150030E+03  0.57366898673E+03  0.95726963835E+03  0.15294330000E+03 0.  0.
<mgrwt>
<rscale>  0 0.93481916E+03</rscale>
<asrwt>0</asrwt>
<pdfrwt beam="1">  1        1 0.21176335E+00 0.99884313E+03</pdfrwt>
<pdfrwt beam="2">  1       -1 0.92311466E-01 0.99884313E+03</pdfrwt>
<totfact> 0.91582033E+00</totfact>
</mgrwt>
</event>
<event>
 4    1  0.2514307E-008  0.1143434E+04  0.7818608E-02  0.9214172E-01
          1   -1    0    0  501    0  0.00000000000E+00  0.00000000000E+00  0.11867846590E+04  0.11867846590E+04  0.50400000000E-02 0. -1.
         -1   -1    0    0    0  501 -0.00000000000E+00 -0.00000000000E+00 -0.10056963245E+04  0.10056963245E+04  0.50400000000E-02 0.  1.
    8880023    1    1    2    0    0 -0.76516759204E+03 -0.53679586261E+03 -0.21919552838E+03  0.11642543227E+04  0.65864270000E+03 0.  0.
    8880022    1    1    2    0    0  0.76516759204E+03  0.53679586261E+03  0.40028386292E+03  0.10282266608E+04  0.15294330000E+03 0.  0.
<mgrwt>
<rscale>  0 0.10908343E+04</rscale>
<asrwt>0</asrwt>
<pdfrwt beam="1">  1        1 0.18258226E+00 0.11434341E+04</pdfrwt>
<pdfrwt beam="2">  1       -1 0.15472251E+00 0.11434341E+04</pdfrwt>
<totfact> 0.34586518E+00</totfact>
</mgrwt>
</event>
<event>
 4    1  0.2514307E-008  0.9619610E+03  0.7818608E-02  0.9433110E-01
          1   -1    0    0  501    0  0.00000000000E+00  0.00000000000E+00  0.33980645705E+04  0.33980645705E+04  0.50400000000E-02 0. -1.
         -1   -1    0    0    0  501 -0.00000000000E+00 -0.00000000000E+00 -0.49397780594E+03  0.49397780597E+03  0.50400000000E-02 0.  1.
    8880023    1    1    2    0    0  0.27565217158E+03 -0.64465079825E+03  0.65537165661E+02  0.96419090315E+03  0.65864270000E+03 0.  0.
    8880022    1    1    2    0    0 -0.27565217158E+03  0.64465079825E+03  0.28385495989E+04  0.29278514733E+04  0.15294330000E+03 0.  0.
<mgrwt>
<rscale>  0 0.89400259E+03</rscale>
<asrwt>0</asrwt>
<pdfrwt beam="1">  1        1 0.52277917E+00 0.96196101E+03</pdfrwt>
<pdfrwt beam="2">  1       -1 0.75996585E-01 0.96196101E+03</pdfrwt>
<totfact> 0.54535881E-01</totfact>
</mgrwt>
</event>
<event>
 4    1  0.2514307E-008  0.1097425E+04  0.7818608E-02  0.9263929E-01
          1   -1    0    0  501    0  0.00000000000E+00  0.00000000000E+00  0.38496573310E+04  0.38496573310E+04  0.50400000000E-02 0. -1.
         -1   -1    0    0    0  501 -0.00000000000E+00 -0.00000000000E+00 -0.71967359706E+03  0.71967359708E+03  0.50400000000E-02 0.  1.
    8880023    1    1    2    0    0  0.18180400493E+03 -0.85876560858E+03 -0.20583603110E+03  0.11165615723E+04  0.65864270000E+03 0.  1.
    8880022    1    1    2    0    0 -0.18180400493E+03  0.85876560858E+03  0.33358197650E+04  0.34527693558E+04  0.15294330000E+03 0.  0.
<mgrwt>
<rscale>  0 0.10417257E+04</rscale>
<asrwt>0</asrwt>
<pdfrwt beam="1">  1        1 0.59225497E+00 0.10974248E+04</pdfrwt>
<pdfrwt beam="2">  1       -1 0.11071902E+00 0.10974248E+04</pdfrwt>
<totfact> 0.10011200E-01</totfact>
</mgrwt>
</event>
<event>
 4    1  0.2514307E-008  0.1081129E+04  0.7818608E-02  0.9282363E-01
          1   -1    0    0  501    0  0.00000000000E+00  0.00000000000E+00  0.98797147359E+03  0.98797147360E+03  0.50400000000E-02 0. -1.
         -1   -1    0    0    0  501 -0.00000000000E+00 -0.00000000000E+00 -0.15714181425E+04  0.15714181426E+04  0.50400000000E-02 0.  1.
    8880023    1    1    2    0    0 -0.69802066702E+03  0.49779203856E+03 -0.11036686411E+04  0.15449674562E+04  0.65864270000E+03 0.  0.
    8880022    1    1    2    0    0  0.69802066702E+03 -0.49779203856E+03  0.52022197213E+03  0.10144221599E+04  0.15294330000E+03 0. -1.
<mgrwt>
<rscale>  0 0.10242288E+04</rscale>
<asrwt>0</asrwt>
<pdfrwt beam="1">  1        1 0.15199561E+00 0.10811290E+04</pdfrwt>
<pdfrwt beam="2">  1       -1 0.24175664E+00 0.10811290E+04</pdfrwt>
<totfact> 0.12164144E+00</totfact>
</mgrwt>
</event>
<event>
 4    1  0.2514307E-008  0.6911799E+03  0.7818608E-02  0.1003597E+00
         -1   -1    0    0    0  501 -0.00000000000E+00  0.00000000000E+00  0.62454346190E+03  0.62454346192E+03  0.50400000000E-02 0.  1.
          1   -1    0    0  501    0  0.00000000000E+00 -0.00000000000E+00 -0.89447844843E+03  0.89447844845E+03  0.50400000000E-02 0. -1.
    8880023    1    1    2    0    0 -0.19392392012E+03 -0.79454243003E+02  0.40141153910E+03  0.79928774137E+03  0.65864270000E+03 0.  1.
    8880022    1    1    2    0    0  0.19392392012E+03  0.79454243003E+02 -0.67134652563E+03  0.71973416899E+03  0.15294330000E+03 0.  0.
<mgrwt>
<rscale>  0 0.54100861E+03</rscale>
<asrwt>0</asrwt>
<pdfrwt beam="1">  1        1 0.13761207E+00 0.69117991E+03</pdfrwt>
<pdfrwt beam="2">  1       -1 0.96083609E-01 0.69117991E+03</pdfrwt>
<totfact> 0.19879078E+01</totfact>
</mgrwt>
</event>
<event>
 4    1  0.2514307E-008  0.8387072E+03  0.7818608E-02  0.9632623E-01
          1   -1    0    0  501    0  0.00000000000E+00  0.00000000000E+00  0.10838408346E+04  0.10838408346E+04  0.50400000000E-02 0. -1.
         -1   -1    0    0    0  501 -0.00000000000E+00 -0.00000000000E+00 -0.10629536969E+04  0.10629536969E+04  0.50400000000E-02 0.  1.
    8880023    1    1    2    0    0 -0.17942880678E+03  0.48726268808E+03 -0.80290691838E+03  0.11610724998E+04  0.65864270000E+03 0.  0.
    8880022    1    1    2    0    0  0.17942880678E+03 -0.48726268808E+03  0.82379405609E+03  0.98572203169E+03  0.15294330000E+03 0. -1.
<mgrwt>
<rscale>  0 0.75174117E+03</rscale>
<asrwt>0</asrwt>
<pdfrwt beam="1">  1        1 0.16674474E+00 0.83870724E+03</pdfrwt>
<pdfrwt beam="2">  1       -1 0.16353134E+00 0.83870724E+03</pdfrwt>
<totfact> 0.36736540E+00</totfact>
</mgrwt>
</event>
<event>
 4    1  0.2514307E-008  0.6808765E+03  0.7818608E-02  0.1008832E+00
          1   -1    0    0  501    0  0.00000000000E+00  0.00000000000E+00  0.70782750192E+03  0.70782750194E+03  0.50400000000E-02 0. -1.
         -1   -1    0    0    0  501 -0.00000000000E+00 -0.00000000000E+00 -0.10443119115E+04  0.10443119115E+04  0.50400000000E-02 0.  1.
    8880023    1    1    2    0    0 -0.17228424755E+03 -0.10035941159E+02 -0.90853883421E+03  0.11353570371E+04  0.65864270000E+03 0.  1.
    8880022    1    1    2    0    0  0.17228424755E+03  0.10035941159E+02  0.57205442463E+03  0.61678237639E+03  0.15294330000E+03 0.  0.
<mgrwt>
<rscale>  0 0.51941431E+03</rscale>
<asrwt>0</asrwt>
<pdfrwt beam="1">  1        1 0.10889654E+00 0.68087649E+03</pdfrwt>
<pdfrwt beam="2">  1       -1 0.16066337E+00 0.68087649E+03</pdfrwt>
<totfact> 0.80667701E+00</totfact>
</mgrwt>
</event>
<event>
 4    1  0.2514307E-008  0.1015165E+04  0.7818608E-02  0.9361980E-01
         -1   -1    0    0    0  501 -0.00000000000E+00  0.00000000000E+00  0.91753329353E+03  0.91753329355E+03  0.50400000000E-02 0.  1.
          1   -1    0    0  501    0  0.00000000000E+00 -0.00000000000E+00 -0.24111082960E+04  0.24111082960E+04  0.50400000000E-02 0. -1.
    8880023    1    1    2    0    0 -0.62671272928E+03 -0.45164321036E+03  0.53861757790E+03  0.11492038705E+04  0.65864270000E+03 0.  1.
    8880022    1    1    2    0    0  0.62671272928E+03  0.45164321036E+03 -0.20321925804E+04  0.21794377191E+04  0.15294330000E+03 0.  0.
<mgrwt>
<rscale>  0 0.95271715E+03</rscale>
<asrwt>0</asrwt>
<pdfrwt beam="1">  1        1 0.37093974E+00 0.10151653E+04</pdfrwt>
<pdfrwt beam="2">  1       -1 0.14115897E+00 0.10151653E+04</pdfrwt>
<totfact> 0.64948203E-01</totfact>
</mgrwt>
</event>
<event>
 4    1  0.2514307E-008  0.7513107E+03  0.7818608E-02  0.9828146E-01
          1   -1    0    0  501    0  0.00000000000E+00  0.00000000000E+00  0.78041167492E+03  0.78041167493E+03  0.50400000000E-02 0. -1.
         -1   -1    0    0    0  501 -0.00000000000E+00 -0.00000000000E+00 -0.10208761046E+04  0.10208761046E+04  0.50400000000E-02 0.  1.
    8880023    1    1    2    0    0  0.25770797129E+03  0.25346439282E+03 -0.81309096819E+03  0.11070613017E+04  0.65864270000E+03 0.  0.
    8880022    1    1    2    0    0 -0.25770797129E+03 -0.25346439282E+03  0.57262653852E+03  0.69422647784E+03  0.15294330000E+03 0. -1.
<mgrwt>
<rscale>  0 0.63873710E+03</rscale>
<asrwt>0</asrwt>
<pdfrwt beam="1">  1        1 0.12006333E+00 0.75131072E+03</pdfrwt>
<pdfrwt beam="2">  1       -1 0.15705786E+00 0.75131072E+03</pdfrwt>
<totfact> 0.73113200E+00</totfact>
</mgrwt>
</event>
<event>
 4    1  0.2514307E-008  0.1746531E+04  0.7818608E-02  0.8752705E-01
         -1   -1    0    0    0  501 -0.00000000000E+00  0.00000000000E+00  0.23051968558E+04  0.23051968558E+04  0.50400000000E-02 0.  1.
          1   -1    0    0  501    0  0.00000000000E+00 -0.00000000000E+00 -0.17980574131E+04  0.17980574131E+04  0.50400000000E-02 0. -1.
    8880023    1    1    2    0    0 -0.16168935500E+04 -0.47051606800E+02  0.14098284775E+04  0.22445456440E+04  0.65864270000E+03 0.  0.
    8880022    1    1    2    0    0  0.16168935500E+04  0.47051606800E+02 -0.90268903477E+03  0.18587086249E+04  0.15294330000E+03 0.  0.
<mgrwt>
<rscale>  0 0.17152665E+04</rscale>
<asrwt>0</asrwt>
<pdfrwt beam="1">  1        1 0.27662422E+00 0.17465305E+04</pdfrwt>
<pdfrwt beam="2">  1       -1 0.35464567E+00 0.17465305E+04</pdfrwt>
<totfact> 0.54194491E-02</totfact>
</mgrwt>
</event>
<event>
 4    1  0.2514307E-008  0.7417645E+03  0.7818608E-02  0.9854837E-01
          1   -1    0    0  501    0  0.00000000000E+00  0.00000000000E+00  0.11373716957E+04  0.11373716957E+04  0.50400000000E-02 0. -1.
         -1   -1    0    0    0  501 -0.00000000000E+00 -0.00000000000E+00 -0.35474679505E+03  0.35474679509E+03  0.50400000000E-02 0.  1.
    8880023    1    1    2    0    0  0.16686118691E+03 -0.29759325562E+03  0.14926810301E+03  0.75663437295E+03  0.65864270000E+03 0.  0.
    8880022    1    1    2    0    0 -0.16686118691E+03  0.29759325562E+03  0.63335679759E+03  0.73548411781E+03  0.15294330000E+03 0.  0.
<mgrwt>
<rscale>  0 0.62500920E+03</rscale>
<asrwt>0</asrwt>
<pdfrwt beam="1">  1        1 0.17498026E+00 0.74176452E+03</pdfrwt>
<pdfrwt beam="2">  1       -1 0.54576430E-01 0.74176452E+03</pdfrwt>
<totfact> 0.41411791E+01</totfact>
</mgrwt>
</event>
<event>
 4    1  0.2514307E-008  0.6934766E+03  0.7818608E-02  0.1002542E+00
          1   -1    0    0  501    0  0.00000000000E+00  0.00000000000E+00  0.23089468463E+04  0.23089468463E+04  0.50400000000E-02 0. -1.
         -1   -1    0    0    0  501 -0.00000000000E+00 -0.00000000000E+00 -0.38858899274E+03  0.38858899277E+03  0.50400000000E-02 0.  1.
    8880023    1    1    2    0    0  0.21601308685E+03 -0.20927955322E+02 -0.63142159729E+02  0.69634529625E+03  0.65864270000E+03 0.  0.
    8880022    1    1    2    0    0 -0.21601308685E+03  0.20927955322E+02  0.19835000133E+04  0.20011905428E+04  0.15294330000E+03 0. -1.
<mgrwt>
<rscale>  0 0.54549504E+03</rscale>
<asrwt>0</asrwt>
<pdfrwt beam="1">  1        1 0.35522259E+00 0.69347663E+03</pdfrwt>
<pdfrwt beam="2">  1       -1 0.59782922E-01 0.69347663E+03</pdfrwt>
<totfact> 0.55479967E+00</totfact>
</mgrwt>
</event>
<event>
 4    1  0.7417746E-008  0.1443584E+04  0.7818608E-02  0.8950536E-01
         -1   -1    0    0    0  501 -0.00000000000E+00  0.00000000000E+00  0.19529764703E+04  0.19529764704E+04  0.50400000000E-02 0.  1.
          1   -1    0    0  501    0  0.00000000000E+00 -0.00000000000E+00 -0.32271972676E+04  0.32271972676E+04  0.50400000000E-02 0. -1.
    8880023    1    1    2    0    0 -0.12863914155E+03 -0.12781143747E+04  0.15229109309E+04  0.20983784915E+04  0.65864270000E+03 0.  0.
    8880022    1    1    2    0    0  0.12863914155E+03  0.12781143747E+04 -0.27971317282E+04  0.30817952465E+04  0.15294330000E+03 0.  0.
<mgrwt>
<rscale>  0 0.14045437E+04</rscale>
<asrwt>0</asrwt>
<pdfrwt beam="1">  1        1 0.49649189E+00 0.14435839E+04</pdfrwt>
<pdfrwt beam="2">  1       -1 0.30045792E+00 0.14435839E+04</pdfrwt>
<totfact> 0.12713778E-02</totfact>
</mgrwt>
</event>
<event>
 4    1  0.2514307E-008  0.6646773E+03  0.7818608E-02  0.1019806E+00
         -1   -1    0    0    0  501 -0.00000000000E+00  0.00000000000E+00  0.64598422757E+03  0.64598422759E+03  0.50400000000E-02 0.  1.
          1   -1    0    0  501    0  0.00000000000E+00 -0.00000000000E+00 -0.64529453625E+03  0.64529453627E+03  0.50400000000E-02 0. -1.
    8880023    1    1    2    0    0  0.43356432177E+02 -0.78140243751E+02  0.45377168838E+03  0.80480098741E+03  0.65864270000E+03 0.  1.
    8880022    1    1    2    0    0 -0.43356432177E+02  0.78140243751E+02 -0.45308199706E+03  0.48647777645E+03  0.15294330000E+03 0.  0.
<mgrwt>
<rscale>  0 0.47756790E+03</rscale>
<asrwt>0</asrwt>
<pdfrwt beam="1">  1        1 0.99276083E-01 0.66467728E+03</pdfrwt>
<pdfrwt beam="2">  1       -1 0.99382189E-01 0.66467728E+03</pdfrwt>
<totfact> 0.30771143E+01</totfact>
</mgrwt>
</event>
<event>
 4    1  0.2514307E-008  0.1042637E+04  0.7818608E-02  0.9327785E-01
         -1   -1    0    0    0  501 -0.00000000000E+00  0.00000000000E+00  0.36800864101E+03  0.36800864105E+03  0.50400000000E-02 0.  1.
          1   -1    0    0  501    0  0.00000000000E+00 -0.00000000000E+00 -0.27587171430E+04  0.27587171430E+04  0.50400000000E-02 0. -1.
    8880023    1    1    2    0    0  0.70229466449E+03 -0.40008087152E+03 -0.72795233061E+03  0.12716160197E+04  0.65864270000E+03 0.  1.
    8880022    1    1    2    0    0 -0.70229466449E+03  0.40008087152E+03 -0.16627561714E+04  0.18551097644E+04  0.15294330000E+03 0.  0.
<mgrwt>
<rscale>  0 0.98264674E+03</rscale>
<asrwt>0</asrwt>
<pdfrwt beam="1">  1        1 0.42441801E+00 0.10426374E+04</pdfrwt>
<pdfrwt beam="2">  1       -1 0.56616716E-01 0.10426374E+04</pdfrwt>
<totfact> 0.28639533E+00</totfact>
</mgrwt>
</event>
<event>
 4    1  0.2514307E-008  0.7356948E+03  0.7818608E-02  0.9872670E-01
         -1   -1    0    0    0  501 -0.00000000000E+00  0.00000000000E+00  0.23538637643E+03  0.23538637649E+03  0.50400000000E-02 0.  1.
          1   -1    0    0  501    0  0.00000000000E+00 -0.00000000000E+00 -0.14882426296E+04  0.14882426296E+04  0.50400000000E-02 0. -1.
    8880023    1    1    2    0    0 -0.86959161326E+02 -0.31602962242E+03 -0.50334271680E+03  0.89140378886E+03  0.65864270000E+03 0.  1.
    8880022    1    1    2    0    0  0.86959161326E+02  0.31602962242E+03 -0.74951353636E+03  0.83222521722E+03  0.15294330000E+03 0.  0.
<mgrwt>
<rscale>  0 0.61604291E+03</rscale>
<asrwt>0</asrwt>
<pdfrwt beam="1">  1        1 0.22896040E+00 0.73569479E+03</pdfrwt>
<pdfrwt beam="2">  1       -1 0.36213290E-01 0.73569479E+03</pdfrwt>
<totfact> 0.50081564E+01</totfact>
</mgrwt>
</event>
<event>
 4    1  0.2514307E-008  0.7668911E+03  0.7818608E-02  0.9787583E-01
          1   -1    0    0  501    0  0.00000000000E+00  0.00000000000E+00  0.17049800741E+04  0.17049800741E+04  0.50400000000E-02 0. -1.
         -1   -1    0    0    0  501 -0.00000000000E+00 -0.00000000000E+00 -0.67853770726E+03  0.67853770727E+03  0.50400000000E-02 0.  1.
    8880023    1    1    2    0    0  0.28961414051E+03  0.26539656262E+03 -0.42175545717E+03  0.87521400683E+03  0.65864270000E+03 0.  1.
    8880022    1    1    2    0    0 -0.28961414051E+03 -0.26539656262E+03  0.14481978240E+04  0.15083037746E+04  0.15294330000E+03 0.  0.
<mgrwt>
<rscale>  0 0.66033179E+03</rscale>
<asrwt>0</asrwt>
<pdfrwt beam="1">  1        1 0.26230462E+00 0.76689106E+03</pdfrwt>
<pdfrwt beam="2">  1       -1 0.10439042E+00 0.76689106E+03</pdfrwt>
<totfact> 0.42554990E+00</totfact>
</mgrwt>
</event>
<event>
 4    1  0.2514307E-008  0.7616199E+03  0.7818608E-02  0.9800932E-01
         -1   -1    0    0    0  501 -0.00000000000E+00  0.00000000000E+00  0.18212098059E+04  0.18212098059E+04  0.50400000000E-02 0.  1.
          1   -1    0    0  501    0  0.00000000000E+00 -0.00000000000E+00 -0.94450077206E+03  0.94450077207E+03  0.50400000000E-02 0. -1.
    8880023    1    1    2    0    0  0.10298249988E+03 -0.36830592226E+03  0.16902109388E+04  0.18538818386E+04  0.65864270000E+03 0.  1.
    8880022    1    1    2    0    0 -0.10298249988E+03  0.36830592226E+03 -0.81350190492E+03  0.91182873939E+03  0.15294330000E+03 0.  0.
<mgrwt>
<rscale>  0 0.65312567E+03</rscale>
<asrwt>0</asrwt>
<pdfrwt beam="1">  1        1 0.14530781E+00 0.76161989E+03</pdfrwt>
<pdfrwt beam="2">  1       -1 0.28018612E+00 0.76161989E+03</pdfrwt>
<totfact> 0.78344615E-01</totfact>
</mgrwt>
</event>
<event>
 4    1  0.2514307E-008  0.8347328E+03  0.7818608E-02  0.9640193E-01
          1   -1    0    0  501    0  0.00000000000E+00  0.00000000000E+00  0.17105623065E+04  0.17105623065E+04  0.50400000000E-02 0. -1.
         -1   -1    0    0    0  501 -0.00000000000E+00 -0.00000000000E+00 -0.42351460345E+03  0.42351460348E+03  0.50400000000E-02 0.  1.
    8880023    1    1    2    0    0  0.47910656418E+03  0.18282634519E+03  0.11109646980E+03  0.84209334649E+03  0.65864270000E+03 0.  1.
    8880022    1    1    2    0    0 -0.47910656418E+03 -0.18282634519E+03  0.11759512333E+04  0.12919835635E+04  0.15294330000E+03 0.  0.
<mgrwt>
<rscale>  0 0.74692102E+03</rscale>
<asrwt>0</asrwt>
<pdfrwt beam="1">  1        1 0.26316343E+00 0.83473276E+03</pdfrwt>
<pdfrwt beam="2">  1       -1 0.65156093E-01 0.83473276E+03</pdfrwt>
<totfact> 0.11510579E+01</totfact>
</mgrwt>
</event>
<event>
 4    1  0.2514307E-008  0.8629371E+03  0.7818608E-02  0.9588360E-01
         -1   -1    0    0    0  501 -0.00000000000E+00  0.00000000000E+00  0.20183047245E+03  0.20183047251E+03  0.50400000000E-02 0.  1.
          1   -1    0    0  501    0  0.00000000000E+00 -0.00000000000E+00 -0.28466599847E+04  0.28466599847E+04  0.50400000000E-02 0. -1.
    8880023    1    1    2    0    0 -0.46552804796E+03 -0.30681248214E+03 -0.20233350857E+04  0.21996693702E+04  0.65864270000E+03 0.  0.
    8880022    1    1    2    0    0  0.46552804796E+03  0.30681248214E+03 -0.62149442655E+03  0.84882108708E+03  0.15294330000E+03 0.  0.
<mgrwt>
<rscale>  0 0.78071402E+03</rscale>
<asrwt>0</asrwt>
<pdfrwt beam="1">  1        1 0.43794766E+00 0.86293712E+03</pdfrwt>
<pdfrwt beam="2">  1       -1 0.31050844E-01 0.86293712E+03</pdfrwt>
<totfact> 0.77230036E+00</totfact>
</mgrwt>
</event>
<event>
 4    1  0.2514307E-008  0.8291178E+03  0.7818608E-02  0.9651051E-01
         -1   -1    0    0    0  501 -0.00000000000E+00  0.00000000000E+00  0.67814436716E+03  0.67814436718E+03  0.50400000000E-02 0.  1.
          1   -1    0    0  501    0  0.00000000000E+00 -0.00000000000E+00 -0.76936356448E+03  0.76936356450E+03  0.50400000000E-02 0. -1.
    8880023    1    1    2    0    0 -0.37849859701E+03 -0.33221215306E+03  0.19022411545E+03  0.85065946356E+03  0.65864270000E+03 0.  0.
    8880022    1    1    2    0    0  0.37849859701E+03  0.33221215306E+03 -0.28144331278E+03  0.59684846812E+03  0.15294330000E+03 0.  0.
<mgrwt>
<rscale>  0 0.74007482E+03</rscale>
<asrwt>0</asrwt>
<pdfrwt beam="1">  1        1 0.11836363E+00 0.82911779E+03</pdfrwt>
<pdfrwt beam="2">  1       -1 0.10432990E+00 0.82911779E+03</pdfrwt>
<totfact> 0.20708425E+01</totfact>
</mgrwt>
</event>
<event>
 4    1  0.2514307E-008  0.7104932E+03  0.7818608E-02  0.9956174E-01
          1   -1    0    0  501    0  0.00000000000E+00  0.00000000000E+00  0.98601645611E+03  0.98601645612E+03  0.50400000000E-02 0. -1.
         -1   -1    0    0    0  501 -0.00000000000E+00 -0.00000000000E+00 -0.79188882304E+03  0.79188882306E+03  0.50400000000E-02 0.  1.
    8880023    1    1    2    0    0 -0.24962004863E+03 -0.93167591196E+02 -0.59776612361E+03  0.92850681932E+03  0.65864270000E+03 0.  1.
    8880022    1    1    2    0    0  0.24962004863E+03  0.93167591196E+02  0.79189375668E+03  0.84939845986E+03  0.15294330000E+03 0.  0.
<mgrwt>
<rscale>  0 0.57614407E+03</rscale>
<asrwt>0</asrwt>
<pdfrwt beam="1">  1        1 0.15169484E+00 0.71049319E+03</pdfrwt>
<pdfrwt beam="2">  1       -1 0.12182905E+00 0.71049319E+03</pdfrwt>
<totfact> 0.96126497E+00</totfact>
</mgrwt>
</event>
<event>
 4    1  0.2514307E-008  0.6796138E+03  0.7818608E-02  0.1009543E+00
          1   -1    0    0  501    0  0.00000000000E+00  0.00000000000E+00  0.17798232149E+04  0.17798232149E+04  0.50400000000E-02 0. -1.
         -1   -1    0    0    0  501 -0.00000000000E+00 -0.00000000000E+00 -0.39487464186E+03  0.39487464189E+03  0.50400000000E-02 0.  1.
    8880023    1    1    2    0    0 -0.10359032640E+03  0.13165747156E+03 -0.87191087326E+02  0.68518401726E+03  0.65864270000E+03 0.  1.
    8880022    1    1    2    0    0  0.10359032640E+03 -0.13165747156E+03  0.14721396603E+04  0.14895138395E+04  0.15294330000E+03 0.  0.
<mgrwt>
<rscale>  0 0.51656674E+03</rscale>
<asrwt>0</asrwt>
<pdfrwt beam="1">  1        1 0.27381896E+00 0.67961375E+03</pdfrwt>
<pdfrwt beam="2">  1       -1 0.60749945E-01 0.67961375E+03</pdfrwt>
<totfact> 0.12167482E+01</totfact>
</mgrwt>
</event>
<event>
 4    1  0.2514307E-008  0.7170660E+03  0.7818608E-02  0.9932642E-01
          1   -1    0    0  501    0  0.00000000000E+00  0.00000000000E+00  0.13699948986E+04  0.13699948986E+04  0.50400000000E-02 0. -1.
         -1   -1    0    0    0  501 -0.00000000000E+00 -0.00000000000E+00 -0.95927874932E+03  0.95927874933E+03  0.50400000000E-02 0.  1.
    8880023    1    1    2    0    0 -0.27404170770E+02 -0.28217450039E+03 -0.80123179850E+03  0.10752469663E+04  0.65864270000E+03 0.  1.
    8880022    1    1    2    0    0  0.27404170770E+02  0.28217450039E+03  0.12119479478E+04  0.12540266817E+04  0.15294330000E+03 0.  0.
<mgrwt>
<rscale>  0 0.58705090E+03</rscale>
<asrwt>0</asrwt>
<pdfrwt beam="1">  1        1 0.21076845E+00 0.71706600E+03</pdfrwt>
<pdfrwt beam="2">  1       -1 0.14758135E+00 0.71706600E+03</pdfrwt>
<totfact> 0.30847085E+00</totfact>
</mgrwt>
</event>
<event>
 4    1  0.2514307E-008  0.9255397E+03  0.7818608E-02  0.9486217E-01
         -1   -1    0    0    0  501 -0.00000000000E+00  0.00000000000E+00  0.11985105746E+04  0.11985105746E+04  0.50400000000E-02 0.  1.
          1   -1    0    0  501    0  0.00000000000E+00 -0.00000000000E+00 -0.99585947154E+03  0.99585947155E+03  0.50400000000E-02 0. -1.
    8880023    1    1    2    0    0 -0.43418533196E+03  0.48404189533E+03  0.85548465311E+03  0.12603482284E+04  0.65864270000E+03 0.  0.
    8880022    1    1    2    0    0  0.43418533196E+03 -0.48404189533E+03 -0.65283355005E+03  0.93402181774E+03  0.15294330000E+03 0.  0.
<mgrwt>
<rscale>  0 0.85307673E+03</rscale>
<asrwt>0</asrwt>
<pdfrwt beam="1">  1        1 0.15320915E+00 0.92553966E+03</pdfrwt>
<pdfrwt beam="2">  1       -1 0.18438624E+00 0.92553966E+03</pdfrwt>
<totfact> 0.29904648E+00</totfact>
</mgrwt>
</event>
<event>
 4    1  0.2514307E-008  0.8953724E+03  0.7818608E-02  0.9533502E-01
          1   -1    0    0  501    0  0.00000000000E+00  0.00000000000E+00  0.13868605174E+04  0.13868605174E+04  0.50400000000E-02 0. -1.
         -1   -1    0    0    0  501 -0.00000000000E+00 -0.00000000000E+00 -0.11259936732E+04  0.11259936732E+04  0.50400000000E-02 0.  1.
    8880023    1    1    2    0    0  0.60653233809E+03 -0.25622016127E+00 -0.85217920684E+03  0.12360829865E+04  0.65864270000E+03 0.  1.
    8880022    1    1    2    0    0 -0.60653233809E+03  0.25622016127E+00  0.11130460511E+04  0.12767712041E+04  0.15294330000E+03 0.  0.
<mgrwt>
<rscale>  0 0.81858313E+03</rscale>
<asrwt>0</asrwt>
<pdfrwt beam="1">  1        1 0.21336316E+00 0.89537241E+03</pdfrwt>
<pdfrwt beam="2">  1       -1 0.17322980E+00 0.89537241E+03</pdfrwt>
<totfact> 0.18666181E+00</totfact>
</mgrwt>
</event>
<event>
 4    1  0.2514307E-008  0.7731250E+03  0.7818608E-02  0.9772242E-01
          1   -1    0    0  501    0  0.00000000000E+00  0.00000000000E+00  0.52297923567E+03  0.52297923570E+03  0.50400000000E-02 0. -1.
         -1   -1    0    0    0  501 -0.00000000000E+00 -0.00000000000E+00 -0.83196857101E+03  0.83196857102E+03  0.50400000000E-02 0.  1.
    8880023    1    1    2    0    0 -0.16407497249E+03  0.37012350481E+03 -0.45634942940E+03  0.89776222542E+03  0.65864270000E+03 0.  0.
    8880022    1    1    2    0    0  0.16407497249E+03 -0.37012350481E+03  0.14736009407E+03  0.45718558130E+03  0.15294330000E+03 0.  0.
<mgrwt>
<rscale>  0 0.66873731E+03</rscale>
<asrwt>0</asrwt>
<pdfrwt beam="1">  1        1 0.80458344E-01 0.77312497E+03</pdfrwt>
<pdfrwt beam="2">  1       -1 0.12799516E+00 0.77312497E+03</pdfrwt>
<totfact> 0.22466402E+01</totfact>
</mgrwt>
</event>
<event>
 4    1  0.2514307E-008  0.1614678E+04  0.7818608E-02  0.8832634E-01
          1   -1    0    0  501    0  0.00000000000E+00  0.00000000000E+00  0.41051753658E+04  0.41051753658E+04  0.50400000000E-02 0. -1.
         -1   -1    0    0    0  501 -0.00000000000E+00 -0.00000000000E+00 -0.11802063064E+04  0.11802063064E+04  0.50400000000E-02 0.  1.
    8880023    1    1    2    0    0 -0.99014803238E+03  0.10922366512E+04 -0.38393330217E+03  0.16596954585E+04  0.65864270000E+03 0.  0.
    8880022    1    1    2    0    0  0.99014803238E+03 -0.10922366512E+04  0.33089023616E+04  0.36256862137E+04  0.15294330000E+03 0.  0.
<mgrwt>
<rscale>  0 0.15804740E+04</rscale>
<asrwt>0</asrwt>
<pdfrwt beam="1">  1        1 0.63156544E+00 0.16146777E+04</pdfrwt>
<pdfrwt beam="2">  1       -1 0.18157020E+00 0.16146777E+04</pdfrwt>
<totfact> 0.14804156E-02</totfact>
</mgrwt>
</event>
<event>
 4    1  0.2514307E-008  0.7836540E+03  0.7818608E-02  0.9747323E-01
         -1   -1    0    0    0  501 -0.00000000000E+00  0.00000000000E+00  0.29159039348E+03  0.29159039352E+03  0.50400000000E-02 0.  1.
          1   -1    0    0  501    0  0.00000000000E+00 -0.00000000000E+00 -0.18084088952E+04  0.18084088952E+04  0.50400000000E-02 0. -1.
    8880023    1    1    2    0    0 -0.16325669010E+03  0.39198302204E+03 -0.36810296499E+03  0.86580219192E+03  0.65864270000E+03 0.  1.
    8880022    1    1    2    0    0  0.16325669010E+03 -0.39198302204E+03 -0.11487155367E+04  0.12341970968E+04  0.15294330000E+03 0.  0.
<mgrwt>
<rscale>  0 0.68267791E+03</rscale>
<asrwt>0</asrwt>
<pdfrwt beam="1">  1        1 0.27821674E+00 0.78365403E+03</pdfrwt>
<pdfrwt beam="2">  1       -1 0.44860062E-01 0.78365403E+03</pdfrwt>
<totfact> 0.20471327E+01</totfact>
</mgrwt>
</event>
<event>
 4    1  0.2514307E-008  0.1038907E+04  0.7818608E-02  0.9332337E-01
          1   -1    0    0  501    0  0.00000000000E+00  0.00000000000E+00  0.12847053197E+04  0.12847053197E+04  0.50400000000E-02 0. -1.
         -1   -1    0    0    0  501 -0.00000000000E+00 -0.00000000000E+00 -0.95092196481E+03  0.95092196482E+03  0.50400000000E-02 0.  1.
    8880023    1    1    2    0    0 -0.47809602983E+03  0.64571089284E+03 -0.42264155714E+03  0.11215856913E+04  0.65864270000E+03 0.  0.
    8880022    1    1    2    0    0  0.47809602983E+03 -0.64571089284E+03  0.75642491201E+03  0.11140415932E+04  0.15294330000E+03 0.  0.
<mgrwt>
<rscale>  0 0.97859635E+03</rscale>
<asrwt>0</asrwt>
<pdfrwt beam="1">  1        1 0.19764697E+00 0.10389074E+04</pdfrwt>
<pdfrwt beam="2">  1       -1 0.14629569E+00 0.10389074E+04</pdfrwt>
<totfact> 0.34581700E+00</totfact>
</mgrwt>
</event>
<event>
 4    1  0.2514307E-008  0.7780383E+03  0.7818608E-02  0.9760465E-01
         -1   -1    0    0    0  501 -0.00000000000E+00  0.00000000000E+00  0.42555494209E+03  0.42555494212E+03  0.50400000000E-02 0.  1.
          1   -1    0    0  501    0  0.00000000000E+00 -0.00000000000E+00 -0.17373807202E+04  0.17373807202E+04  0.50400000000E-02 0. -1.
    8880023    1    1    2    0    0 -0.32792722740E+03 -0.25297657851E+03  0.81066046097E+00  0.77803873887E+03  0.65864270000E+03 0.  1.
    8880022    1    1    2    0    0  0.32792722740E+03  0.25297657851E+03 -0.13126364386E+04  0.13848969235E+04  0.15294330000E+03 0.  0.
<mgrwt>
<rscale>  0 0.67528049E+03</rscale>
<asrwt>0</asrwt>
<pdfrwt beam="1">  1        1 0.26728934E+00 0.77803832E+03</pdfrwt>
<pdfrwt beam="2">  1       -1 0.65469992E-01 0.77803832E+03</pdfrwt>
<totfact> 0.11022103E+01</totfact>
</mgrwt>
</event>
<event>
 4    1  0.2514307E-008  0.7105141E+03  0.7818608E-02  0.9956097E-01
          1   -1    0    0  501    0  0.00000000000E+00  0.00000000000E+00  0.12616684980E+04  0.12616684980E+04  0.50400000000E-02 0. -1.
         -1   -1    0    0    0  501 -0.00000000000E+00 -0.00000000000E+00 -0.31744304304E+03  0.31744304308E+03  0.50400000000E-02 0.  1.
    8880023    1    1    2    0    0  0.21612813146E+03  0.15591238209E+03  0.14814922899E+03  0.72579504022E+03  0.65864270000E+03 0.  1.
    8880022    1    1    2    0    0 -0.21612813146E+03 -0.15591238209E+03  0.79607622598E+03  0.85331650089E+03  0.15294330000E+03 0.  0.
<mgrwt>
<rscale>  0 0.57617941E+03</rscale>
<asrwt>0</asrwt>
<pdfrwt beam="1">  1        1 0.19410285E+00 0.71051407E+03</pdfrwt>
<pdfrwt beam="2">  1       -1 0.48837391E-01 0.71051407E+03</pdfrwt>
<totfact> 0.41744430E+01</totfact>
</mgrwt>
</event>
<event>
 4    1  0.2686653E-008  0.1922816E+04  0.7818608E-02  0.8657478E-01
          1   -1    0    0  501    0  0.00000000000E+00  0.00000000000E+00  0.19869883392E+04  0.19869883392E+04  0.50400000000E-02 0. -1.
         -1   -1    0    0    0  501 -0.00000000000E+00 -0.00000000000E+00 -0.35885240819E+04  0.35885240819E+04  0.50400000000E-02 0.  1.
    8880023    1    1    2    0    0 -0.13183878053E+04  0.12350161189E+04 -0.28040605885E+04  0.33999966484E+04  0.65864270000E+03 0.  1.
    8880022    1    1    2    0    0  0.13183878053E+04 -0.12350161189E+04  0.12025248459E+04  0.21755157726E+04  0.15294330000E+03 0.  0.
<mgrwt>
<rscale>  0 0.18947417E+04</rscale>
<asrwt>0</asrwt>
<pdfrwt beam="1">  1        1 0.30569051E+00 0.19228160E+04</pdfrwt>
<pdfrwt beam="2">  1       -1 0.55208063E+00 0.19228160E+04</pdfrwt>
<totfact> 0.19482293E-03</totfact>
</mgrwt>
</event>
<event>
 4    1  0.2514307E-008  0.7523133E+03  0.7818608E-02  0.9825430E-01
         -1   -1    0    0    0  501 -0.00000000000E+00  0.00000000000E+00  0.14722492027E+04  0.14722492027E+04  0.50400000000E-02 0.  1.
          1   -1    0    0  501    0  0.00000000000E+00 -0.00000000000E+00 -0.77738918242E+03  0.77738918244E+03  0.50400000000E-02 0. -1.
    8880023    1    1    2    0    0  0.30001858672E+03 -0.20531414016E+03  0.13148311545E+04  0.15148452791E+04  0.65864270000E+03 0.  1.
    8880022    1    1    2    0    0 -0.30001858672E+03  0.20531414016E+03 -0.61997113417E+03  0.73479310608E+03  0.15294330000E+03 0.  0.
<mgrwt>
<rscale>  0 0.64015499E+03</rscale>
<asrwt>0</asrwt>
<pdfrwt beam="1">  1        1 0.11959834E+00 0.75231327E+03</pdfrwt>
<pdfrwt beam="2">  1       -1 0.22649988E+00 0.75231327E+03</pdfrwt>
<totfact> 0.24033454E+00</totfact>
</mgrwt>
</event>
<event>
 4    1  0.2514307E-008  0.1028030E+04  0.7818608E-02  0.9345771E-01
         -1   -1    0    0    0  501 -0.00000000000E+00  0.00000000000E+00  0.20382521738E+04  0.20382521738E+04  0.50400000000E-02 0.  1.
          1   -1    0    0  501    0  0.00000000000E+00 -0.00000000000E+00 -0.11606549008E+04  0.11606549008E+04  0.50400000000E-02 0. -1.
    8880023    1    1    2    0    0  0.76715778275E+03  0.18575354188E+03  0.17392796808E+04  0.20203810176E+04  0.65864270000E+03 0.  0.
    8880022    1    1    2    0    0 -0.76715778275E+03 -0.18575354188E+03 -0.86168240780E+03  0.11785260569E+04  0.15294330000E+03 0.  0.
<mgrwt>
<rscale>  0 0.96676135E+03</rscale>
<asrwt>0</asrwt>
<pdfrwt beam="1">  1        1 0.17856230E+00 0.10280300E+04</pdfrwt>
<pdfrwt beam="2">  1       -1 0.31357725E+00 0.10280300E+04</pdfrwt>
<totfact> 0.31146059E-01</totfact>
</mgrwt>
</event>
<event>
 4    1  0.2514307E-008  0.8820280E+03  0.7818608E-02  0.9555521E-01
          1   -1    0    0  501    0  0.00000000000E+00  0.00000000000E+00  0.27835505319E+04  0.27835505319E+04  0.50400000000E-02 0. -1.
         -1   -1    0    0    0  501 -0.00000000000E+00 -0.00000000000E+00 -0.37207577342E+03  0.37207577345E+03  0.50400000000E-02 0.  1.
    8880023    1    1    2    0    0  0.53408411980E+03  0.24272898111E+03  0.25880489009E+03  0.91921345872E+03  0.65864270000E+03 0.  0.
    8880022    1    1    2    0    0 -0.53408411980E+03 -0.24272898111E+03  0.21526698684E+04  0.22364128466E+04  0.15294330000E+03 0.  0.
<mgrwt>
<rscale>  0 0.80311374E+03</rscale>
<asrwt>0</asrwt>
<pdfrwt beam="1">  1        1 0.42823854E+00 0.88202801E+03</pdfrwt>
<pdfrwt beam="2">  1       -1 0.57242427E-01 0.88202801E+03</pdfrwt>
<totfact> 0.27588049E+00</totfact>
</mgrwt>
</event>
<event>
 4    1  0.2514307E-008  0.8443863E+03  0.7818608E-02  0.9621964E-01
          1   -1    0    0  501    0  0.00000000000E+00  0.00000000000E+00  0.18067135441E+04  0.18067135441E+04  0.50400000000E-02 0. -1.
         -1   -1    0    0    0  501 -0.00000000000E+00 -0.00000000000E+00 -0.45973662770E+03  0.45973662773E+03  0.50400000000E-02 0.  1.
    8880023    1    1    2    0    0  0.18587312610E+03  0.49460007489E+03  0.36458325470E+02  0.84517304077E+03  0.65864270000E+03 0.  1.
    8880022    1    1    2    0    0 -0.18587312610E+03 -0.49460007489E+03  0.13105185910E+04  0.14212771311E+04  0.15294330000E+03 0.  0.
<mgrwt>
<rscale>  0 0.75859342E+03</rscale>
<asrwt>0</asrwt>
<pdfrwt beam="1">  1        1 0.27795594E+00 0.84438632E+03</pdfrwt>
<pdfrwt beam="2">  1       -1 0.70728711E-01 0.84438632E+03</pdfrwt>
<totfact> 0.83804275E+00</totfact>
</mgrwt>
</event>
<event>
 4    1  0.2514307E-008  0.1654871E+04  0.7818608E-02  0.8807373E-01
         -1   -1    0    0    0  501 -0.00000000000E+00  0.00000000000E+00  0.15966254037E+04  0.15966254037E+04  0.50400000000E-02 0.  1.
          1   -1    0    0  501    0  0.00000000000E+00 -0.00000000000E+00 -0.20114701889E+04  0.20114701889E+04  0.50400000000E-02 0. -1.
    8880023    1    1    2    0    0 -0.45249227201E+03 -0.14491507448E+04  0.61696435590E+03  0.17661376957E+04  0.65864270000E+03 0.  0.
    8880022    1    1    2    0    0  0.45249227201E+03  0.14491507448E+04 -0.10318091410E+04  0.18419578969E+04  0.15294330000E+03 0.  0.
<mgrwt>
<rscale>  0 0.16216238E+04</rscale>
<asrwt>0</asrwt>
<pdfrwt beam="1">  1        1 0.30945695E+00 0.16548708E+04</pdfrwt>
<pdfrwt beam="2">  1       -1 0.24563468E+00 0.16548708E+04</pdfrwt>
<totfact> 0.20204136E-01</totfact>
</mgrwt>
</event>
<event>
 4    1  0.2514307E-008  0.1321933E+04  0.7818608E-02  0.9046847E-01
         -1   -1    0    0    0  501 -0.00000000000E+00  0.00000000000E+00  0.11971727945E+04  0.11971727945E+04  0.50400000000E-02 0.  1.
          1   -1    0    0  501    0  0.00000000000E+00 -0.00000000000E+00 -0.31629947169E+04  0.31629947169E+04  0.50400000000E-02 0. -1.
    8880023    1    1    2    0    0 -0.66403654044E+03 -0.93421269036E+03  0.66987784481E+03  0.14819731479E+04  0.65864270000E+03 0.  0.
    8880022    1    1    2    0    0  0.66403654044E+03  0.93421269036E+03 -0.26356997672E+04  0.28781943635E+04  0.15294330000E+03 0.  0.
<mgrwt>
<rscale>  0 0.12784309E+04</rscale>
<asrwt>0</asrwt>
<pdfrwt beam="1">  1        1 0.48661457E+00 0.13219335E+04</pdfrwt>
<pdfrwt beam="2">  1       -1 0.18418043E+00 0.13219335E+04</pdfrwt>
<totfact> 0.85777732E-02</totfact>
</mgrwt>
</event>
<event>
 4    1  0.2514307E-008  0.7423456E+03  0.7818608E-02  0.9853166E-01
          1   -1    0    0  501    0  0.00000000000E+00  0.00000000000E+00  0.30168201924E+03  0.30168201928E+03  0.50400000000E-02 0. -1.
         -1   -1    0    0    0  501 -0.00000000000E+00 -0.00000000000E+00 -0.12546918866E+04  0.12546918866E+04  0.50400000000E-02 0.  1.
    8880023    1    1    2    0    0  0.28213222708E+03 -0.19408300720E+03 -0.91668941170E+03  0.11795747077E+04  0.65864270000E+03 0.  1.
    8880022    1    1    2    0    0 -0.28213222708E+03  0.19408300720E+03 -0.36320455644E+02  0.37679919819E+03  0.15294330000E+03 0.  0.
<mgrwt>
<rscale>  0 0.62585733E+03</rscale>
<asrwt>0</asrwt>
<pdfrwt beam="1">  1        1 0.46412619E-01 0.74234562E+03</pdfrwt>
<pdfrwt beam="2">  1       -1 0.19302952E+00 0.74234562E+03</pdfrwt>
<totfact> 0.15071045E+01</totfact>
</mgrwt>
</event>
<event>
 4    1  0.2514307E-008  0.6787083E+03  0.7818608E-02  0.1010064E+00
          1   -1    0    0  501    0  0.00000000000E+00  0.00000000000E+00  0.23887692654E+04  0.23887692655E+04  0.50400000000E-02 0. -1.
         -1   -1    0    0    0  501 -0.00000000000E+00 -0.00000000000E+00 -0.37866776368E+03  0.37866776371E+03  0.50400000000E-02 0.  1.
    8880023    1    1    2    0    0 -0.11879470004E+03  0.11279462086E+03 -0.63580340046E+02  0.68167989053E+03  0.65864270000E+03 0.  1.
    8880022    1    1    2    0    0  0.11879470004E+03 -0.11279462086E+03  0.20736818418E+04  0.20857571386E+04  0.15294330000E+03 0.  0.
<mgrwt>
<rscale>  0 0.51449240E+03</rscale>
<asrwt>0</asrwt>
<pdfrwt beam="1">  1        1 0.36750296E+00 0.67870834E+03</pdfrwt>
<pdfrwt beam="2">  1       -1 0.58256579E-01 0.67870834E+03</pdfrwt>
<totfact> 0.51709169E+00</totfact>
</mgrwt>
</event>
<event>
 4    1  0.2514307E-008  0.1255827E+04  0.7818608E-02  0.9104677E-01
          1   -1    0    0  501    0  0.00000000000E+00  0.00000000000E+00  0.18916590156E+04  0.18916590156E+04  0.50400000000E-02 0. -1.
         -1   -1    0    0    0  501 -0.00000000000E+00 -0.00000000000E+00 -0.12056943029E+04  0.12056943029E+04  0.50400000000E-02 0.  1.
    8880023    1    1    2    0    0  0.96652679604E+03  0.45729211225E+03 -0.62169149609E+03  0.14012853549E+04  0.65864270000E+03 0.  1.
    8880022    1    1    2    0    0 -0.96652679604E+03 -0.45729211225E+03  0.13076562088E+04  0.16960679635E+04  0.15294330000E+03 0.  0.
<mgrwt>
<rscale>  0 0.12093898E+04</rscale>
<asrwt>0</asrwt>
<pdfrwt beam="1">  1        1 0.29102446E+00 0.12558266E+04</pdfrwt>
<pdfrwt beam="2">  1       -1 0.18549143E+00 0.12558266E+04</pdfrwt>
<totfact> 0.65368352E-01</totfact>
</mgrwt>
</event>
<event>
 4    1  0.2514307E-008  0.8713995E+03  0.7818608E-02  0.9573599E-01
          1   -1    0    0  501    0  0.00000000000E+00  0.00000000000E+00  0.14424345838E+04  0.14424345838E+04  0.50400000000E-02 0. -1.
         -1   -1    0    0    0  501 -0.00000000000E+00 -0.00000000000E+00 -0.45778438939E+03  0.45778438942E+03  0.50400000000E-02 0.  1.
    8880023    1    1    2    0    0  0.77228495883E+02  0.56529866423E+03  0.16020177096E+03  0.88600317948E+03  0.65864270000E+03 0.  0.
    8880022    1    1    2    0    0 -0.77228495883E+02 -0.56529866423E+03  0.82444842343E+03  0.10142157937E+04  0.15294330000E+03 0.  0.
<mgrwt>
<rscale>  0 0.79068493E+03</rscale>
<asrwt>0</asrwt>
<pdfrwt beam="1">  1        1 0.22191301E+00 0.87139946E+03</pdfrwt>
<pdfrwt beam="2">  1       -1 0.70428368E-01 0.87139946E+03</pdfrwt>
<totfact> 0.14903736E+01</totfact>
</mgrwt>
</event>
<event>
 4    1  0.2514307E-008  0.1384604E+04  0.7818608E-02  0.8995739E-01
         -1   -1    0    0    0  501 -0.00000000000E+00  0.00000000000E+00  0.17024528507E+04  0.17024528507E+04  0.50400000000E-02 0.  1.
          1   -1    0    0  501    0  0.00000000000E+00 -0.00000000000E+00 -0.19132344523E+04  0.19132344523E+04  0.50400000000E-02 0. -1.
    8880023    1    1    2    0    0 -0.99933966023E+03 -0.69616037976E+03  0.11377980619E+04  0.17921254607E+04  0.65864270000E+03 0.  0.
    8880022    1    1    2    0    0  0.99933966023E+03  0.69616037976E+03 -0.13485796635E+04  0.18235618423E+04  0.15294330000E+03 0.  0.
<mgrwt>
<rscale>  0 0.13435320E+04</rscale>
<asrwt>0</asrwt>
<pdfrwt beam="1">  1        1 0.29434376E+00 0.13846044E+04</pdfrwt>
<pdfrwt beam="2">  1       -1 0.26191582E+00 0.13846044E+04</pdfrwt>
<totfact> 0.19051517E-01</totfact>
</mgrwt>
</event>
<event>
 4    1  0.2514307E-008  0.8017366E+03  0.7818608E-02  0.9707054E-01
         -1   -1    0    0    0  501 -0.00000000000E+00  0.00000000000E+00  0.17847270967E+04  0.17847270967E+04  0.50400000000E-02 0.  1.
          1   -1    0    0  501    0  0.00000000000E+00 -0.00000000000E+00 -0.12400033369E+04  0.12400033369E+04  0.50400000000E-02 0. -1.
    8880023    1    1    2    0    0  0.43252813348E+03 -0.14795559314E+03  0.16414279431E+04  0.18267641726E+04  0.65864270000E+03 0.  1.
    8880022    1    1    2    0    0 -0.43252813348E+03  0.14795559314E+03 -0.10967041833E+04  0.11979662610E+04  0.15294330000E+03 0.  0.
<mgrwt>
<rscale>  0 0.70598374E+03</rscale>
<asrwt>0</asrwt>
<pdfrwt beam="1">  1        1 0.19076975E+00 0.80173665E+03</pdfrwt>
<pdfrwt beam="2">  1       -1 0.27457340E+00 0.80173665E+03</pdfrwt>
<totfact> 0.50606779E-01</totfact>
</mgrwt>
</event>
<event>
 4    1  0.2514307E-008  0.8582462E+03  0.7818608E-02  0.9596691E-01
         -1   -1    0    0    0  501 -0.00000000000E+00  0.00000000000E+00  0.47241539268E+03  0.47241539271E+03  0.50400000000E-02 0.  1.
          1   -1    0    0  501    0  0.00000000000E+00 -0.00000000000E+00 -0.11075100342E+04  0.11075100343E+04  0.50400000000E-02 0. -1.
    8880023    1    1    2    0    0 -0.49479156850E+03 -0.24074389318E+03 -0.49920289026E+03  0.99286960386E+03  0.65864270000E+03 0.  1.
    8880022    1    1    2    0    0  0.49479156850E+03  0.24074389318E+03 -0.13589175131E+03  0.58705582311E+03  0.15294330000E+03 0.  0.
<mgrwt>
<rscale>  0 0.77515594E+03</rscale>
<asrwt>0</asrwt>
<pdfrwt beam="1">  1        1 0.17038616E+00 0.85824619E+03</pdfrwt>
<pdfrwt beam="2">  1       -1 0.72679291E-01 0.85824619E+03</pdfrwt>
<totfact> 0.24294587E+01</totfact>
</mgrwt>
</event>
<event>
 4    1  0.2514307E-008  0.6641161E+03  0.7818608E-02  0.1020287E+00
         -1   -1    0    0    0  501 -0.00000000000E+00  0.00000000000E+00  0.38080111126E+03  0.38080111129E+03  0.50400000000E-02 0.  1.
          1   -1    0    0  501    0  0.00000000000E+00 -0.00000000000E+00 -0.16727093112E+04  0.16727093112E+04  0.50400000000E-02 0. -1.
    8880023    1    1    2    0    0  0.81843417727E+02  0.23272929444E+02  0.81407720956E+02  0.66908698804E+03  0.65864270000E+03 0.  1.
    8880022    1    1    2    0    0 -0.81843417727E+02 -0.23272929444E+02 -0.13733159209E+04  0.13844234344E+04  0.15294330000E+03 0.  0.
<mgrwt>
<rscale>  0 0.47583267E+03</rscale>
<asrwt>0</asrwt>
<pdfrwt beam="1">  1        1 0.25733989E+00 0.66411609E+03</pdfrwt>
<pdfrwt beam="2">  1       -1 0.58584787E-01 0.66411609E+03</pdfrwt>
<totfact> 0.15454409E+01</totfact>
</mgrwt>
</event>
<event>
 4    1  0.2514307E-008  0.7064125E+03  0.7818608E-02  0.9971572E-01
          1   -1    0    0  501    0  0.00000000000E+00  0.00000000000E+00  0.69052015779E+03  0.69052015781E+03  0.50400000000E-02 0. -1.
         -1   -1    0    0    0  501 -0.00000000000E+00 -0.00000000000E+00 -0.37463620751E+03  0.37463620754E+03  0.50400000000E-02 0.  1.
    8880023    1    1    2    0    0 -0.23152033634E+03 -0.10773447319E+03  0.14236643552E+03  0.72061556400E+03  0.65864270000E+03 0.  0.
    8880022    1    1    2    0    0  0.23152033634E+03  0.10773447319E+03  0.17351751477E+03  0.34454080135E+03  0.15294330000E+03 0.  1.
<mgrwt>
<rscale>  0 0.56914511E+03</rscale>
<asrwt>0</asrwt>
<pdfrwt beam="1">  1        1 0.10623387E+00 0.70641248E+03</pdfrwt>
<pdfrwt beam="2">  1       -1 0.57636339E-01 0.70641248E+03</pdfrwt>
<totfact> 0.86730545E+01</totfact>
</mgrwt>
</event>
<event>
 4    1  0.2514307E-008  0.8201020E+03  0.7818608E-02  0.9668907E-01
          1   -1    0    0  501    0  0.00000000000E+00  0.00000000000E+00  0.21473355005E+04  0.21473355005E+04  0.50400000000E-02 0. -1.
         -1   -1    0    0    0  501 -0.00000000000E+00 -0.00000000000E+00 -0.10481449856E+04  0.10481449856E+04  0.50400000000E-02 0.  1.
    8880023    1    1    2    0    0  0.47423911107E+03 -0.11770482037E+03 -0.84942865325E+03  0.11807185958E+04  0.65864270000E+03 0.  1.
    8880022    1    1    2    0    0 -0.47423911107E+03  0.11770482037E+03  0.19486191682E+04  0.20147618903E+04  0.15294330000E+03 0.  0.
<mgrwt>
<rscale>  0 0.72898637E+03</rscale>
<asrwt>0</asrwt>
<pdfrwt beam="1">  1        1 0.33035930E+00 0.82010205E+03</pdfrwt>
<pdfrwt beam="2">  1       -1 0.16125308E+00 0.82010205E+03</pdfrwt>
<totfact> 0.70861203E-01</totfact>
</mgrwt>
</event>
<event>
 4    1  0.2514307E-008  0.1174992E+04  0.7818608E-02  0.9181824E-01
         -1   -1    0    0    0  501 -0.00000000000E+00  0.00000000000E+00  0.14375752381E+04  0.14375752381E+04  0.50400000000E-02 0.  1.
          1   -1    0    0  501    0  0.00000000000E+00 -0.00000000000E+00 -0.28383812181E+04  0.28383812181E+04  0.50400000000E-02 0. -1.
    8880023    1    1    2    0    0  0.97166126856E+02  0.96817046670E+03  0.10867376866E+04  0.16005012697E+04  0.65864270000E+03 0.  1.
    8880022    1    1    2    0    0 -0.97166126856E+02 -0.96817046670E+03 -0.24875436665E+04  0.26754551865E+04  0.15294330000E+03 0.  0.
<mgrwt>
<rscale>  0 0.11243021E+04</rscale>
<asrwt>0</asrwt>
<pdfrwt beam="1">  1        1 0.43667403E+00 0.11749917E+04</pdfrwt>
<pdfrwt beam="2">  1       -1 0.22116542E+00 0.11749917E+04</pdfrwt>
<totfact> 0.84058682E-02</totfact>
</mgrwt>
</event>
<event>
 4    1  0.2514307E-008  0.1111038E+04  0.7818608E-02  0.9248865E-01
          1   -1    0    0  501    0  0.00000000000E+00  0.00000000000E+00  0.28890208714E+04  0.28890208714E+04  0.50400000000E-02 0. -1.
         -1   -1    0    0    0  501 -0.00000000000E+00 -0.00000000000E+00 -0.55045183148E+03  0.55045183151E+03  0.50400000000E-02 0.  1.
    8880023    1    1    2    0    0  0.68985676257E+03 -0.56981924560E+03  0.21722594915E+03  0.11320749290E+04  0.65864270000E+03 0.  1.
    8880022    1    1    2    0    0 -0.68985676257E+03  0.56981924560E+03  0.21213430908E+04  0.23073977740E+04  0.15294330000E+03 0.  0.
<mgrwt>
<rscale>  0 0.10562992E+04</rscale>
<asrwt>0</asrwt>
<pdfrwt beam="1">  1        1 0.44446475E+00 0.11110385E+04</pdfrwt>
<pdfrwt beam="2">  1       -1 0.84684896E-01 0.11110385E+04</pdfrwt>
<totfact> 0.10014439E+00</totfact>
</mgrwt>
</event>
<event>
 4    1  0.2514307E-008  0.1174134E+04  0.7818608E-02  0.9182685E-01
         -1   -1    0    0    0  501 -0.00000000000E+00  0.00000000000E+00  0.15645677062E+04  0.15645677062E+04  0.50400000000E-02 0.  1.
          1   -1    0    0  501    0  0.00000000000E+00 -0.00000000000E+00 -0.76200159496E+03  0.76200159497E+03  0.50400000000E-02 0. -1.
    8880023    1    1    2    0    0 -0.29787531959E+03  0.92522993621E+03  0.61298371505E+03  0.13245147723E+04  0.65864270000E+03 0.  1.
    8880022    1    1    2    0    0  0.29787531959E+03 -0.92522993621E+03  0.18958239619E+03  0.10020545289E+04  0.15294330000E+03 0.  0.
<mgrwt>
<rscale>  0 0.11233944E+04</rscale>
<asrwt>0</asrwt>
<pdfrwt beam="1">  1        1 0.11723102E+00 0.11741339E+04</pdfrwt>
<pdfrwt beam="2">  1       -1 0.24070272E+00 0.11741339E+04</pdfrwt>
<totfact> 0.18907541E+00</totfact>
</mgrwt>
</event>
<event>
 4    1  0.2514307E-008  0.8699074E+03  0.7818608E-02  0.9576177E-01
          1   -1    0    0  501    0  0.00000000000E+00  0.00000000000E+00  0.17645259402E+04  0.17645259402E+04  0.50400000000E-02 0. -1.
         -1   -1    0    0    0  501 -0.00000000000E+00 -0.00000000000E+00 -0.86603746489E+03  0.86603746491E+03  0.50400000000E-02 0.  1.
    8880023    1    1    2    0    0  0.41134354511E+03  0.39207811210E+03 -0.57576760487E+03  0.10431909217E+04  0.65864270000E+03 0.  0.
    8880022    1    1    2    0    0 -0.41134354511E+03 -0.39207811210E+03  0.14742560802E+04  0.15873724834E+04  0.15294330000E+03 0.  0.
<mgrwt>
<rscale>  0 0.78893196E+03</rscale>
<asrwt>0</asrwt>
<pdfrwt beam="1">  1        1 0.27146552E+00 0.86990745E+03</pdfrwt>
<pdfrwt beam="2">  1       -1 0.13323654E+00 0.86990745E+03</pdfrwt>
<totfact> 0.21096136E+00</totfact>
</mgrwt>
</event>
<event>
 4    1  0.2514307E-008  0.1707946E+04  0.7818608E-02  0.8775243E-01
         -1   -1    0    0    0  501 -0.00000000000E+00  0.00000000000E+00  0.22525942212E+04  0.22525942212E+04  0.50400000000E-02 0.  1.
          1   -1    0    0  501    0  0.00000000000E+00 -0.00000000000E+00 -0.18285175329E+04  0.18285175329E+04  0.50400000000E-02 0. -1.
    8880023    1    1    2    0    0  0.15751915680E+04 -0.45162602377E+02 -0.97640551428E+03  0.19673449294E+04  0.65864270000E+03 0. -1.
    8880022    1    1    2    0    0 -0.15751915680E+04  0.45162602377E+02  0.14004822026E+04  0.21137668247E+04  0.15294330000E+03 0.  0.
<mgrwt>
<rscale>  0 0.16758782E+04</rscale>
<asrwt>0</asrwt>
<pdfrwt beam="1">  1        1 0.28131039E+00 0.17079456E+04</pdfrwt>
<pdfrwt beam="2">  1       -1 0.34655296E+00 0.17079456E+04</pdfrwt>
<totfact> 0.58725278E-02</totfact>
</mgrwt>
</event>
<event>
 4    1  0.2514307E-008  0.7014644E+03  0.7818608E-02  0.9991180E-01
         -1   -1    0    0    0  501 -0.00000000000E+00  0.00000000000E+00  0.52344859548E+03  0.52344859551E+03  0.50400000000E-02 0.  1.
          1   -1    0    0  501    0  0.00000000000E+00 -0.00000000000E+00 -0.16914312666E+04  0.16914312667E+04  0.50400000000E-02 0. -1.
    8880023    1    1    2    0    0  0.23468994676E+03  0.56237984105E+02  0.26787422733E+03  0.75087208624E+03  0.65864270000E+03 0.  1.
    8880022    1    1    2    0    0 -0.23468994676E+03 -0.56237984105E+02 -0.14358568985E+04  0.14640077759E+04  0.15294330000E+03 0.  0.
<mgrwt>
<rscale>  0 0.56038684E+03</rscale>
<asrwt>0</asrwt>
<pdfrwt beam="1">  1        1 0.26022019E+00 0.70146439E+03</pdfrwt>
<pdfrwt beam="2">  1       -1 0.80530554E-01 0.70146439E+03</pdfrwt>
<totfact> 0.78080203E+00</totfact>
</mgrwt>
</event>
<event>
 4    1  0.2514307E-008  0.8411710E+03  0.7818608E-02  0.9627976E-01
         -1   -1    0    0    0  501 -0.00000000000E+00  0.00000000000E+00  0.18712617403E+03  0.18712617410E+03  0.50400000000E-02 0.  1.
          1   -1    0    0  501    0  0.00000000000E+00 -0.00000000000E+00 -0.30819639800E+04  0.30819639800E+04  0.50400000000E-02 0. -1.
    8880023    1    1    2    0    0 -0.50509302394E+03 -0.13652625318E+03 -0.10499216680E+04  0.13453267617E+04  0.65864270000E+03 0.  1.
    8880022    1    1    2    0    0  0.50509302394E+03  0.13652625318E+03 -0.18449161380E+04  0.19237633924E+04  0.15294330000E+03 0.  0.
<mgrwt>
<rscale>  0 0.75471881E+03</rscale>
<asrwt>0</asrwt>
<pdfrwt beam="1">  1        1 0.47414827E+00 0.84117096E+03</pdfrwt>
<pdfrwt beam="2">  1       -1 0.28788644E-01 0.84117096E+03</pdfrwt>
<totfact> 0.59998195E+00</totfact>
</mgrwt>
</event>
<event>
 4    1  0.2514307E-008  0.7056706E+03  0.7818608E-02  0.9974444E-01
          1   -1    0    0  501    0  0.00000000000E+00  0.00000000000E+00  0.18952931097E+04  0.18952931098E+04  0.50400000000E-02 0. -1.
         -1   -1    0    0    0  501 -0.00000000000E+00 -0.00000000000E+00 -0.59523682614E+03  0.59523682616E+03  0.50400000000E-02 0.  1.
    8880023    1    1    2    0    0 -0.45466520740E+02  0.24918576090E+03 -0.36839519733E+03  0.79604395332E+03  0.65864270000E+03 0.  0.
    8880022    1    1    2    0    0  0.45466520740E+02 -0.24918576090E+03  0.16684514809E+04  0.16944859826E+04  0.15294330000E+03 0. -1.
<mgrwt>
<rscale>  0 0.56785181E+03</rscale>
<asrwt>0</asrwt>
<pdfrwt beam="1">  1        1 0.29158356E+00 0.70567057E+03</pdfrwt>
<pdfrwt beam="2">  1       -1 0.91574895E-01 0.70567057E+03</pdfrwt>
<totfact> 0.43139023E+00</totfact>
</mgrwt>
</event>
<event>
 4    1  0.2514307E-008  0.1030406E+04  0.7818608E-02  0.9342816E-01
         -1   -1    0    0    0  501 -0.00000000000E+00  0.00000000000E+00  0.62086858708E+03  0.62086858710E+03  0.50400000000E-02 0.  1.
          1   -1    0    0  501    0  0.00000000000E+00 -0.00000000000E+00 -0.23114432658E+04  0.23114432658E+04  0.50400000000E-02 0. -1.
    8880023    1    1    2    0    0 -0.27730731463E+03  0.74231136156E+03  0.31094908906E+02  0.10308746790E+04  0.65864270000E+03 0.  0.
    8880022    1    1    2    0    0  0.27730731463E+03 -0.74231136156E+03 -0.17216695877E+04  0.19014371739E+04  0.15294330000E+03 0.  0.
<mgrwt>
<rscale>  0 0.96934913E+03</rscale>
<asrwt>0</asrwt>
<pdfrwt beam="1">  1        1 0.35560665E+00 0.10304056E+04</pdfrwt>
<pdfrwt beam="2">  1       -1 0.95518245E-01 0.10304056E+04</pdfrwt>
<totfact> 0.19548459E+00</totfact>
</mgrwt>
</event>
<event>
 4    1  0.2514307E-008  0.8344114E+03  0.7818608E-02  0.9640809E-01
          1   -1    0    0  501    0  0.00000000000E+00  0.00000000000E+00  0.67780197707E+03  0.67780197709E+03  0.50400000000E-02 0. -1.
         -1   -1    0    0    0  501 -0.00000000000E+00 -0.00000000000E+00 -0.18590569573E+04  0.18590569574E+04  0.50400000000E-02 0.  1.
    8880023    1    1    2    0    0  0.36321256668E+03 -0.36126000019E+03 -0.16350187594E+04  0.18356276056E+04  0.65864270000E+03 0.  0.
    8880022    1    1    2    0    0 -0.36321256668E+03  0.36126000019E+03  0.45376377916E+03  0.70123132889E+03  0.15294330000E+03 0.  0.
<mgrwt>
<rscale>  0 0.74653035E+03</rscale>
<asrwt>0</asrwt>
<pdfrwt beam="1">  1        1 0.10427723E+00 0.83441139E+03</pdfrwt>
<pdfrwt beam="2">  1       -1 0.28600876E+00 0.83441139E+03</pdfrwt>
<totfact> 0.12081081E+00</totfact>
</mgrwt>
</event>
<event>
 4    1  0.2514307E-008  0.8168480E+03  0.7818608E-02  0.9675485E-01
         -1   -1    0    0    0  501 -0.00000000000E+00  0.00000000000E+00  0.38447432673E+03  0.38447432676E+03  0.50400000000E-02 0.  1.
          1   -1    0    0  501    0  0.00000000000E+00 -0.00000000000E+00 -0.16327341908E+04  0.16327341908E+04  0.50400000000E-02 0. -1.
    8880023    1    1    2    0    0 -0.88496292775E+02 -0.47497248092E+03 -0.18234101937E+03  0.83695215220E+03  0.65864270000E+03 0.  0.
    8880022    1    1    2    0    0  0.88496292775E+02  0.47497248092E+03 -0.10659188447E+04  0.11802563653E+04  0.15294330000E+03 0.  0.
<mgrwt>
<rscale>  0 0.72495323E+03</rscale>
<asrwt>0</asrwt>
<pdfrwt beam="1">  1        1 0.25118987E+00 0.81684800E+03</pdfrwt>
<pdfrwt beam="2">  1       -1 0.59149897E-01 0.81684800E+03</pdfrwt>
<totfact> 0.15788224E+01</totfact>
</mgrwt>
</event>
<event>
 4    1  0.2514307E-008  0.1460097E+04  0.7818608E-02  0.8938339E-01
         -1   -1    0    0    0  501 -0.00000000000E+00  0.00000000000E+00  0.12584979801E+04  0.12584979801E+04  0.50400000000E-02 0.  1.
          1   -1    0    0  501    0  0.00000000000E+00 -0.00000000000E+00 -0.21537638945E+04  0.21537638945E+04  0.50400000000E-02 0. -1.
    8880023    1    1    2    0    0  0.49082172460E+03  0.12071317725E+04  0.45517748353E+03  0.15294017881E+04  0.65864270000E+03 0.  0.
    8880022    1    1    2    0    0 -0.49082172460E+03 -0.12071317725E+04 -0.13504433980E+04  0.18828600866E+04  0.15294330000E+03 0.  0.
<mgrwt>
<rscale>  0 0.14215874E+04</rscale>
<asrwt>0</asrwt>
<pdfrwt beam="1">  1        1 0.33134829E+00 0.14600970E+04</pdfrwt>
<pdfrwt beam="2">  1       -1 0.19361507E+00 0.14600970E+04</pdfrwt>
<totfact> 0.37097629E-01</totfact>
</mgrwt>
</event>
<event>
 4    1  0.2514307E-008  0.1244364E+04  0.7818608E-02  0.9115159E-01
          1   -1    0    0  501    0  0.00000000000E+00  0.00000000000E+00  0.25047114277E+04  0.25047114277E+04  0.50400000000E-02 0. -1.
         -1   -1    0    0    0  501 -0.00000000000E+00 -0.00000000000E+00 -0.54798524188E+03  0.54798524191E+03  0.50400000000E-02 0.  1.
    8880023    1    1    2    0    0 -0.83977512739E+03  0.63985166233E+03  0.80095654364E+03  0.14798560759E+04  0.65864270000E+03 0.  0.
    8880022    1    1    2    0    0  0.83977512739E+03 -0.63985166233E+03  0.11557696422E+04  0.15728405937E+04  0.15294330000E+03 0.  0.
<mgrwt>
<rscale>  0 0.11973734E+04</rscale>
<asrwt>0</asrwt>
<pdfrwt beam="1">  1        1 0.38534023E+00 0.12443643E+04</pdfrwt>
<pdfrwt beam="2">  1       -1 0.84305420E-01 0.12443643E+04</pdfrwt>
<totfact> 0.18482137E+00</totfact>
</mgrwt>
</event>
<event>
 4    1  0.2514307E-008  0.1373962E+04  0.7818608E-02  0.9004183E-01
         -1   -1    0    0    0  501 -0.00000000000E+00  0.00000000000E+00  0.11952107353E+04  0.11952107353E+04  0.50400000000E-02 0.  1.
          1   -1    0    0  501    0  0.00000000000E+00 -0.00000000000E+00 -0.18118311144E+04  0.18118311144E+04  0.50400000000E-02 0. -1.
    8880023    1    1    2    0    0 -0.88377074073E+03  0.82031201824E+03  0.39068580721E+03  0.14284285546E+04  0.65864270000E+03 0.  0.
    8880022    1    1    2    0    0  0.88377074073E+03 -0.82031201824E+03 -0.10073061864E+04  0.15786132951E+04  0.15294330000E+03 0.  0.
<mgrwt>
<rscale>  0 0.13324985E+04</rscale>
<asrwt>0</asrwt>
<pdfrwt beam="1">  1        1 0.27874325E+00 0.13739624E+04</pdfrwt>
<pdfrwt beam="2">  1       -1 0.18387857E+00 0.13739624E+04</pdfrwt>
<totfact> 0.74971798E-01</totfact>
</mgrwt>
</event>
<event>
 4    1  0.2514307E-008  0.1423104E+04  0.7818608E-02  0.8965935E-01
          1   -1    0    0  501    0  0.00000000000E+00  0.00000000000E+00  0.17403126605E+04  0.17403126605E+04  0.50400000000E-02 0. -1.
         -1   -1    0    0    0  501 -0.00000000000E+00 -0.00000000000E+00 -0.23071253861E+04  0.23071253861E+04  0.50400000000E-02 0.  1.
    8880023    1    1    2    0    0  0.70657888130E+03 -0.10450651619E+04 -0.17878759250E+04  0.22851095023E+04  0.65864270000E+03 0.  0.
    8880022    1    1    2    0    0 -0.70657888130E+03  0.10450651619E+04  0.12210631994E+04  0.17623285443E+04  0.15294330000E+03 0.  0.
<mgrwt>
<rscale>  0 0.13833834E+04</rscale>
<asrwt>0</asrwt>
<pdfrwt beam="1">  1        1 0.26774041E+00 0.14231040E+04</pdfrwt>
<pdfrwt beam="2">  1       -1 0.35494237E+00 0.14231040E+04</pdfrwt>
<totfact> 0.61564423E-02</totfact>
</mgrwt>
</event>
<event>
 4    1  0.2514307E-008  0.9500265E+03  0.7818608E-02  0.9450076E-01
          1   -1    0    0  501    0  0.00000000000E+00  0.00000000000E+00  0.18415122163E+04  0.18415122163E+04  0.50400000000E-02 0. -1.
         -1   -1    0    0    0  501 -0.00000000000E+00 -0.00000000000E+00 -0.50930900065E+03  0.50930900067E+03  0.50400000000E-02 0.  1.
    8880023    1    1    2    0    0 -0.67012693818E+03  0.14024990751E+03  0.12996216204E+03  0.95887461102E+03  0.65864270000E+03 0.  0.
    8880022    1    1    2    0    0  0.67012693818E+03 -0.14024990751E+03  0.12022410536E+04  0.13919466060E+04  0.15294330000E+03 0.  0.
<mgrwt>
<rscale>  0 0.88066750E+03</rscale>
<asrwt>0</asrwt>
<pdfrwt beam="1">  1        1 0.28330958E+00 0.95002650E+03</pdfrwt>
<pdfrwt beam="2">  1       -1 0.78355229E-01 0.95002650E+03</pdfrwt>
<totfact> 0.63224496E+00</totfact>
</mgrwt>
</event>
<event>
 4    1  0.2514307E-008  0.9563133E+03  0.7818608E-02  0.9441088E-01
         -1   -1    0    0    0  501 -0.00000000000E+00  0.00000000000E+00  0.76919916724E+03  0.76919916725E+03  0.50400000000E-02 0.  1.
          1   -1    0    0  501    0  0.00000000000E+00 -0.00000000000E+00 -0.14344069292E+04  0.14344069293E+04  0.50400000000E-02 0. -1.
    8880023    1    1    2    0    0 -0.57019412212E+03 -0.39446616348E+03  0.30281629816E+03  0.10031115629E+04  0.65864270000E+03 0.  1.
    8880022    1    1    2    0    0  0.57019412212E+03  0.39446616348E+03 -0.96802406017E+03  0.12004945336E+04  0.15294330000E+03 0.  0.
<mgrwt>
<rscale>  0 0.88770059E+03</rscale>
<asrwt>0</asrwt>
<pdfrwt beam="1">  1        1 0.22067799E+00 0.95631328E+03</pdfrwt>
<pdfrwt beam="2">  1       -1 0.11833833E+00 0.95631328E+03</pdfrwt>
<totfact> 0.47039435E+00</totfact>
</mgrwt>
</event>
<event>
 4    1  0.2514307E-008  0.7161343E+03  0.7818608E-02  0.9935890E-01
         -1   -1    0    0    0  501 -0.00000000000E+00  0.00000000000E+00  0.20795760961E+03  0.20795760967E+03  0.50400000000E-02 0.  1.
          1   -1    0    0  501    0  0.00000000000E+00 -0.00000000000E+00 -0.19881596817E+04  0.19881596817E+04  0.50400000000E-02 0. -1.
    8880023    1    1    2    0    0  0.33881297926E+02  0.27908811360E+03 -0.49225560789E+03  0.86900167277E+03  0.65864270000E+03 0.  1.
    8880022    1    1    2    0    0 -0.33881297926E+02 -0.27908811360E+03 -0.12879464642E+04  0.13271156186E+04  0.15294330000E+03 0.  0.
<mgrwt>
<rscale>  0 0.58552997E+03</rscale>
<asrwt>0</asrwt>
<pdfrwt beam="1">  1        1 0.30587071E+00 0.71613429E+03</pdfrwt>
<pdfrwt beam="2">  1       -1 0.31993480E-01 0.71613429E+03</pdfrwt>
<totfact> 0.28822263E+01</totfact>
</mgrwt>
</event>
<event>
 4    1  0.2514307E-008  0.6696089E+03  0.7818608E-02  0.1015945E+00
          1   -1    0    0  501    0  0.00000000000E+00  0.00000000000E+00  0.11051265097E+04  0.11051265097E+04  0.50400000000E-02 0. -1.
         -1   -1    0    0    0  501 -0.00000000000E+00 -0.00000000000E+00 -0.50517402679E+03  0.50517402682E+03  0.50400000000E-02 0.  1.
    8880023    1    1    2    0    0 -0.41675181433E+02  0.11326553477E+03 -0.26763002622E+03  0.72111159976E+03  0.65864270000E+03 0.  1.
    8880022    1    1    2    0    0  0.41675181433E+02 -0.11326553477E+03  0.86758250908E+03  0.88918893672E+03  0.15294330000E+03 0.  0.
<mgrwt>
<rscale>  0 0.49178831E+03</rscale>
<asrwt>0</asrwt>
<pdfrwt beam="1">  1        1 0.17001946E+00 0.66960892E+03</pdfrwt>
<pdfrwt beam="2">  1       -1 0.77719083E-01 0.66960892E+03</pdfrwt>
<totfact> 0.21689313E+01</totfact>
</mgrwt>
</event>
<event>
 4    1  0.2514307E-008  0.9496065E+03  0.7818608E-02  0.9450680E-01
         -1   -1    0    0    0  501 -0.00000000000E+00  0.00000000000E+00  0.41880116057E+03  0.41880116060E+03  0.50400000000E-02 0.  1.
          1   -1    0    0  501    0  0.00000000000E+00 -0.00000000000E+00 -0.18724782412E+04  0.18724782412E+04  0.50400000000E-02 0. -1.
    8880023    1    1    2    0    0  0.55578217671E+03 -0.39880882335E+03 -0.41063410181E+03  0.10345882647E+04  0.65864270000E+03 0. -1.
    8880022    1    1    2    0    0 -0.55578217671E+03  0.39880882335E+03 -0.10430429788E+04  0.12566911372E+04  0.15294330000E+03 0.  0.
<mgrwt>
<rscale>  0 0.88019695E+03</rscale>
<asrwt>0</asrwt>
<pdfrwt beam="1">  1        1 0.28807357E+00 0.94960650E+03</pdfrwt>
<pdfrwt beam="2">  1       -1 0.64430949E-01 0.94960650E+03</pdfrwt>
<totfact> 0.90255879E+00</totfact>
</mgrwt>
</event>
<event>
 4    1  0.2514307E-008  0.1459798E+04  0.7818608E-02  0.8938558E-01
         -1   -1    0    0    0  501 -0.00000000000E+00  0.00000000000E+00  0.17703737755E+04  0.17703737755E+04  0.50400000000E-02 0.  1.
          1   -1    0    0  501    0  0.00000000000E+00 -0.00000000000E+00 -0.13017330791E+04  0.13017330792E+04  0.50400000000E-02 0. -1.
    8880023    1    1    2    0    0 -0.21189992384E+03  0.12854173858E+04  0.87121486968E+03  0.17000073497E+04  0.65864270000E+03 0.  0.
    8880022    1    1    2    0    0  0.21189992384E+03 -0.12854173858E+04 -0.40257417336E+03  0.13720995050E+04  0.15294330000E+03 0.  0.
<mgrwt>
<rscale>  0 0.14212787E+04</rscale>
<asrwt>0</asrwt>
<pdfrwt beam="1">  1        1 0.20026663E+00 0.14597978E+04</pdfrwt>
<pdfrwt beam="2">  1       -1 0.27236519E+00 0.14597978E+04</pdfrwt>
<totfact> 0.42807978E-01</totfact>
</mgrwt>
</event>
<event>
 4    1  0.2514307E-008  0.1716617E+04  0.7818608E-02  0.8770120E-01
         -1   -1    0    0    0  501 -0.00000000000E+00  0.00000000000E+00  0.22006221791E+04  0.22006221791E+04  0.50400000000E-02 0.  1.
          1   -1    0    0  501    0  0.00000000000E+00 -0.00000000000E+00 -0.14077881494E+04  0.14077881494E+04  0.50400000000E-02 0. -1.
    8880023    1    1    2    0    0 -0.15847115352E+04  0.40638129596E+02  0.10244430080E+04  0.19990637284E+04  0.65864270000E+03 0.  0.
    8880022    1    1    2    0    0  0.15847115352E+04 -0.40638129596E+02 -0.23160897828E+03  0.16093466001E+04  0.15294330000E+03 0.  0.
<mgrwt>
<rscale>  0 0.16847334E+04</rscale>
<asrwt>0</asrwt>
<pdfrwt beam="1">  1        1 0.21658279E+00 0.17166165E+04</pdfrwt>
<pdfrwt beam="2">  1       -1 0.33855725E+00 0.17166165E+04</pdfrwt>
<totfact> 0.12966890E-01</totfact>
</mgrwt>
</event>
<event>
 4    1  0.2514307E-008  0.6673662E+03  0.7818608E-02  0.1017626E+00
         -1   -1    0    0    0  501 -0.00000000000E+00  0.00000000000E+00  0.41076557538E+03  0.41076557541E+03  0.50400000000E-02 0.  1.
          1   -1    0    0  501    0  0.00000000000E+00 -0.00000000000E+00 -0.27899613615E+04  0.27899613615E+04  0.50400000000E-02 0. -1.
    8880023    1    1    2    0    0  0.71692233377E+01  0.10731270028E+03  0.13391583832E+03  0.68066957580E+03  0.65864270000E+03 0.  0.
    8880022    1    1    2    0    0 -0.71692233377E+01 -0.10731270028E+03 -0.25131116245E+04  0.25200573611E+04  0.15294330000E+03 0.  0.
<mgrwt>
<rscale>  0 0.48553230E+03</rscale>
<asrwt>0</asrwt>
<pdfrwt beam="1">  1        1 0.42922481E+00 0.66736618E+03</pdfrwt>
<pdfrwt beam="2">  1       -1 0.63194706E-01 0.66736618E+03</pdfrwt>
<totfact> 0.23423046E+00</totfact>
</mgrwt>
</event>
<event>
 4    1  0.2514307E-008  0.8201244E+03  0.7818608E-02  0.9668862E-01
         -1   -1    0    0    0  501 -0.00000000000E+00  0.00000000000E+00  0.30865308543E+03  0.30865308547E+03  0.50400000000E-02 0.  1.
          1   -1    0    0  501    0  0.00000000000E+00 -0.00000000000E+00 -0.15027834636E+04  0.15027834636E+04  0.50400000000E-02 0. -1.
    8880023    1    1    2    0    0 -0.31004110060E+02 -0.48768077194E+03 -0.54515171147E+03  0.98478138941E+03  0.65864270000E+03 0.  0.
    8880022    1    1    2    0    0  0.31004110060E+02  0.48768077194E+03 -0.64897866670E+03  0.82665515967E+03  0.15294330000E+03 0.  0.
<mgrwt>
<rscale>  0 0.72901399E+03</rscale>
<asrwt>0</asrwt>
<pdfrwt beam="1">  1        1 0.23119745E+00 0.82012438E+03</pdfrwt>
<pdfrwt beam="2">  1       -1 0.47485091E-01 0.82012438E+03</pdfrwt>
<totfact> 0.29510859E+01</totfact>
</mgrwt>
</event>
<event>
 4    1  0.2514307E-008  0.7676146E+03  0.7818608E-02  0.9785778E-01
          1   -1    0    0  501    0  0.00000000000E+00  0.00000000000E+00  0.56178745310E+03  0.56178745313E+03  0.50400000000E-02 0. -1.
         -1   -1    0    0    0  501 -0.00000000000E+00 -0.00000000000E+00 -0.18947306565E+04  0.18947306565E+04  0.50400000000E-02 0.  1.
    8880023    1    1    2    0    0  0.39373856469E+03  0.19796904252E+02 -0.17198379264E+04  0.18833679072E+04  0.65864270000E+03 0.  1.
    8880022    1    1    2    0    0 -0.39373856469E+03 -0.19796904252E+02  0.38689472302E+03  0.57315020235E+03  0.15294330000E+03 0.  0.
<mgrwt>
<rscale>  0 0.66131367E+03</rscale>
<asrwt>0</asrwt>
<pdfrwt beam="1">  1        1 0.86428840E-01 0.76761460E+03</pdfrwt>
<pdfrwt beam="2">  1       -1 0.29149702E+00 0.76761460E+03</pdfrwt>
<totfact> 0.14808765E+00</totfact>
</mgrwt>
</event>
<event>
 4    1  0.2514307E-008  0.7385081E+03  0.7818608E-02  0.9864314E-01
         -1   -1    0    0    0  501 -0.00000000000E+00  0.00000000000E+00  0.45932796236E+03  0.45932796239E+03  0.50400000000E-02 0.  1.
          1   -1    0    0  501    0  0.00000000000E+00 -0.00000000000E+00 -0.29650893220E+04  0.29650893220E+04  0.50400000000E-02 0. -1.
    8880023    1    1    2    0    0  0.18311134083E+03  0.27938202008E+03  0.14136611504E+03  0.75191665830E+03  0.65864270000E+03 0.  1.
    8880022    1    1    2    0    0 -0.18311134083E+03 -0.27938202008E+03 -0.26471274747E+04  0.26725006261E+04  0.15294330000E+03 0.  0.
<mgrwt>
<rscale>  0 0.62022380E+03</rscale>
<asrwt>0</asrwt>
<pdfrwt beam="1">  1        1 0.45616758E+00 0.73850815E+03</pdfrwt>
<pdfrwt beam="2">  1       -1 0.70665842E-01 0.73850815E+03</pdfrwt>
<totfact> 0.13835323E+00</totfact>
</mgrwt>
</event>
<event>
 4    1  0.2514307E-008  0.1250905E+04  0.7818608E-02  0.9109161E-01
          1   -1    0    0  501    0  0.00000000000E+00  0.00000000000E+00  0.20273584324E+04  0.20273584324E+04  0.50400000000E-02 0. -1.
         -1   -1    0    0    0  501 -0.00000000000E+00 -0.00000000000E+00 -0.11195148647E+04  0.11195148647E+04  0.50400000000E-02 0.  1.
    8880023    1    1    2    0    0 -0.13447082968E+03 -0.10549264484E+04 -0.52445001561E+03  0.13563960486E+04  0.65864270000E+03 0.  0.
    8880022    1    1    2    0    0  0.13447082968E+03  0.10549264484E+04  0.14322935833E+04  0.17904772485E+04  0.15294330000E+03 0.  0.
<mgrwt>
<rscale>  0 0.12042317E+04</rscale>
<asrwt>0</asrwt>
<pdfrwt beam="1">  1        1 0.31190129E+00 0.12509046E+04</pdfrwt>
<pdfrwt beam="2">  1       -1 0.17223306E+00 0.12509046E+04</pdfrwt>
<totfact> 0.66003070E-01</totfact>
</mgrwt>
</event>
<event>
 4    1  0.2514307E-008  0.1081351E+04  0.7818608E-02  0.9282109E-01
          1   -1    0    0  501    0  0.00000000000E+00  0.00000000000E+00  0.41709979643E+03  0.41709979646E+03  0.50400000000E-02 0. -1.
         -1   -1    0    0    0  501 -0.00000000000E+00 -0.00000000000E+00 -0.26582395336E+04  0.26582395336E+04  0.50400000000E-02 0.  1.
    8880023    1    1    2    0    0 -0.85761774493E+03 -0.14379612548E+01 -0.17975877674E+04  0.20977707815E+04  0.65864270000E+03 0.  0.
    8880022    1    1    2    0    0  0.85761774493E+03  0.14379612548E+01 -0.44355196977E+03  0.97756854852E+03  0.15294330000E+03 0.  0.
<mgrwt>
<rscale>  0 0.10244677E+04</rscale>
<asrwt>0</asrwt>
<pdfrwt beam="1">  1        1 0.64169201E-01 0.10813512E+04</pdfrwt>
<pdfrwt beam="2">  1       -1 0.40895992E+00 0.10813512E+04</pdfrwt>
<totfact> 0.35751029E-01</totfact>
</mgrwt>
</event>
<event>
 4    1  0.2514307E-008  0.1481727E+04  0.7818608E-02  0.8922648E-01
          1   -1    0    0  501    0  0.00000000000E+00  0.00000000000E+00  0.14409108635E+04  0.14409108635E+04  0.50400000000E-02 0. -1.
         -1   -1    0    0    0  501 -0.00000000000E+00 -0.00000000000E+00 -0.16601413740E+04  0.16601413740E+04  0.50400000000E-02 0.  1.
    8880023    1    1    2    0    0 -0.10946958078E+04 -0.75056332716E+03  0.52462902725E+03  0.15718619666E+04  0.65864270000E+03 0. -1.
    8880022    1    1    2    0    0  0.10946958078E+04  0.75056332716E+03 -0.74385953771E+03  0.15291902708E+04  0.15294330000E+03 0.  0.
<mgrwt>
<rscale>  0 0.14438890E+04</rscale>
<asrwt>0</asrwt>
<pdfrwt beam="1">  1        1 0.22167860E+00 0.14817268E+04</pdfrwt>
<pdfrwt beam="2">  1       -1 0.25540636E+00 0.14817268E+04</pdfrwt>
<totfact> 0.43827489E-01</totfact>
</mgrwt>
</event>
<event>
 4    1  0.2514307E-008  0.6890801E+03  0.7818608E-02  0.1004593E+00
          1   -1    0    0  501    0  0.00000000000E+00  0.00000000000E+00  0.21996840150E+04  0.21996840150E+04  0.50400000000E-02 0. -1.
         -1   -1    0    0    0  501 -0.00000000000E+00 -0.00000000000E+00 -0.22922600763E+03  0.22922600768E+03  0.50400000000E-02 0.  1.
    8880023    1    1    2    0    0  0.99198505023E+02 -0.17658108020E+03  0.32124460919E+03  0.76028253070E+03  0.65864270000E+03 0.  1.
    8880022    1    1    2    0    0 -0.99198505023E+02  0.17658108020E+03  0.16492133982E+04  0.16686274920E+04  0.15294330000E+03 0.  0.
<mgrwt>
<rscale>  0 0.53681406E+03</rscale>
<asrwt>0</asrwt>
<pdfrwt beam="1">  1        1 0.33841291E+00 0.68908013E+03</pdfrwt>
<pdfrwt beam="2">  1       -1 0.35265542E-01 0.68908013E+03</pdfrwt>
<totfact> 0.17592234E+01</totfact>
</mgrwt>
</event>
<event>
 4    1  0.2514307E-008  0.1696491E+04  0.7818608E-02  0.8782063E-01
          1   -1    0    0  501    0  0.00000000000E+00  0.00000000000E+00  0.20692058200E+04  0.20692058200E+04  0.50400000000E-02 0. -1.
         -1   -1    0    0    0  501 -0.00000000000E+00 -0.00000000000E+00 -0.14882817749E+04  0.14882817749E+04  0.50400000000E-02 0.  1.
    8880023    1    1    2    0    0 -0.15603819199E+04 -0.97372512604E+02 -0.34896834026E+03  0.17320110424E+04  0.65864270000E+03 0.  0.
    8880022    1    1    2    0    0  0.15603819199E+04  0.97372512604E+02  0.92989238541E+03  0.18254765525E+04  0.15294330000E+03 0.  0.
<mgrwt>
<rscale>  0 0.16641771E+04</rscale>
<asrwt>0</asrwt>
<pdfrwt beam="1">  1        1 0.31833936E+00 0.16964915E+04</pdfrwt>
<pdfrwt beam="2">  1       -1 0.22896643E+00 0.16964915E+04</pdfrwt>
<totfact> 0.23686504E-01</totfact>
</mgrwt>
</event>
<event>
 4    1  0.2514307E-008  0.9034505E+03  0.7818608E-02  0.9520515E-01
         -1   -1    0    0    0  501 -0.00000000000E+00  0.00000000000E+00  0.10097844210E+04  0.10097844210E+04  0.50400000000E-02 0.  1.
          1   -1    0    0  501    0  0.00000000000E+00 -0.00000000000E+00 -0.10123878505E+04  0.10123878505E+04  0.50400000000E-02 0. -1.
    8880023    1    1    2    0    0 -0.42814164888E+03  0.44621441615E+03  0.64785863584E+03  0.11117300009E+04  0.65864270000E+03 0.  0.
    8880022    1    1    2    0    0  0.42814164888E+03 -0.44621441615E+03 -0.65046206525E+03  0.91044227057E+03  0.15294330000E+03 0.  0.
<mgrwt>
<rscale>  0 0.82788085E+03</rscale>
<asrwt>0</asrwt>
<pdfrwt beam="1">  1        1 0.15575198E+00 0.90345049E+03</pdfrwt>
<pdfrwt beam="2">  1       -1 0.15535145E+00 0.90345049E+03</pdfrwt>
<totfact> 0.47613899E+00</totfact>
</mgrwt>
</event>
<event>
 4    1  0.2514307E-008  0.1227525E+04  0.7818608E-02  0.9130820E-01
         -1   -1    0    0    0  501 -0.00000000000E+00  0.00000000000E+00  0.98289919254E+03  0.98289919255E+03  0.50400000000E-02 0.  1.
          1   -1    0    0  501    0  0.00000000000E+00 -0.00000000000E+00 -0.16197253004E+04  0.16197253004E+04  0.50400000000E-02 0. -1.
    8880023    1    1    2    0    0  0.56535524633E+03  0.86797478430E+03 -0.90102697025E+03  0.15227168444E+04  0.65864270000E+03 0.  0.
    8880022    1    1    2    0    0 -0.56535524633E+03 -0.86797478430E+03  0.26420086241E+03  0.10799076486E+04  0.15294330000E+03 0.  0.
<mgrwt>
<rscale>  0 0.11796923E+04</rscale>
<asrwt>0</asrwt>
<pdfrwt beam="1">  1        1 0.24918851E+00 0.12275247E+04</pdfrwt>
<pdfrwt beam="2">  1       -1 0.15121526E+00 0.12275247E+04</pdfrwt>
<totfact> 0.18058732E+00</totfact>
</mgrwt>
</event>
<event>
 4    1  0.2514307E-008  0.1406354E+04  0.7818608E-02  0.8978762E-01
          1   -1    0    0  501    0  0.00000000000E+00  0.00000000000E+00  0.15264881035E+04  0.15264881035E+04  0.50400000000E-02 0. -1.
         -1   -1    0    0    0  501 -0.00000000000E+00 -0.00000000000E+00 -0.19405198457E+04  0.19405198457E+04  0.50400000000E-02 0.  1.
    8880023    1    1    2    0    0  0.12318036309E+04 -0.16333962564E+03 -0.13143569784E+04  0.19249323342E+04  0.65864270000E+03 0.  0.
    8880022    1    1    2    0    0 -0.12318036309E+04  0.16333962564E+03  0.90032523623E+03  0.15420756150E+04  0.15294330000E+03 0.  0.
<mgrwt>
<rscale>  0 0.13660568E+04</rscale>
<asrwt>0</asrwt>
<pdfrwt beam="1">  1        1 0.23484432E+00 0.14063535E+04</pdfrwt>
<pdfrwt beam="2">  1       -1 0.29854152E+00 0.14063535E+04</pdfrwt>
<totfact> 0.20243615E-01</totfact>
</mgrwt>
</event>
<event>
 4    1  0.2514307E-008  0.8429680E+03  0.7818608E-02  0.9624609E-01
          1   -1    0    0  501    0  0.00000000000E+00  0.00000000000E+00  0.90997376173E+03  0.90997376174E+03  0.50400000000E-02 0. -1.
         -1   -1    0    0    0  501 -0.00000000000E+00 -0.00000000000E+00 -0.54562479899E+03  0.54562479902E+03  0.50400000000E-02 0.  1.
    8880023    1    1    2    0    0  0.65585287266E+02  0.52199942197E+03  0.10516641919E+03  0.84950280072E+03  0.65864270000E+03 0.  1.
    8880022    1    1    2    0    0 -0.65585287266E+02 -0.52199942197E+03  0.25918254354E+03  0.60609576004E+03  0.15294330000E+03 0. -1.
<mgrwt>
<rscale>  0 0.75688587E+03</rscale>
<asrwt>0</asrwt>
<pdfrwt beam="1">  1        1 0.13999596E+00 0.84296799E+03</pdfrwt>
<pdfrwt beam="2">  1       -1 0.83942278E-01 0.84296799E+03</pdfrwt>
<totfact> 0.25550055E+01</totfact>
</mgrwt>
</event>
<event>
 4    1  0.2514307E-008  0.1235033E+04  0.7818608E-02  0.9123797E-01
         -1   -1    0    0    0  501 -0.00000000000E+00  0.00000000000E+00  0.87318956518E+03  0.87318956519E+03  0.50400000000E-02 0.  1.
          1   -1    0    0  501    0  0.00000000000E+00 -0.00000000000E+00 -0.20142240490E+04  0.20142240490E+04  0.50400000000E-02 0. -1.
    8880023    1    1    2    0    0  0.80472252762E+03  0.66627258368E+03  0.12213531452E+03  0.12410579131E+04  0.65864270000E+03 0.  0.
    8880022    1    1    2    0    0 -0.80472252762E+03 -0.66627258368E+03 -0.12631697983E+04  0.16463557011E+04  0.15294330000E+03 0.  0.
<mgrwt>
<rscale>  0 0.11875804E+04</rscale>
<asrwt>0</asrwt>
<pdfrwt beam="1">  1        1 0.30988062E+00 0.12350335E+04</pdfrwt>
<pdfrwt beam="2">  1       -1 0.13433686E+00 0.12350335E+04</pdfrwt>
<totfact> 0.13317567E+00</totfact>
</mgrwt>
</event>
<event>
 4    1  0.2514307E-008  0.7691732E+03  0.7818608E-02  0.9781913E-01
          1   -1    0    0  501    0  0.00000000000E+00  0.00000000000E+00  0.28659702193E+04  0.28659702193E+04  0.50400000000E-02 0. -1.
         -1   -1    0    0    0  501 -0.00000000000E+00 -0.00000000000E+00 -0.55337432115E+03  0.55337432118E+03  0.50400000000E-02 0.  1.
    8880023    1    1    2    0    0 -0.39449917397E+03 -0.46771904830E+02 -0.25987694321E+03  0.81188881087E+03  0.65864270000E+03 0.  1.
    8880022    1    1    2    0    0  0.39449917397E+03  0.46771904830E+02  0.25724728414E+04  0.26074557297E+04  0.15294330000E+03 0.  0.
<mgrwt>
<rscale>  0 0.66342302E+03</rscale>
<asrwt>0</asrwt>
<pdfrwt beam="1">  1        1 0.44091850E+00 0.76917320E+03</pdfrwt>
<pdfrwt beam="2">  1       -1 0.85134511E-01 0.76917320E+03</pdfrwt>
<totfact> 0.10919411E+00</totfact>
</mgrwt>
</event>
<event>
 4    1  0.2514307E-008  0.7995730E+03  0.7818608E-02  0.9711720E-01
         -1   -1    0    0    0  501 -0.00000000000E+00  0.00000000000E+00  0.72054614863E+03  0.72054614865E+03  0.50400000000E-02 0.  1.
          1   -1    0    0  501    0  0.00000000000E+00 -0.00000000000E+00 -0.33418900389E+04  0.33418900389E+04  0.50400000000E-02 0. -1.
    8880023    1    1    2    0    0 -0.48005169800E+02  0.45077962189E+03  0.47454969369E+03  0.92979265532E+03  0.65864270000E+03 0.  1.
    8880022    1    1    2    0    0  0.48005169800E+02 -0.45077962189E+03 -0.30958935840E+04  0.31326435323E+04  0.15294330000E+03 0.  0.
<mgrwt>
<rscale>  0 0.70323250E+03</rscale>
<asrwt>0</asrwt>
<pdfrwt beam="1">  1        1 0.51413692E+00 0.79957299E+03</pdfrwt>
<pdfrwt beam="2">  1       -1 0.11085326E+00 0.79957299E+03</pdfrwt>
<totfact> 0.26871418E-01</totfact>
</mgrwt>
</event>
<event>
 4    1  0.2514307E-008  0.6999447E+03  0.7818608E-02  0.9997431E-01
          1   -1    0    0  501    0  0.00000000000E+00  0.00000000000E+00  0.29793854855E+04  0.29793854855E+04  0.50400000000E-02 0. -1.
         -1   -1    0    0    0  501 -0.00000000000E+00 -0.00000000000E+00 -0.10479781054E+04  0.10479781054E+04  0.50400000000E-02 0.  1.
    8880023    1    1    2    0    0  0.10622933771E+03 -0.21172557011E+03 -0.92337962646E+03  0.11586856908E+04  0.65864270000E+03 0.  1.
    8880022    1    1    2    0    0 -0.10622933771E+03  0.21172557011E+03  0.28547870065E+04  0.28686779002E+04  0.15294330000E+03 0.  0.
<mgrwt>
<rscale>  0 0.55763041E+03</rscale>
<asrwt>0</asrwt>
<pdfrwt beam="1">  1        1 0.45836699E+00 0.69994471E+03</pdfrwt>
<pdfrwt beam="2">  1       -1 0.16122740E+00 0.69994471E+03</pdfrwt>
<totfact> 0.19520773E-01</totfact>
</mgrwt>
</event>
<event>
 4    1  0.2514307E-008  0.1081938E+04  0.7818608E-02  0.9281438E-01
         -1   -1    0    0    0  501 -0.00000000000E+00  0.00000000000E+00  0.12128493488E+04  0.12128493488E+04  0.50400000000E-02 0.  1.
          1   -1    0    0  501    0  0.00000000000E+00 -0.00000000000E+00 -0.18704310008E+04  0.18704310008E+04  0.50400000000E-02 0. -1.
    8880023    1    1    2    0    0 -0.82962798378E+03  0.22021870900E+03  0.82686512844E+03  0.13617250156E+04  0.65864270000E+03 0.  0.
    8880022    1    1    2    0    0  0.82962798378E+03 -0.22021870900E+03 -0.14844467804E+04  0.17215553341E+04  0.15294330000E+03 0.  0.
<mgrwt>
<rscale>  0 0.10250984E+04</rscale>
<asrwt>0</asrwt>
<pdfrwt beam="1">  1        1 0.28775862E+00 0.10819376E+04</pdfrwt>
<pdfrwt beam="2">  1       -1 0.18659221E+00 0.10819376E+04</pdfrwt>
<totfact> 0.67980163E-01</totfact>
</mgrwt>
</event>
<event>
 4    1  0.2514307E-008  0.9857237E+03  0.7818608E-02  0.9400478E-01
         -1   -1    0    0    0  501 -0.00000000000E+00  0.00000000000E+00  0.16549611964E+04  0.16549611964E+04  0.50400000000E-02 0.  1.
          1   -1    0    0  501    0  0.00000000000E+00 -0.00000000000E+00 -0.11339817551E+04  0.11339817551E+04  0.50400000000E-02 0. -1.
    8880023    1    1    2    0    0 -0.19262795870E+03  0.70762669361E+03  0.13500032218E+04  0.16715741004E+04  0.65864270000E+03 0.  0.
    8880022    1    1    2    0    0  0.19262795870E+03 -0.70762669361E+03 -0.82902378043E+03  0.11173688511E+04  0.15294330000E+03 0.  0.
<mgrwt>
<rscale>  0 0.92036328E+03</rscale>
<asrwt>0</asrwt>
<pdfrwt beam="1">  1        1 0.17445873E+00 0.98572373E+03</pdfrwt>
<pdfrwt beam="2">  1       -1 0.25460942E+00 0.98572373E+03</pdfrwt>
<totfact> 0.78666396E-01</totfact>
</mgrwt>
</event>
<event>
 4    1  0.2514307E-008  0.1043526E+04  0.7818608E-02  0.9326704E-01
         -1   -1    0    0    0  501 -0.00000000000E+00  0.00000000000E+00  0.73844080205E+03  0.73844080206E+03  0.50400000000E-02 0.  1.
          1   -1    0    0  501    0  0.00000000000E+00 -0.00000000000E+00 -0.21951783766E+04  0.21951783766E+04  0.50400000000E-02 0. -1.
    8880023    1    1    2    0    0 -0.61966878535E+03 -0.52071867288E+03  0.21909908572E+03  0.10662794922E+04  0.65864270000E+03 0. -1.
    8880022    1    1    2    0    0  0.61966878535E+03  0.52071867288E+03 -0.16758366603E+04  0.18673396865E+04  0.15294330000E+03 0.  0.
<mgrwt>
<rscale>  0 0.98361164E+03</rscale>
<asrwt>0</asrwt>
<pdfrwt beam="1">  1        1 0.33771975E+00 0.10435265E+04</pdfrwt>
<pdfrwt beam="2">  1       -1 0.11360628E+00 0.10435265E+04</pdfrwt>
<totfact> 0.15625642E+00</totfact>
</mgrwt>
</event>
<event>
 4    1  0.2514307E-008  0.7820121E+03  0.7818608E-02  0.9751131E-01
         -1   -1    0    0    0  501 -0.00000000000E+00  0.00000000000E+00  0.63928685593E+03  0.63928685595E+03  0.50400000000E-02 0.  1.
          1   -1    0    0  501    0  0.00000000000E+00 -0.00000000000E+00 -0.16807801457E+04  0.16807801457E+04  0.50400000000E-02 0. -1.
    8880023    1    1    2    0    0 -0.88988617149E+02  0.41208471759E+03  0.35097477132E+03  0.85716176118E+03  0.65864270000E+03 0.  1.
    8880022    1    1    2    0    0  0.88988617149E+02 -0.41208471759E+03 -0.13924680611E+04  0.14629052405E+04  0.15294330000E+03 0.  0.
<mgrwt>
<rscale>  0 0.68052366E+03</rscale>
<asrwt>0</asrwt>
<pdfrwt beam="1">  1        1 0.25858156E+00 0.78201214E+03</pdfrwt>
<pdfrwt beam="2">  1       -1 0.98351825E-01 0.78201214E+03</pdfrwt>
<totfact> 0.50528174E+00</totfact>
</mgrwt>
</event>
<event>
 4    1  0.2514307E-008  0.8503850E+03  0.7818608E-02  0.9610901E-01
          1   -1    0    0  501    0  0.00000000000E+00  0.00000000000E+00  0.14212753818E+04  0.14212753819E+04  0.50400000000E-02 0. -1.
         -1   -1    0    0    0  501 -0.00000000000E+00 -0.00000000000E+00 -0.66448243019E+03  0.66448243021E+03  0.50400000000E-02 0.  1.
    8880023    1    1    2    0    0  0.31692532107E+03  0.43462943460E+03 -0.29039586939E+03  0.89860134197E+03  0.65864270000E+03 0.  1.
    8880022    1    1    2    0    0 -0.31692532107E+03 -0.43462943460E+03  0.10471888210E+04  0.11871564701E+04  0.15294330000E+03 0.  0.
<mgrwt>
<rscale>  0 0.76578866E+03</rscale>
<asrwt>0</asrwt>
<pdfrwt beam="1">  1        1 0.21865775E+00 0.85038498E+03</pdfrwt>
<pdfrwt beam="2">  1       -1 0.10222807E+00 0.85038498E+03</pdfrwt>
<totfact> 0.68862934E+00</totfact>
</mgrwt>
</event>
<event>
 4    1  0.2514307E-008  0.1252203E+04  0.7818608E-02  0.9107976E-01
         -1   -1    0    0    0  501 -0.00000000000E+00  0.00000000000E+00  0.14656925532E+04  0.14656925533E+04  0.50400000000E-02 0.  1.
          1   -1    0    0  501    0  0.00000000000E+00 -0.00000000000E+00 -0.17131073918E+04  0.17131073918E+04  0.50400000000E-02 0. -1.
    8880023    1    1    2    0    0 -0.52407979029E+03  0.92711455241E+03  0.94794657318E+03  0.15705457433E+04  0.65864270000E+03 0.  0.
    8880022    1    1    2    0    0  0.52407979029E+03 -0.92711455241E+03 -0.11953614117E+04  0.16082542018E+04  0.15294330000E+03 0.  0.
<mgrwt>
<rscale>  0 0.12055921E+04</rscale>
<asrwt>0</asrwt>
<pdfrwt beam="1">  1        1 0.26355498E+00 0.12522025E+04</pdfrwt>
<pdfrwt beam="2">  1       -1 0.22549116E+00 0.12522025E+04</pdfrwt>
<totfact> 0.45974797E-01</totfact>
</mgrwt>
</event>
<event>
 4    1  0.2514307E-008  0.7240122E+03  0.7818608E-02  0.9909237E-01
         -1   -1    0    0    0  501 -0.00000000000E+00  0.00000000000E+00  0.66822101885E+03  0.66822101887E+03  0.50400000000E-02 0.  1.
          1   -1    0    0  501    0  0.00000000000E+00 -0.00000000000E+00 -0.13894528975E+04  0.13894528975E+04  0.50400000000E-02 0. -1.
    8880023    1    1    2    0    0  0.25343953431E+03  0.16171531367E+03  0.44082293440E+03  0.84765470918E+03  0.65864270000E+03 0.  1.
    8880022    1    1    2    0    0 -0.25343953431E+03 -0.16171531367E+03 -0.11620548130E+04  0.12100192072E+04  0.15294330000E+03 0.  0.
<mgrwt>
<rscale>  0 0.59815716E+03</rscale>
<asrwt>0</asrwt>
<pdfrwt beam="1">  1        1 0.21376198E+00 0.72401219E+03</pdfrwt>
<pdfrwt beam="2">  1       -1 0.10280323E+00 0.72401219E+03</pdfrwt>
<totfact> 0.72879448E+00</totfact>
</mgrwt>
</event>
<event>
 4    1  0.2514307E-008  0.1481220E+04  0.7818608E-02  0.8923012E-01
         -1   -1    0    0    0  501 -0.00000000000E+00  0.00000000000E+00  0.26430015340E+04  0.26430015340E+04  0.50400000000E-02 0.  1.
          1   -1    0    0  501    0  0.00000000000E+00 -0.00000000000E+00 -0.15837712472E+04  0.15837712472E+04  0.50400000000E-02 0. -1.
    8880023    1    1    2    0    0  0.12876996798E+04 -0.31942330228E+03  0.20745943985E+04  0.25491084394E+04  0.65864270000E+03 0.  1.
    8880022    1    1    2    0    0 -0.12876996798E+04  0.31942330228E+03 -0.10153641117E+04  0.16776643418E+04  0.15294330000E+03 0.  0.
<mgrwt>
<rscale>  0 0.14433664E+04</rscale>
<asrwt>0</asrwt>
<pdfrwt beam="1">  1        1 0.24365712E+00 0.14812197E+04</pdfrwt>
<pdfrwt beam="2">  1       -1 0.40661562E+00 0.14812197E+04</pdfrwt>
<totfact> 0.35005876E-02</totfact>
</mgrwt>
</event>
<event>
 4    1  0.2514307E-008  0.6818853E+03  0.7818608E-02  0.1008277E+00
          1   -1    0    0  501    0  0.00000000000E+00  0.00000000000E+00  0.19133052004E+04  0.19133052004E+04  0.50400000000E-02 0. -1.
         -1   -1    0    0    0  501 -0.00000000000E+00 -0.00000000000E+00 -0.32384987482E+03  0.32384987486E+03  0.50400000000E-02 0.  1.
    8880023    1    1    2    0    0 -0.94726721266E+02 -0.14894358442E+03  0.53980153905E+02  0.68401857163E+03  0.65864270000E+03 0.  1.
    8880022    1    1    2    0    0  0.94726721266E+02  0.14894358442E+03  0.15354751716E+04  0.15531365036E+04  0.15294330000E+03 0.  0.
<mgrwt>
<rscale>  0 0.52165315E+03</rscale>
<asrwt>0</asrwt>
<pdfrwt beam="1">  1        1 0.29435465E+00 0.68188529E+03</pdfrwt>
<pdfrwt beam="2">  1       -1 0.49823058E-01 0.68188529E+03</pdfrwt>
<totfact> 0.14523806E+01</totfact>
</mgrwt>
</event>
<event>
 4    1  0.2514307E-008  0.1173038E+04  0.7818608E-02  0.9183787E-01
          1   -1    0    0  501    0  0.00000000000E+00  0.00000000000E+00  0.19884709340E+04  0.19884709340E+04  0.50400000000E-02 0. -1.
         -1   -1    0    0    0  501 -0.00000000000E+00 -0.00000000000E+00 -0.73516178796E+03  0.73516178798E+03  0.50400000000E-02 0.  1.
    8880023    1    1    2    0    0 -0.91636288484E+03 -0.32013606883E+03  0.55531232824E+02  0.11743517205E+04  0.65864270000E+03 0.  1.
    8880022    1    1    2    0    0  0.91636288484E+03  0.32013606883E+03  0.11977779132E+04  0.15492810016E+04  0.15294330000E+03 0.  0.
<mgrwt>
<rscale>  0 0.11222347E+04</rscale>
<asrwt>0</asrwt>
<pdfrwt beam="1">  1        1 0.30591860E+00 0.11730380E+04</pdfrwt>
<pdfrwt beam="2">  1       -1 0.11310181E+00 0.11730380E+04</pdfrwt>
<totfact> 0.21419598E+00</totfact>
</mgrwt>
</event>
<event>
 4    1  0.2514307E-008  0.1209456E+04  0.7818608E-02  0.9147985E-01
          1   -1    0    0  501    0  0.00000000000E+00  0.00000000000E+00  0.20847400879E+04  0.20847400879E+04  0.50400000000E-02 0. -1.
         -1   -1    0    0    0  501 -0.00000000000E+00 -0.00000000000E+00 -0.81259306505E+03  0.81259306507E+03  0.50400000000E-02 0.  1.
    8880023    1    1    2    0    0  0.13986372711E+03  0.10046947837E+04 -0.65949496933E+02  0.12112526627E+04  0.65864270000E+03 0.  1.
    8880022    1    1    2    0    0 -0.13986372711E+03 -0.10046947837E+04  0.13380965198E+04  0.16860804903E+04  0.15294330000E+03 0. -1.
<mgrwt>
<rscale>  0 0.11606823E+04</rscale>
<asrwt>0</asrwt>
<pdfrwt beam="1">  1        1 0.32072925E+00 0.12094559E+04</pdfrwt>
<pdfrwt beam="2">  1       -1 0.12501432E+00 0.12094559E+04</pdfrwt>
<totfact> 0.14364141E+00</totfact>
</mgrwt>
</event>
<event>
 4    1  0.2514307E-008  0.6793018E+03  0.7818608E-02  0.1009721E+00
         -1   -1    0    0    0  501 -0.00000000000E+00  0.00000000000E+00  0.84993957419E+03  0.84993957420E+03  0.50400000000E-02 0.  1.
          1   -1    0    0  501    0  0.00000000000E+00 -0.00000000000E+00 -0.56375608282E+03  0.56375608285E+03  0.50400000000E-02 0. -1.
    8880023    1    1    2    0    0  0.26807051376E+02  0.16407968244E+03  0.67905699355E+03  0.96050474592E+03  0.65864270000E+03 0.  1.
    8880022    1    1    2    0    0 -0.26807051376E+02 -0.16407968244E+03 -0.39287350218E+03  0.45319091112E+03  0.15294330000E+03 0.  0.
<mgrwt>
<rscale>  0 0.51585524E+03</rscale>
<asrwt>0</asrwt>
<pdfrwt beam="1">  1        1 0.86731705E-01 0.67930182E+03</pdfrwt>
<pdfrwt beam="2">  1       -1 0.13075993E+00 0.67930182E+03</pdfrwt>
<totfact> 0.19369229E+01</totfact>
</mgrwt>
</event>
<event>
 4    1  0.2514307E-008  0.1247051E+04  0.7818608E-02  0.9112689E-01
         -1   -1    0    0    0  501 -0.00000000000E+00  0.00000000000E+00  0.16808526496E+04  0.16808526496E+04  0.50400000000E-02 0.  1.
          1   -1    0    0  501    0  0.00000000000E+00 -0.00000000000E+00 -0.92712946984E+03  0.92712946986E+03  0.50400000000E-02 0. -1.
    8880023    1    1    2    0    0 -0.12642228291E+03  0.10513530486E+04  0.88624573852E+03  0.15298913496E+04  0.65864270000E+03 0.  0.
    8880022    1    1    2    0    0  0.12642228291E+03 -0.10513530486E+04 -0.13252255874E+03  0.10780907698E+04  0.15294330000E+03 0.  0.
<mgrwt>
<rscale>  0 0.12001912E+04</rscale>
<asrwt>0</asrwt>
<pdfrwt beam="1">  1        1 0.14263530E+00 0.12470509E+04</pdfrwt>
<pdfrwt beam="2">  1       -1 0.25859271E+00 0.12470509E+04</pdfrwt>
<totfact> 0.10361638E+00</totfact>
</mgrwt>
</event>
<event>
 4    1  0.2514307E-008  0.9682126E+03  0.7818608E-02  0.9424380E-01
         -1   -1    0    0    0  501 -0.00000000000E+00  0.00000000000E+00  0.66800200517E+03  0.66800200519E+03  0.50400000000E-02 0.  1.
          1   -1    0    0  501    0  0.00000000000E+00 -0.00000000000E+00 -0.12873363042E+04  0.12873363042E+04  0.50400000000E-02 0. -1.
    8880023    1    1    2    0    0  0.70531485069E+03  0.78463278672E+02 -0.74103407245E+03  0.12192486324E+04  0.65864270000E+03 0.  0.
    8880022    1    1    2    0    0 -0.70531485069E+03 -0.78463278672E+02  0.12169977347E+03  0.73608967700E+03  0.15294330000E+03 0.  0.
<mgrwt>
<rscale>  0 0.90096135E+03</rscale>
<asrwt>0</asrwt>
<pdfrwt beam="1">  1        1 0.19805174E+00 0.96821265E+03</pdfrwt>
<pdfrwt beam="2">  1       -1 0.10276954E+00 0.96821265E+03</pdfrwt>
<totfact> 0.83287674E+00</totfact>
</mgrwt>
</event>
<event>
 4    1  0.2514307E-008  0.1210308E+04  0.7818608E-02  0.9147167E-01
         -1   -1    0    0    0  501 -0.00000000000E+00  0.00000000000E+00  0.92610558987E+03  0.92610558989E+03  0.50400000000E-02 0.  1.
          1   -1    0    0  501    0  0.00000000000E+00 -0.00000000000E+00 -0.33709172380E+04  0.33709172380E+04  0.50400000000E-02 0. -1.
    8880023    1    1    2    0    0  0.76955287914E+03  0.66243685535E+03  0.39829754355E+03  0.12741606494E+04  0.65864270000E+03 0.  0.
    8880022    1    1    2    0    0 -0.76955287914E+03 -0.66243685535E+03 -0.28431091917E+04  0.30228621785E+04  0.15294330000E+03 0.  0.
<mgrwt>
<rscale>  0 0.11615792E+04</rscale>
<asrwt>0</asrwt>
<pdfrwt beam="1">  1        1 0.51860265E+00 0.12103076E+04</pdfrwt>
<pdfrwt beam="2">  1       -1 0.14247778E+00 0.12103076E+04</pdfrwt>
<totfact> 0.12577065E-01</totfact>
</mgrwt>
</event>
<event>
 4    1  0.2514307E-008  0.7394195E+03  0.7818608E-02  0.9861641E-01
          1   -1    0    0  501    0  0.00000000000E+00  0.00000000000E+00  0.88871081390E+03  0.88871081391E+03  0.50400000000E-02 0. -1.
         -1   -1    0    0    0  501 -0.00000000000E+00 -0.00000000000E+00 -0.12064868597E+04  0.12064868597E+04  0.50400000000E-02 0.  1.
    8880023    1    1    2    0    0  0.32533657252E+03  0.84184845527E+02 -0.10446900367E+04  0.12798900158E+04  0.65864270000E+03 0.  0.
    8880022    1    1    2    0    0 -0.32533657252E+03 -0.84184845527E+02  0.72691399089E+03  0.81530765776E+03  0.15294330000E+03 0. -1.
<mgrwt>
<rscale>  0 0.62156874E+03</rscale>
<asrwt>0</asrwt>
<pdfrwt beam="1">  1        1 0.13672474E+00 0.73941949E+03</pdfrwt>
<pdfrwt beam="2">  1       -1 0.18561336E+00 0.73941949E+03</pdfrwt>
<totfact> 0.36698790E+00</totfact>
</mgrwt>
</event>
<event>
 4    1  0.2514307E-008  0.6706549E+03  0.7818608E-02  0.1015198E+00
          1   -1    0    0  501    0  0.00000000000E+00  0.00000000000E+00  0.51490100631E+03  0.51490100634E+03  0.50400000000E-02 0. -1.
         -1   -1    0    0    0  501 -0.00000000000E+00 -0.00000000000E+00 -0.57841259577E+03  0.57841259579E+03  0.50400000000E-02 0.  1.
    8880023    1    1    2    0    0 -0.11017245999E+03 -0.61885616950E+02 -0.34086571939E+03  0.75230807881E+03  0.65864270000E+03 0.  0.
    8880022    1    1    2    0    0  0.11017245999E+03  0.61885616950E+02  0.27735412993E+03  0.34100552331E+03  0.15294330000E+03 0. -1.
<mgrwt>
<rscale>  0 0.49460154E+03</rscale>
<asrwt>0</asrwt>
<pdfrwt beam="1">  1        1 0.79215540E-01 0.67065491E+03</pdfrwt>
<pdfrwt beam="2">  1       -1 0.88986553E-01 0.67065491E+03</pdfrwt>
<totfact> 0.54184231E+01</totfact>
</mgrwt>
</event>
<event>
 4    1  0.2514307E-008  0.6743931E+03  0.7818608E-02  0.1012692E+00
          1   -1    0    0  501    0  0.00000000000E+00  0.00000000000E+00  0.25532300231E+04  0.25532300231E+04  0.50400000000E-02 0. -1.
         -1   -1    0    0    0  501 -0.00000000000E+00 -0.00000000000E+00 -0.20792279314E+03  0.20792279320E+03  0.50400000000E-02 0.  1.
    8880023    1    1    2    0    0  0.12223744620E+03 -0.77806301296E+02  0.35955442281E+03  0.76425480241E+03  0.65864270000E+03 0.  1.
    8880022    1    1    2    0    0 -0.12223744620E+03  0.77806301296E+02  0.19857528071E+04  0.19968980139E+04  0.15294330000E+03 0.  0.
<mgrwt>
<rscale>  0 0.50418785E+03</rscale>
<asrwt>0</asrwt>
<pdfrwt beam="1">  1        1 0.39280463E+00 0.67439308E+03</pdfrwt>
<pdfrwt beam="2">  1       -1 0.31988121E-01 0.67439308E+03</pdfrwt>
<totfact> 0.12086038E+01</totfact>
</mgrwt>
</event>
<event>
 4    1  0.2514307E-008  0.1010939E+04  0.7818608E-02  0.9367385E-01
          1   -1    0    0  501    0  0.00000000000E+00  0.00000000000E+00  0.11967733716E+04  0.11967733716E+04  0.50400000000E-02 0. -1.
         -1   -1    0    0    0  501 -0.00000000000E+00 -0.00000000000E+00 -0.11056930801E+04  0.11056930801E+04  0.50400000000E-02 0.  1.
    8880023    1    1    2    0    0  0.60488421603E+03 -0.47148875244E+03 -0.66872998607E+03  0.12121041865E+04  0.65864270000E+03 0.  1.
    8880022    1    1    2    0    0 -0.60488421603E+03  0.47148875244E+03  0.75981027754E+03  0.10903622652E+04  0.15294330000E+03 0.  0.
<mgrwt>
<rscale>  0 0.94809110E+03</rscale>
<asrwt>0</asrwt>
<pdfrwt beam="1">  1        1 0.18411898E+00 0.10109386E+04</pdfrwt>
<pdfrwt beam="2">  1       -1 0.17010663E+00 0.10109386E+04</pdfrwt>
<totfact> 0.26452744E+00</totfact>
</mgrwt>
</event>
<event>
 4    1  0.2514307E-008  0.1046572E+04  0.7818608E-02  0.9323014E-01
         -1   -1    0    0    0  501 -0.00000000000E+00  0.00000000000E+00  0.47221087818E+03  0.47221087820E+03  0.50400000000E-02 0.  1.
          1   -1    0    0  501    0  0.00000000000E+00 -0.00000000000E+00 -0.32878383936E+04  0.32878383936E+04  0.50400000000E-02 0. -1.
    8880023    1    1    2    0    0 -0.71548504691E+03  0.38676074681E+03 -0.26653192343E+03  0.10799778702E+04  0.65864270000E+03 0.  0.
    8880022    1    1    2    0    0  0.71548504691E+03 -0.38676074681E+03 -0.25490955920E+04  0.26800714016E+04  0.15294330000E+03 0.  0.
<mgrwt>
<rscale>  0 0.98691507E+03</rscale>
<asrwt>0</asrwt>
<pdfrwt beam="1">  1        1 0.50582128E+00 0.10465720E+04</pdfrwt>
<pdfrwt beam="2">  1       -1 0.72647829E-01 0.10465720E+04</pdfrwt>
<totfact> 0.71558371E-01</totfact>
</mgrwt>
</event>
<event>
 4    1  0.2514307E-008  0.1042889E+04  0.7818608E-02  0.9327479E-01
         -1   -1    0    0    0  501 -0.00000000000E+00  0.00000000000E+00  0.19949509105E+04  0.19949509105E+04  0.50400000000E-02 0.  1.
          1   -1    0    0  501    0  0.00000000000E+00 -0.00000000000E+00 -0.13796275508E+04  0.13796275508E+04  0.50400000000E-02 0. -1.
    8880023    1    1    2    0    0  0.30315551606E+03 -0.74960235631E+03  0.17113044360E+04  0.20040409273E+04  0.65864270000E+03 0.  0.
    8880022    1    1    2    0    0 -0.30315551606E+03  0.74960235631E+03 -0.10959810762E+04  0.13705375340E+04  0.15294330000E+03 0.  0.
<mgrwt>
<rscale>  0 0.98291967E+03</rscale>
<asrwt>0</asrwt>
<pdfrwt beam="1">  1        1 0.21225039E+00 0.10428889E+04</pdfrwt>
<pdfrwt beam="2">  1       -1 0.30691552E+00 0.10428889E+04</pdfrwt>
<totfact> 0.23868822E-01</totfact>
</mgrwt>
</event>
<event>
 4    1  0.2514307E-008  0.7092999E+03  0.7818608E-02  0.9960610E-01
          1   -1    0    0  501    0  0.00000000000E+00  0.00000000000E+00  0.10876747088E+04  0.10876747088E+04  0.50400000000E-02 0. -1.
         -1   -1    0    0    0  501 -0.00000000000E+00 -0.00000000000E+00 -0.45509426171E+03  0.45509426174E+03  0.50400000000E-02 0.  1.
    8880023    1    1    2    0    0 -0.20472066146E+03 -0.16548598224E+03 -0.13049331913E+03  0.72120376604E+03  0.65864270000E+03 0.  1.
    8880022    1    1    2    0    0  0.20472066146E+03  0.16548598224E+03  0.76307376622E+03  0.82156520451E+03  0.15294330000E+03 0.  0.
<mgrwt>
<rscale>  0 0.57411680E+03</rscale>
<asrwt>0</asrwt>
<pdfrwt beam="1">  1        1 0.16733457E+00 0.70929991E+03</pdfrwt>
<pdfrwt beam="2">  1       -1 0.70014502E-01 0.70929991E+03</pdfrwt>
<totfact> 0.27603183E+01</totfact>
</mgrwt>
</event>
<event>
 4    1  0.2514307E-008  0.9011731E+03  0.7818608E-02  0.9524151E-01
          1   -1    0    0  501    0  0.00000000000E+00  0.00000000000E+00  0.26563419103E+04  0.26563419103E+04  0.50400000000E-02 0. -1.
         -1   -1    0    0    0  501 -0.00000000000E+00 -0.00000000000E+00 -0.70381809913E+03  0.70381809914E+03  0.50400000000E-02 0.  1.
    8880023    1    1    2    0    0 -0.21669264621E+03 -0.57562748418E+03 -0.35395010781E+03  0.96819088435E+03  0.65864270000E+03 0.  1.
    8880022    1    1    2    0    0  0.21669264621E+03  0.57562748418E+03  0.23064739190E+04  0.23919691251E+04  0.15294330000E+03 0.  0.
<mgrwt>
<rscale>  0 0.82526442E+03</rscale>
<asrwt>0</asrwt>
<pdfrwt beam="1">  1        1 0.40866799E+00 0.90117307E+03</pdfrwt>
<pdfrwt beam="2">  1       -1 0.10827971E+00 0.90117307E+03</pdfrwt>
<totfact> 0.86702447E-01</totfact>
</mgrwt>
</event>
<event>
 4    1  0.2514307E-008  0.1082512E+04  0.7818608E-02  0.9280781E-01
         -1   -1    0    0    0  501 -0.00000000000E+00  0.00000000000E+00  0.12793338693E+04  0.12793338693E+04  0.50400000000E-02 0.  1.
          1   -1    0    0  501    0  0.00000000000E+00 -0.00000000000E+00 -0.12075490451E+04  0.12075490452E+04  0.50400000000E-02 0. -1.
    8880023    1    1    2    0    0 -0.85383892296E+03  0.94767183496E+02 -0.72692846490E+03  0.13039390035E+04  0.65864270000E+03 0.  0.
    8880022    1    1    2    0    0  0.85383892296E+03 -0.94767183496E+02  0.79871328908E+03  0.11829439110E+04  0.15294330000E+03 0.  0.
<mgrwt>
<rscale>  0 0.10257158E+04</rscale>
<asrwt>0</asrwt>
<pdfrwt beam="1">  1        1 0.18577678E+00 0.10825119E+04</pdfrwt>
<pdfrwt beam="2">  1       -1 0.19682059E+00 0.10825119E+04</pdfrwt>
<totfact> 0.16605441E+00</totfact>
</mgrwt>
</event>
<event>
 4    1  0.2514307E-008  0.6827515E+03  0.7818608E-02  0.1007808E+00
          1   -1    0    0  501    0  0.00000000000E+00  0.00000000000E+00  0.24798497599E+03  0.24798497604E+03  0.50400000000E-02 0. -1.
         -1   -1    0    0    0  501 -0.00000000000E+00 -0.00000000000E+00 -0.96986614841E+03  0.96986614842E+03  0.50400000000E-02 0.  1.
    8880023    1    1    2    0    0  0.13550940549E+03 -0.11822272362E+03 -0.32521432647E+03  0.75624994265E+03  0.65864270000E+03 0.  0.
    8880022    1    1    2    0    0 -0.13550940549E+03  0.11822272362E+03 -0.39666684595E+03  0.46160118181E+03  0.15294330000E+03 0.  0.
<mgrwt>
<rscale>  0 0.52355121E+03</rscale>
<asrwt>0</asrwt>
<pdfrwt beam="1">  1        1 0.38151535E-01 0.68275151E+03</pdfrwt>
<pdfrwt beam="2">  1       -1 0.14921017E+00 0.68275151E+03</pdfrwt>
<totfact> 0.40837744E+01</totfact>
</mgrwt>
</event>
<event>
 4    1  0.2514307E-008  0.6758559E+03  0.7818608E-02  0.1011772E+00
          1   -1    0    0  501    0  0.00000000000E+00  0.00000000000E+00  0.10411579315E+04  0.10411579315E+04  0.50400000000E-02 0. -1.
         -1   -1    0    0    0  501 -0.00000000000E+00 -0.00000000000E+00 -0.24536815991E+03  0.24536815996E+03  0.50400000000E-02 0.  1.
    8880023    1    1    2    0    0 -0.12773894860E+03  0.81570913084E+02  0.28741232221E+03  0.73442978022E+03  0.65864270000E+03 0.  1.
    8880022    1    1    2    0    0  0.12773894860E+03 -0.81570913084E+02  0.50837744937E+03  0.55209631125E+03  0.15294330000E+03 0.  0.
<mgrwt>
<rscale>  0 0.50776376E+03</rscale>
<asrwt>0</asrwt>
<pdfrwt beam="1">  1        1 0.16017814E+00 0.67585595E+03</pdfrwt>
<pdfrwt beam="2">  1       -1 0.37748948E-01 0.67585595E+03</pdfrwt>
<totfact> 0.97652022E+01</totfact>
</mgrwt>
</event>
<event>
 4    1  0.2514307E-008  0.1344589E+04  0.7818608E-02  0.9027980E-01
         -1   -1    0    0    0  501 -0.00000000000E+00  0.00000000000E+00  0.24762747495E+04  0.24762747496E+04  0.50400000000E-02 0.  1.
          1   -1    0    0  501    0  0.00000000000E+00 -0.00000000000E+00 -0.93577493448E+03  0.93577493449E+03  0.50400000000E-02 0. -1.
    8880023    1    1    2    0    0  0.10162520112E+04  0.58424388640E+03  0.17547099992E+04  0.22106393773E+04  0.65864270000E+03 0.  0.
    8880022    1    1    2    0    0 -0.10162520112E+04 -0.58424388640E+03 -0.21421018412E+03  0.12014103067E+04  0.15294330000E+03 0.  0.
<mgrwt>
<rscale>  0 0.13020005E+04</rscale>
<asrwt>0</asrwt>
<pdfrwt beam="1">  1        1 0.14396538E+00 0.13445889E+04</pdfrwt>
<pdfrwt beam="2">  1       -1 0.38096534E+00 0.13445889E+04</pdfrwt>
<totfact> 0.15944249E-01</totfact>
</mgrwt>
</event>
<event>
 4    1  0.2514307E-008  0.8280823E+03  0.7818608E-02  0.9653075E-01
         -1   -1    0    0    0  501 -0.00000000000E+00  0.00000000000E+00  0.74733924919E+03  0.74733924920E+03  0.50400000000E-02 0.  1.
          1   -1    0    0  501    0  0.00000000000E+00 -0.00000000000E+00 -0.98856697358E+03  0.98856697360E+03  0.50400000000E-02 0. -1.
    8880023    1    1    2    0    0  0.19280102774E+03  0.46339816107E+03  0.38979757430E+03  0.91523901096E+03  0.65864270000E+03 0.  0.
    8880022    1    1    2    0    0 -0.19280102774E+03 -0.46339816107E+03 -0.63102529870E+03  0.82066721184E+03  0.15294330000E+03 0.  0.
<mgrwt>
<rscale>  0 0.73880742E+03</rscale>
<asrwt>0</asrwt>
<pdfrwt beam="1">  1        1 0.15208723E+00 0.82808230E+03</pdfrwt>
<pdfrwt beam="2">  1       -1 0.11497527E+00 0.82808230E+03</pdfrwt>
<totfact> 0.10838787E+01</totfact>
</mgrwt>
</event>
<event>
 4    1  0.2514307E-008  0.1000590E+04  0.7818608E-02  0.9380786E-01
         -1   -1    0    0    0  501 -0.00000000000E+00  0.00000000000E+00  0.36869586258E+03  0.36869586261E+03  0.50400000000E-02 0.  1.
          1   -1    0    0  501    0  0.00000000000E+00 -0.00000000000E+00 -0.21598707972E+04  0.21598707972E+04  0.50400000000E-02 0. -1.
    8880023    1    1    2    0    0 -0.16515503328E+03 -0.73491105715E+03 -0.84585481712E+03  0.13102102979E+04  0.65864270000E+03 0.  0.
    8880022    1    1    2    0    0  0.16515503328E+03  0.73491105715E+03 -0.94532011751E+03  0.12183563619E+04  0.15294330000E+03 0.  0.
<mgrwt>
<rscale>  0 0.93673931E+03</rscale>
<asrwt>0</asrwt>
<pdfrwt beam="1">  1        1 0.33228781E+00 0.10005902E+04</pdfrwt>
<pdfrwt beam="2">  1       -1 0.56722442E-01 0.10005902E+04</pdfrwt>
<totfact> 0.73970876E+00</totfact>
</mgrwt>
</event>
<event>
 4    1  0.2514307E-008  0.6896077E+03  0.7818608E-02  0.1004340E+00
         -1   -1    0    0    0  501 -0.00000000000E+00  0.00000000000E+00  0.12442527642E+04  0.12442527642E+04  0.50400000000E-02 0.  1.
          1   -1    0    0  501    0  0.00000000000E+00 -0.00000000000E+00 -0.65577392352E+03  0.65577392354E+03  0.50400000000E-02 0. -1.
    8880023    1    1    2    0    0  0.20417362992E+03  0.78535559004E+01  0.11172178754E+04  0.13129107116E+04  0.65864270000E+03 0.  1.
    8880022    1    1    2    0    0 -0.20417362992E+03 -0.78535559004E+01 -0.52873903471E+03  0.58711597606E+03  0.15294330000E+03 0.  0.
<mgrwt>
<rscale>  0 0.53787667E+03</rscale>
<asrwt>0</asrwt>
<pdfrwt beam="1">  1        1 0.10088830E+00 0.68960768E+03</pdfrwt>
<pdfrwt beam="2">  1       -1 0.19142350E+00 0.68960768E+03</pdfrwt>
<totfact> 0.54237660E+00</totfact>
</mgrwt>
</event>
<event>
 4    1  0.2514307E-008  0.7555087E+03  0.7818608E-02  0.9816877E-01
          1   -1    0    0  501    0  0.00000000000E+00  0.00000000000E+00  0.96200552349E+03  0.96200552351E+03  0.50400000000E-02 0. -1.
         -1   -1    0    0    0  501 -0.00000000000E+00 -0.00000000000E+00 -0.47730448595E+03  0.47730448597E+03  0.50400000000E-02 0.  1.
    8880023    1    1    2    0    0 -0.26572313270E+03 -0.25763242534E+03 -0.66008896668E+02  0.75838686074E+03  0.65864270000E+03 0.  1.
    8880022    1    1    2    0    0  0.26572313270E+03  0.25763242534E+03  0.55070993422E+03  0.68092314874E+03  0.15294330000E+03 0.  0.
<mgrwt>
<rscale>  0 0.64464656E+03</rscale>
<asrwt>0</asrwt>
<pdfrwt beam="1">  1        1 0.14800085E+00 0.75550874E+03</pdfrwt>
<pdfrwt beam="2">  1       -1 0.73431460E-01 0.75550874E+03</pdfrwt>
<totfact> 0.31081506E+01</totfact>
</mgrwt>
</event>
<event>
 4    1  0.2514307E-008  0.8437731E+03  0.7818608E-02  0.9623106E-01
         -1   -1    0    0    0  501 -0.00000000000E+00  0.00000000000E+00  0.27797327081E+03  0.27797327085E+03  0.50400000000E-02 0.  1.
          1   -1    0    0  501    0  0.00000000000E+00 -0.00000000000E+00 -0.18854332566E+04  0.18854332566E+04  0.50400000000E-02 0. -1.
    8880023    1    1    2    0    0 -0.14929103301E+03 -0.50582106339E+03 -0.67195092274E+03  0.10786431335E+04  0.65864270000E+03 0.  1.
    8880022    1    1    2    0    0  0.14929103301E+03  0.50582106339E+03 -0.93550906304E+03  0.10847633939E+04  0.15294330000E+03 0. -1.
<mgrwt>
<rscale>  0 0.75785540E+03</rscale>
<asrwt>0</asrwt>
<pdfrwt beam="1">  1        1 0.29006665E+00 0.84377305E+03</pdfrwt>
<pdfrwt beam="2">  1       -1 0.42765120E-01 0.84377305E+03</pdfrwt>
<totfact> 0.19707165E+01</totfact>
</mgrwt>
</event>
<event>
 4    1  0.2514307E-008  0.7803803E+03  0.7818608E-02  0.9754944E-01
          1   -1    0    0  501    0  0.00000000000E+00  0.00000000000E+00  0.65196236828E+03  0.65196236830E+03  0.50400000000E-02 0. -1.
         -1   -1    0    0    0  501 -0.00000000000E+00 -0.00000000000E+00 -0.16779655615E+04  0.16779655615E+04  0.50400000000E-02 0.  1.
    8880023    1    1    2    0    0 -0.96143970681E+02  0.40735675205E+03 -0.14928671541E+04  0.16845313094E+04  0.65864270000E+03 0.  1.
    8880022    1    1    2    0    0  0.96143970681E+02 -0.40735675205E+03  0.46686396088E+03  0.64539662032E+03  0.15294330000E+03 0.  0.
<mgrwt>
<rscale>  0 0.67837564E+03</rscale>
<asrwt>0</asrwt>
<pdfrwt beam="1">  1        1 0.10030190E+00 0.78038029E+03</pdfrwt>
<pdfrwt beam="2">  1       -1 0.25814855E+00 0.78038029E+03</pdfrwt>
<totfact> 0.19483259E+00</totfact>
</mgrwt>
</event>
<event>
 4    1  0.2514307E-008  0.7997806E+03  0.7818608E-02  0.9711271E-01
         -1   -1    0    0    0  501 -0.00000000000E+00  0.00000000000E+00  0.67954847598E+03  0.67954847600E+03  0.50400000000E-02 0.  1.
          1   -1    0    0  501    0  0.00000000000E+00 -0.00000000000E+00 -0.24083970682E+04  0.24083970682E+04  0.50400000000E-02 0. -1.
    8880023    1    1    2    0    0  0.38117134729E+03  0.24606332119E+03  0.40819458530E+03  0.89792637770E+03  0.65864270000E+03 0.  1.
    8880022    1    1    2    0    0 -0.38117134729E+03 -0.24606332119E+03 -0.21370431775E+04  0.21900191665E+04  0.15294330000E+03 0.  0.
<mgrwt>
<rscale>  0 0.70349686E+03</rscale>
<asrwt>0</asrwt>
<pdfrwt beam="1">  1        1 0.37052262E+00 0.79978057E+03</pdfrwt>
<pdfrwt beam="2">  1       -1 0.10454592E+00 0.79978057E+03</pdfrwt>
<totfact> 0.14199365E+00</totfact>
</mgrwt>
</event>
<event>
 4    1  0.2514307E-008  0.9297996E+03  0.7818608E-02  0.9479794E-01
         -1   -1    0    0    0  501 -0.00000000000E+00  0.00000000000E+00  0.65319282599E+03  0.65319282601E+03  0.50400000000E-02 0.  1.
          1   -1    0    0  501    0  0.00000000000E+00 -0.00000000000E+00 -0.11274125340E+04  0.11274125340E+04  0.50400000000E-02 0. -1.
    8880023    1    1    2    0    0  0.50692268910E+03 -0.41682906829E+03  0.43498658328E+02  0.93081653640E+03  0.65864270000E+03 0.  0.
    8880022    1    1    2    0    0 -0.50692268910E+03  0.41682906829E+03 -0.51771836634E+03  0.84978882363E+03  0.15294330000E+03 0.  0.
<mgrwt>
<rscale>  0 0.85790065E+03</rscale>
<asrwt>0</asrwt>
<pdfrwt beam="1">  1        1 0.17344808E+00 0.92979960E+03</pdfrwt>
<pdfrwt beam="2">  1       -1 0.10049120E+00 0.92979960E+03</pdfrwt>
<totfact> 0.11516800E+01</totfact>
</mgrwt>
</event>
<event>
 4    1  0.2514307E-008  0.2719233E+04  0.7818608E-02  0.8335040E-01
         -1   -1    0    0    0  501 -0.00000000000E+00  0.00000000000E+00  0.37181676268E+04  0.37181676268E+04  0.50400000000E-02 0.  1.
          1   -1    0    0  501    0  0.00000000000E+00 -0.00000000000E+00 -0.24296433995E+04  0.24296433995E+04  0.50400000000E-02 0. -1.
    8880023    1    1    2    0    0  0.25005114382E+04  0.84134557390E+03  0.20411053412E+04  0.34000501536E+04  0.65864270000E+03 0.  0.
    8880022    1    1    2    0    0 -0.25005114382E+04 -0.84134557390E+03 -0.75258111384E+03  0.27477608726E+04  0.15294330000E+03 0.  0.
<mgrwt>
<rscale>  0 0.26998922E+04</rscale>
<asrwt>0</asrwt>
<pdfrwt beam="1">  1        1 0.37379130E+00 0.27192334E+04</pdfrwt>
<pdfrwt beam="2">  1       -1 0.57202578E+00 0.27192334E+04</pdfrwt>
<totfact> 0.70921357E-04</totfact>
</mgrwt>
</event>
<event>
 4    1  0.2514307E-008  0.1133927E+04  0.7818608E-02  0.9224191E-01
         -1   -1    0    0    0  501 -0.00000000000E+00  0.00000000000E+00  0.10370671979E+04  0.10370671979E+04  0.50400000000E-02 0.  1.
          1   -1    0    0  501    0  0.00000000000E+00 -0.00000000000E+00 -0.11737473312E+04  0.11737473312E+04  0.50400000000E-02 0. -1.
    8880023    1    1    2    0    0 -0.82063849622E+03  0.42252995236E+03  0.30784331307E+03  0.11749709842E+04  0.65864270000E+03 0.  0.
    8880022    1    1    2    0    0  0.82063849622E+03 -0.42252995236E+03 -0.44452344641E+03  0.10358435449E+04  0.15294330000E+03 0.  0.
<mgrwt>
<rscale>  0 0.10807187E+04</rscale>
<asrwt>0</asrwt>
<pdfrwt beam="1">  1        1 0.18057651E+00 0.11339265E+04</pdfrwt>
<pdfrwt beam="2">  1       -1 0.15954880E+00 0.11339265E+04</pdfrwt>
<totfact> 0.32507093E+00</totfact>
</mgrwt>
</event>
<event>
 4    1  0.2514307E-008  0.1191875E+04  0.7818608E-02  0.9165061E-01
         -1   -1    0    0    0  501 -0.00000000000E+00  0.00000000000E+00  0.74116879350E+03  0.74116879352E+03  0.50400000000E-02 0.  1.
          1   -1    0    0  501    0  0.00000000000E+00 -0.00000000000E+00 -0.23980617123E+04  0.23980617123E+04  0.50400000000E-02 0. -1.
    8880023    1    1    2    0    0 -0.15160649448E+03 -0.98171895854E+03  0.10993869621E+02  0.11919260523E+04  0.65864270000E+03 0.  0.
    8880022    1    1    2    0    0  0.15160649448E+03  0.98171895854E+03 -0.16678867884E+04  0.19473044535E+04  0.15294330000E+03 0.  0.
<mgrwt>
<rscale>  0 0.11421451E+04</rscale>
<asrwt>0</asrwt>
<pdfrwt beam="1">  1        1 0.36893257E+00 0.11918753E+04</pdfrwt>
<pdfrwt beam="2">  1       -1 0.11402597E+00 0.11918753E+04</pdfrwt>
<totfact> 0.11043003E+00</totfact>
</mgrwt>
</event>
<event>
 4    1  0.2514307E-008  0.7971790E+03  0.7818608E-02  0.9716929E-01
         -1   -1    0    0    0  501 -0.00000000000E+00  0.00000000000E+00  0.39369529300E+03  0.39369529303E+03  0.50400000000E-02 0.  1.
          1   -1    0    0  501    0  0.00000000000E+00 -0.00000000000E+00 -0.14275839183E+04  0.14275839183E+04  0.50400000000E-02 0. -1.
    8880023    1    1    2    0    0 -0.53803615364E+02  0.44585804414E+03 -0.14011881801E+03  0.80939960092E+03  0.65864270000E+03 0.  1.
    8880022    1    1    2    0    0  0.53803615364E+02 -0.44585804414E+03 -0.89376980729E+03  0.10118796104E+04  0.15294330000E+03 0.  0.
<mgrwt>
<rscale>  0 0.70017730E+03</rscale>
<asrwt>0</asrwt>
<pdfrwt beam="1">  1        1 0.21962829E+00 0.79717905E+03</pdfrwt>
<pdfrwt beam="2">  1       -1 0.60568507E-01 0.79717905E+03</pdfrwt>
<totfact> 0.20867529E+01</totfact>
</mgrwt>
</event>
<event>
 4    1  0.2514307E-008  0.9476262E+03  0.7818608E-02  0.9453538E-01
         -1   -1    0    0    0  501 -0.00000000000E+00  0.00000000000E+00  0.43649408718E+03  0.43649408721E+03  0.50400000000E-02 0.  1.
          1   -1    0    0  501    0  0.00000000000E+00 -0.00000000000E+00 -0.19706141913E+04  0.19706141913E+04  0.50400000000E-02 0. -1.
    8880023    1    1    2    0    0  0.16508410249E+03 -0.66100864214E+03 -0.30857967886E+03  0.99660263413E+03  0.65864270000E+03 0.  0.
    8880022    1    1    2    0    0 -0.16508410249E+03  0.66100864214E+03 -0.12255404252E+04  0.14105056444E+04  0.15294330000E+03 0.  0.
<mgrwt>
<rscale>  0 0.87797707E+03</rscale>
<asrwt>0</asrwt>
<pdfrwt beam="1">  1        1 0.30317141E+00 0.94762619E+03</pdfrwt>
<pdfrwt beam="2">  1       -1 0.67152937E-01 0.94762619E+03</pdfrwt>
<totfact> 0.71322264E+00</totfact>
</mgrwt>
</event>
<event>
 4    1  0.2514307E-008  0.9739194E+03  0.7818608E-02  0.9416504E-01
          1   -1    0    0  501    0  0.00000000000E+00  0.00000000000E+00  0.77557317953E+03  0.77557317955E+03  0.50400000000E-02 0. -1.
         -1   -1    0    0    0  501 -0.00000000000E+00 -0.00000000000E+00 -0.10896713567E+04  0.10896713567E+04  0.50400000000E-02 0.  1.
    8880023    1    1    2    0    0  0.66466588759E+03 -0.27005209048E+03 -0.51904760091E+03  0.11035984288E+04  0.65864270000E+03 0.  1.
    8880022    1    1    2    0    0 -0.66466588759E+03  0.27005209048E+03  0.20494942377E+03  0.76164610747E+03  0.15294330000E+03 0.  0.
<mgrwt>
<rscale>  0 0.90729852E+03</rscale>
<asrwt>0</asrwt>
<pdfrwt beam="1">  1        1 0.11931895E+00 0.97391944E+03</pdfrwt>
<pdfrwt beam="2">  1       -1 0.16764175E+00 0.97391944E+03</pdfrwt>
<totfact> 0.59836509E+00</totfact>
</mgrwt>
</event>
<event>
 4    1  0.2514307E-008  0.7911260E+03  0.7818608E-02  0.9730323E-01
         -1   -1    0    0    0  501 -0.00000000000E+00  0.00000000000E+00  0.12739854663E+04  0.12739854663E+04  0.50400000000E-02 0.  1.
          1   -1    0    0  501    0  0.00000000000E+00 -0.00000000000E+00 -0.40617132904E+03  0.40617132907E+03  0.50400000000E-02 0. -1.
    8880023    1    1    2    0    0  0.13033287687E+03 -0.41842969077E+03  0.91963008552E+03  0.12130951180E+04  0.65864270000E+03 0.  0.
    8880022    1    1    2    0    0 -0.13033287687E+03  0.41842969077E+03 -0.51815948307E+02  0.46706167732E+03  0.15294330000E+03 0.  0.
<mgrwt>
<rscale>  0 0.69239750E+03</rscale>
<asrwt>0</asrwt>
<pdfrwt beam="1">  1        1 0.62487897E-01 0.79112595E+03</pdfrwt>
<pdfrwt beam="2">  1       -1 0.19599776E+00 0.79112595E+03</pdfrwt>
<totfact> 0.96791915E+00</totfact>
</mgrwt>
</event>
<event>
 4    1  0.2514307E-008  0.7835522E+03  0.7818608E-02  0.9747558E-01
         -1   -1    0    0    0  501 -0.00000000000E+00  0.00000000000E+00  0.69660757526E+03  0.69660757528E+03  0.50400000000E-02 0.  1.
          1   -1    0    0  501    0  0.00000000000E+00 -0.00000000000E+00 -0.17219144154E+04  0.17219144154E+04  0.50400000000E-02 0. -1.
    8880023    1    1    2    0    0 -0.33862620960E+03  0.25588306284E+03  0.43076844048E+03  0.89415631030E+03  0.65864270000E+03 0.  1.
    8880022    1    1    2    0    0  0.33862620960E+03 -0.25588306284E+03 -0.14560752807E+04  0.15243656804E+04  0.15294330000E+03 0.  0.
<mgrwt>
<rscale>  0 0.68254451E+03</rscale>
<asrwt>0</asrwt>
<pdfrwt beam="1">  1        1 0.26490991E+00 0.78355220E+03</pdfrwt>
<pdfrwt beam="2">  1       -1 0.10717040E+00 0.78355220E+03</pdfrwt>
<totfact> 0.38882324E+00</totfact>
</mgrwt>
</event>
<event>
 4    1  0.2514307E-008  0.8133983E+03  0.7818608E-02  0.9682541E-01
         -1   -1    0    0    0  501 -0.00000000000E+00  0.00000000000E+00  0.30470867616E+03  0.30470867620E+03  0.50400000000E-02 0.  1.
          1   -1    0    0  501    0  0.00000000000E+00 -0.00000000000E+00 -0.15475882962E+04  0.15475882962E+04  0.50400000000E-02 0. -1.
    8880023    1    1    2    0    0 -0.14952862566E+03 -0.45326341639E+03 -0.49554875455E+03  0.95246275987E+03  0.65864270000E+03 0.  1.
    8880022    1    1    2    0    0  0.14952862566E+03  0.45326341639E+03 -0.74733086552E+03  0.89983421256E+03  0.15294330000E+03 0.  0.
<mgrwt>
<rscale>  0 0.72065847E+03</rscale>
<asrwt>0</asrwt>
<pdfrwt beam="1">  1        1 0.23809050E+00 0.81339827E+03</pdfrwt>
<pdfrwt beam="2">  1       -1 0.46878258E-01 0.81339827E+03</pdfrwt>
<totfact> 0.28192034E+01</totfact>
</mgrwt>
</event>
<event>
 4    1  0.2514307E-008  0.8939842E+03  0.7818608E-02  0.9535759E-01
         -1   -1    0    0    0  501 -0.00000000000E+00  0.00000000000E+00  0.72572649788E+03  0.72572649790E+03  0.50400000000E-02 0.  1.
          1   -1    0    0  501    0  0.00000000000E+00 -0.00000000000E+00 -0.11011258701E+04  0.11011258701E+04  0.50400000000E-02 0. -1.
    8880023    1    1    2    0    0  0.52657595758E+03  0.29684216423E+03  0.26560556340E+03  0.93260604284E+03  0.65864270000E+03 0.  1.
    8880022    1    1    2    0    0 -0.52657595758E+03 -0.29684216423E+03 -0.64100493560E+03  0.89424632515E+03  0.15294330000E+03 0.  0.
<mgrwt>
<rscale>  0 0.81698041E+03</rscale>
<asrwt>0</asrwt>
<pdfrwt beam="1">  1        1 0.16940398E+00 0.89398418E+03</pdfrwt>
<pdfrwt beam="2">  1       -1 0.11165023E+00 0.89398418E+03</pdfrwt>
<totfact> 0.94595155E+00</totfact>
</mgrwt>
</event>
<event>
 4    1  0.2514307E-008  0.1845810E+04  0.7818608E-02  0.8697610E-01
          1   -1    0    0  501    0  0.00000000000E+00  0.00000000000E+00  0.25188428749E+04  0.25188428749E+04  0.50400000000E-02 0. -1.
         -1   -1    0    0    0  501 -0.00000000000E+00 -0.00000000000E+00 -0.16115335132E+04  0.16115335132E+04  0.50400000000E-02 0.  1.
    8880023    1    1    2    0    0  0.36936909569E+03  0.16842716812E+04 -0.48545141313E+03  0.19085800758E+04  0.65864270000E+03 0.  0.
    8880022    1    1    2    0    0 -0.36936909569E+03 -0.16842716812E+04  0.13927607748E+04  0.22217963123E+04  0.15294330000E+03 0.  0.
<mgrwt>
<rscale>  0 0.18164305E+04</rscale>
<asrwt>0</asrwt>
<pdfrwt beam="1">  1        1 0.38751429E+00 0.18458101E+04</pdfrwt>
<pdfrwt beam="2">  1       -1 0.24792823E+00 0.18458101E+04</pdfrwt>
<totfact> 0.85632303E-02</totfact>
</mgrwt>
</event>
<event>
 4    1  0.2514307E-008  0.9212467E+03  0.7818608E-02  0.9492750E-01
         -1   -1    0    0    0  501 -0.00000000000E+00  0.00000000000E+00  0.50763689475E+03  0.50763689477E+03  0.50400000000E-02 0.  1.
          1   -1    0    0  501    0  0.00000000000E+00 -0.00000000000E+00 -0.14473518129E+04  0.14473518129E+04  0.50400000000E-02 0. -1.
    8880023    1    1    2    0    0 -0.59685498856E+03  0.24217645232E+03 -0.16494213083E+03  0.93589605417E+03  0.65864270000E+03 0.  0.
    8880022    1    1    2    0    0  0.59685498856E+03 -0.24217645232E+03 -0.77477278729E+03  0.10190926535E+04  0.15294330000E+03 0.  0.
<mgrwt>
<rscale>  0 0.84820445E+03</rscale>
<asrwt>0</asrwt>
<pdfrwt beam="1">  1        1 0.22266951E+00 0.92124672E+03</pdfrwt>
<pdfrwt beam="2">  1       -1 0.78097984E-01 0.92124672E+03</pdfrwt>
<totfact> 0.11851586E+01</totfact>
</mgrwt>
</event>
<event>
 4    1  0.2514307E-008  0.6883001E+03  0.7818608E-02  0.1004971E+00
         -1   -1    0    0    0  501 -0.00000000000E+00  0.00000000000E+00  0.11273468143E+04  0.11273468143E+04  0.50400000000E-02 0.  1.
          1   -1    0    0  501    0  0.00000000000E+00 -0.00000000000E+00 -0.24289561339E+04  0.24289561339E+04  0.50400000000E-02 0. -1.
    8880023    1    1    2    0    0  0.11173626178E+03 -0.16571614845E+03  0.10148318987E+04  0.12262303303E+04  0.65864270000E+03 0.  0.
    8880022    1    1    2    0    0 -0.11173626178E+03  0.16571614845E+03 -0.23164412183E+04  0.23300726179E+04  0.15294330000E+03 0. -1.
<mgrwt>
<rscale>  0 0.53523171E+03</rscale>
<asrwt>0</asrwt>
<pdfrwt beam="1">  1        1 0.37368556E+00 0.68830011E+03</pdfrwt>
<pdfrwt beam="2">  1       -1 0.17343797E+00 0.68830011E+03</pdfrwt>
<totfact> 0.38387153E-01</totfact>
</mgrwt>
</event>
<event>
 4    1  0.2514307E-008  0.7475008E+03  0.7818608E-02  0.9838613E-01
          1   -1    0    0  501    0  0.00000000000E+00  0.00000000000E+00  0.93851479235E+03  0.93851479237E+03  0.50400000000E-02 0. -1.
         -1   -1    0    0    0  501 -0.00000000000E+00 -0.00000000000E+00 -0.46722457481E+03  0.46722457484E+03  0.50400000000E-02 0.  1.
    8880023    1    1    2    0    0 -0.34363319914E+03  0.82846007746E+02 -0.59580534463E+02  0.74987151093E+03  0.65864270000E+03 0.  1.
    8880022    1    1    2    0    0  0.34363319914E+03 -0.82846007746E+02  0.53087075200E+03  0.65586785628E+03  0.15294330000E+03 0.  0.
<mgrwt>
<rscale>  0 0.63330895E+03</rscale>
<asrwt>0</asrwt>
<pdfrwt beam="1">  1        1 0.14438689E+00 0.74750080E+03</pdfrwt>
<pdfrwt beam="2">  1       -1 0.71880704E-01 0.74750080E+03</pdfrwt>
<totfact> 0.33936376E+01</totfact>
</mgrwt>
</event>
<event>
 4    1  0.2514307E-008  0.9683467E+03  0.7818608E-02  0.9424195E-01
         -1   -1    0    0    0  501 -0.00000000000E+00  0.00000000000E+00  0.13292416428E+04  0.13292416428E+04  0.50400000000E-02 0.  1.
          1   -1    0    0  501    0  0.00000000000E+00 -0.00000000000E+00 -0.95257418402E+03  0.95257418403E+03  0.50400000000E-02 0. -1.
    8880023    1    1    2    0    0  0.65621120757E+03 -0.27068785825E+03  0.95006230263E+03  0.13565816049E+04  0.65864270000E+03 0.  0.
    8880022    1    1    2    0    0 -0.65621120757E+03  0.27068785825E+03 -0.57339484384E+03  0.92523422197E+03  0.15294330000E+03 0.  0.
<mgrwt>
<rscale>  0 0.90111034E+03</rscale>
<asrwt>0</asrwt>
<pdfrwt beam="1">  1        1 0.14654988E+00 0.96834667E+03</pdfrwt>
<pdfrwt beam="2">  1       -1 0.20449871E+00 0.96834667E+03</pdfrwt>
<totfact> 0.23319503E+00</totfact>
</mgrwt>
</event>
<event>
 4    1  0.2514307E-008  0.9317801E+03  0.7818608E-02  0.9476828E-01
         -1   -1    0    0    0  501 -0.00000000000E+00  0.00000000000E+00  0.78995925045E+03  0.78995925047E+03  0.50400000000E-02 0.  1.
          1   -1    0    0  501    0  0.00000000000E+00 -0.00000000000E+00 -0.20794088539E+04  0.20794088539E+04  0.50400000000E-02 0. -1.
    8880023    1    1    2    0    0 -0.61360416625E+03  0.24061137533E+03  0.42656653408E+03  0.10247795475E+04  0.65864270000E+03 0.  1.
    8880022    1    1    2    0    0  0.61360416625E+03 -0.24061137533E+03 -0.17160161375E+04  0.18445885569E+04  0.15294330000E+03 0.  0.
<mgrwt>
<rscale>  0 0.86013974E+03</rscale>
<asrwt>0</asrwt>
<pdfrwt beam="1">  1        1 0.31990905E+00 0.93178008E+03</pdfrwt>
<pdfrwt beam="2">  1       -1 0.12153219E+00 0.93178008E+03</pdfrwt>
<totfact> 0.16153299E+00</totfact>
</mgrwt>
</event>
<event>
 4    1  0.2514307E-008  0.6997311E+03  0.7818608E-02  0.9998318E-01
          1   -1    0    0  501    0  0.00000000000E+00  0.00000000000E+00  0.11553365264E+04  0.11553365264E+04  0.50400000000E-02 0. -1.
         -1   -1    0    0    0  501 -0.00000000000E+00 -0.00000000000E+00 -0.70204989340E+03  0.70204989341E+03  0.50400000000E-02 0.  1.
    8880023    1    1    2    0    0 -0.48493097650E+01 -0.23619896771E+03 -0.50221267346E+03  0.86130206304E+03  0.65864270000E+03 0.  1.
    8880022    1    1    2    0    0  0.48493097650E+01  0.23619896771E+03  0.95549930648E+03  0.99608435679E+03  0.15294330000E+03 0.  0.
<mgrwt>
<rscale>  0 0.55724036E+03</rscale>
<asrwt>0</asrwt>
<pdfrwt beam="1">  1        1 0.17774408E+00 0.69973114E+03</pdfrwt>
<pdfrwt beam="2">  1       -1 0.10800768E+00 0.69973114E+03</pdfrwt>
<totfact> 0.95720513E+00</totfact>
</mgrwt>
</event>
<event>
 4    1  0.2514307E-008  0.1258210E+04  0.7818608E-02  0.9102515E-01
         -1   -1    0    0    0  501 -0.00000000000E+00  0.00000000000E+00  0.92872854914E+03  0.92872854915E+03  0.50400000000E-02 0.  1.
          1   -1    0    0  501    0  0.00000000000E+00 -0.00000000000E+00 -0.19188926962E+04  0.19188926962E+04  0.50400000000E-02 0. -1.
    8880023    1    1    2    0    0  0.10582896972E+04  0.17118742985E+03 -0.12066419980E+04  0.17432949655E+04  0.65864270000E+03 0.  0.
    8880022    1    1    2    0    0 -0.10582896972E+04 -0.17118742985E+03  0.21647785093E+03  0.11043262798E+04  0.15294330000E+03 0.  0.
<mgrwt>
<rscale>  0 0.12118867E+04</rscale>
<asrwt>0</asrwt>
<pdfrwt beam="1">  1        1 0.29521426E+00 0.12582100E+04</pdfrwt>
<pdfrwt beam="2">  1       -1 0.14288132E+00 0.12582100E+04</pdfrwt>
<totfact> 0.13113936E+00</totfact>
</mgrwt>
</event>
<event>
 4    1  0.2514307E-008  0.9241804E+03  0.7818608E-02  0.9488279E-01
         -1   -1    0    0    0  501 -0.00000000000E+00  0.00000000000E+00  0.92597150004E+03  0.92597150006E+03  0.50400000000E-02 0.  1.
          1   -1    0    0  501    0  0.00000000000E+00 -0.00000000000E+00 -0.23675708261E+04  0.23675708261E+04  0.50400000000E-02 0. -1.
    8880023    1    1    2    0    0 -0.31395634800E+03  0.56721296170E+03  0.62934142165E+03  0.11181144680E+04  0.65864270000E+03 0.  1.
    8880022    1    1    2    0    0  0.31395634800E+03 -0.56721296170E+03 -0.20709407477E+04  0.21754278581E+04  0.15294330000E+03 0.  0.
<mgrwt>
<rscale>  0 0.85153519E+03</rscale>
<asrwt>0</asrwt>
<pdfrwt beam="1">  1        1 0.36424166E+00 0.92418036E+03</pdfrwt>
<pdfrwt beam="2">  1       -1 0.14245715E+00 0.92418036E+03</pdfrwt>
<totfact> 0.68970580E-01</totfact>
</mgrwt>
</event>
<event>
 4    1  0.2514307E-008  0.7047690E+03  0.7818608E-02  0.9977964E-01
          1   -1    0    0  501    0  0.00000000000E+00  0.00000000000E+00  0.28990154616E+04  0.28990154616E+04  0.50400000000E-02 0. -1.
         -1   -1    0    0    0  501 -0.00000000000E+00 -0.00000000000E+00 -0.74748701882E+03  0.74748701884E+03  0.50400000000E-02 0.  1.
    8880023    1    1    2    0    0 -0.19430620544E+03  0.15853765395E+03 -0.57169204046E+03  0.90748613465E+03  0.65864270000E+03 0.  1.
    8880022    1    1    2    0    0  0.19430620544E+03 -0.15853765395E+03  0.27232204833E+04  0.27390163458E+04  0.15294330000E+03 0.  0.
<mgrwt>
<rscale>  0 0.56627099E+03</rscale>
<asrwt>0</asrwt>
<pdfrwt beam="1">  1        1 0.44600238E+00 0.70476897E+03</pdfrwt>
<pdfrwt beam="2">  1       -1 0.11499800E+00 0.70476897E+03</pdfrwt>
<totfact> 0.53038393E-01</totfact>
</mgrwt>
</event>
<event>
 4    1  0.2514307E-008  0.9888099E+03  0.7818608E-02  0.9396346E-01
          1   -1    0    0  501    0  0.00000000000E+00  0.00000000000E+00  0.24065221748E+04  0.24065221748E+04  0.50400000000E-02 0. -1.
         -1   -1    0    0    0  501 -0.00000000000E+00 -0.00000000000E+00 -0.49141489070E+03  0.49141489073E+03  0.50400000000E-02 0.  1.
    8880023    1    1    2    0    0 -0.58020327410E+03 -0.45530102538E+03  0.17819080526E+03  0.10047372952E+04  0.65864270000E+03 0.  1.
    8880022    1    1    2    0    0  0.58020327410E+03  0.45530102538E+03  0.17369164788E+04  0.18931997703E+04  0.15294330000E+03 0.  0.
<mgrwt>
<rscale>  0 0.92376977E+03</rscale>
<asrwt>0</asrwt>
<pdfrwt beam="1">  1        1 0.37023419E+00 0.98880993E+03</pdfrwt>
<pdfrwt beam="2">  1       -1 0.75602290E-01 0.98880993E+03</pdfrwt>
<totfact> 0.28168487E+00</totfact>
</mgrwt>
</event>
<event>
 4    1  0.2514307E-008  0.1108258E+04  0.7818608E-02  0.9251917E-01
         -1   -1    0    0    0  501 -0.00000000000E+00  0.00000000000E+00  0.10184362829E+04  0.10184362829E+04  0.50400000000E-02 0.  1.
          1   -1    0    0  501    0  0.00000000000E+00 -0.00000000000E+00 -0.14162246680E+04  0.14162246680E+04  0.50400000000E-02 0. -1.
    8880023    1    1    2    0    0  0.58376874073E+03 -0.67352843686E+03  0.44900429634E+03  0.11957598263E+04  0.65864270000E+03 0.  0.
    8880022    1    1    2    0    0 -0.58376874073E+03  0.67352843686E+03 -0.84679268150E+03  0.12389011245E+04  0.15294330000E+03 0.  0.
<mgrwt>
<rscale>  0 0.10533262E+04</rscale>
<asrwt>0</asrwt>
<pdfrwt beam="1">  1        1 0.21788072E+00 0.11082584E+04</pdfrwt>
<pdfrwt beam="2">  1       -1 0.15668250E+00 0.11082584E+04</pdfrwt>
<totfact> 0.22978104E+00</totfact>
</mgrwt>
</event>
<event>
 4    1  0.2514307E-008  0.1106086E+04  0.7818608E-02  0.9254310E-01
          1   -1    0    0  501    0  0.00000000000E+00  0.00000000000E+00  0.10544187925E+04  0.10544187925E+04  0.50400000000E-02 0. -1.
         -1   -1    0    0    0  501 -0.00000000000E+00 -0.00000000000E+00 -0.11828428853E+04  0.11828428853E+04  0.50400000000E-02 0.  1.
    8880023    1    1    2    0    0 -0.86287770339E+03  0.21227140672E+03 -0.55757214291E+03  0.12386742840E+04  0.65864270000E+03 0.  0.
    8880022    1    1    2    0    0  0.86287770339E+03 -0.21227140672E+03  0.42914805008E+03  0.99858739378E+03  0.15294330000E+03 0.  0.
<mgrwt>
<rscale>  0 0.10510024E+04</rscale>
<asrwt>0</asrwt>
<pdfrwt beam="1">  1        1 0.16221828E+00 0.11060865E+04</pdfrwt>
<pdfrwt beam="2">  1       -1 0.18197583E+00 0.11060865E+04</pdfrwt>
<totfact> 0.27409693E+00</totfact>
</mgrwt>
</event>
<event>
 4    1  0.2514307E-008  0.7913931E+03  0.7818608E-02  0.9729725E-01
          1   -1    0    0  501    0  0.00000000000E+00  0.00000000000E+00  0.60622560005E+03  0.60622560007E+03  0.50400000000E-02 0. -1.
         -1   -1    0    0    0  501 -0.00000000000E+00 -0.00000000000E+00 -0.85857064616E+03  0.85857064617E+03  0.50400000000E-02 0.  1.
    8880023    1    1    2    0    0  0.38856472450E+03  0.20374064127E+03 -0.50215637516E+03  0.93726411721E+03  0.65864270000E+03 0. -1.
    8880022    1    1    2    0    0 -0.38856472450E+03 -0.20374064127E+03  0.24981132906E+03  0.52753212904E+03  0.15294330000E+03 0.  0.
<mgrwt>
<rscale>  0 0.69274253E+03</rscale>
<asrwt>0</asrwt>
<pdfrwt beam="1">  1        1 0.93265477E-01 0.79139308E+03</pdfrwt>
<pdfrwt beam="2">  1       -1 0.13208779E+00 0.79139308E+03</pdfrwt>
<totfact> 0.16804923E+01</totfact>
</mgrwt>
</event>
<event>
 4    1  0.2514307E-008  0.1075495E+04  0.7818608E-02  0.9288843E-01
         -1   -1    0    0    0  501 -0.00000000000E+00  0.00000000000E+00  0.13158348880E+04  0.13158348880E+04  0.50400000000E-02 0.  1.
          1   -1    0    0  501    0  0.00000000000E+00 -0.00000000000E+00 -0.10981683983E+04  0.10981683983E+04  0.50400000000E-02 0. -1.
    8880023    1    1    2    0    0  0.81528821519E+03  0.24121431448E+03  0.82713751779E+03  0.13567777633E+04  0.65864270000E+03 0.  0.
    8880022    1    1    2    0    0 -0.81528821519E+03 -0.24121431448E+03 -0.60947102810E+03  0.10572255230E+04  0.15294330000E+03 0.  0.
<mgrwt>
<rscale>  0 0.10181654E+04</rscale>
<asrwt>0</asrwt>
<pdfrwt beam="1">  1        1 0.16894898E+00 0.10754950E+04</pdfrwt>
<pdfrwt beam="2">  1       -1 0.20243614E+00 0.10754950E+04</pdfrwt>
<totfact> 0.18324526E+00</totfact>
</mgrwt>
</event>
<event>
 4    1  0.2514307E-008  0.6968544E+03  0.7818608E-02  0.1001051E+00
         -1   -1    0    0    0  501 -0.00000000000E+00  0.00000000000E+00  0.40505450750E+04  0.40505450750E+04  0.50400000000E-02 0.  1.
          1   -1    0    0  501    0  0.00000000000E+00 -0.00000000000E+00 -0.94941912189E+03  0.94941912190E+03  0.50400000000E-02 0. -1.
    8880023    1    1    2    0    0 -0.21504854950E+02 -0.22656871451E+03  0.39999743193E+04  0.40602217431E+04  0.65864270000E+03 0.  1.
    8880022    1    1    2    0    0  0.21504854950E+02  0.22656871451E+03 -0.89884836620E+03  0.93974245387E+03  0.15294330000E+03 0.  0.
<mgrwt>
<rscale>  0 0.55191822E+03</rscale>
<asrwt>0</asrwt>
<pdfrwt beam="1">  1        1 0.14606448E+00 0.69685439E+03</pdfrwt>
<pdfrwt beam="2">  1       -1 0.62316078E+00 0.69685439E+03</pdfrwt>
<totfact> 0.62967127E-03</totfact>
</mgrwt>
</event>
<event>
 4    1  0.2514307E-008  0.9670898E+03  0.7818608E-02  0.9425940E-01
          1   -1    0    0  501    0  0.00000000000E+00  0.00000000000E+00  0.21763658402E+04  0.21763658402E+04  0.50400000000E-02 0. -1.
         -1   -1    0    0    0  501 -0.00000000000E+00 -0.00000000000E+00 -0.51078193562E+03  0.51078193565E+03  0.50400000000E-02 0.  1.
    8880023    1    1    2    0    0 -0.70710547239E+03  0.38136419930E+02  0.11276078947E+03  0.97364148305E+03  0.65864270000E+03 0.  1.
    8880022    1    1    2    0    0  0.70710547239E+03 -0.38136419930E+02  0.15528231151E+04  0.17135062928E+04  0.15294330000E+03 0.  0.
<mgrwt>
<rscale>  0 0.89971283E+03</rscale>
<asrwt>0</asrwt>
<pdfrwt beam="1">  1        1 0.33482551E+00 0.96708983E+03</pdfrwt>
<pdfrwt beam="2">  1       -1 0.78581837E-01 0.96708983E+03</pdfrwt>
<totfact> 0.37310961E+00</totfact>
</mgrwt>
</event>
<event>
 4    1  0.2514307E-008  0.1380079E+04  0.7818608E-02  0.8999318E-01
          1   -1    0    0  501    0  0.00000000000E+00  0.00000000000E+00  0.12580319935E+04  0.12580319935E+04  0.50400000000E-02 0. -1.
         -1   -1    0    0    0  501 -0.00000000000E+00 -0.00000000000E+00 -0.19157713063E+04  0.19157713063E+04  0.50400000000E-02 0.  1.
    8880023    1    1    2    0    0 -0.52816300829E+03  0.10917196523E+04 -0.12072488119E+04  0.18335942470E+04  0.65864270000E+03 0.  1.
    8880022    1    1    2    0    0  0.52816300829E+03 -0.10917196523E+04  0.54950949910E+03  0.13402090528E+04  0.15294330000E+03 0.  0.
<mgrwt>
<rscale>  0 0.13388411E+04</rscale>
<asrwt>0</asrwt>
<pdfrwt beam="1">  1        1 0.19354338E+00 0.13800790E+04</pdfrwt>
<pdfrwt beam="2">  1       -1 0.29473405E+00 0.13800790E+04</pdfrwt>
<totfact> 0.33295797E-01</totfact>
</mgrwt>
</event>
<event>
 4    1  0.2514307E-008  0.9987103E+03  0.7818608E-02  0.9383247E-01
         -1   -1    0    0    0  501 -0.00000000000E+00  0.00000000000E+00  0.14228924379E+04  0.14228924379E+04  0.50400000000E-02 0.  1.
          1   -1    0    0  501    0  0.00000000000E+00 -0.00000000000E+00 -0.13795725183E+04  0.13795725183E+04  0.50400000000E-02 0. -1.
    8880023    1    1    2    0    0 -0.24165769218E+03 -0.71078385462E+03  0.11074185357E+04  0.14912404728E+04  0.65864270000E+03 0.  1.
    8880022    1    1    2    0    0  0.24165769218E+03  0.71078385462E+03 -0.10640986161E+04  0.13112244834E+04  0.15294330000E+03 0.  0.
<mgrwt>
<rscale>  0 0.93467316E+03</rscale>
<asrwt>0</asrwt>
<pdfrwt beam="1">  1        1 0.21224193E+00 0.99871034E+03</pdfrwt>
<pdfrwt beam="2">  1       -1 0.21890653E+00 0.99871034E+03</pdfrwt>
<totfact> 0.89570612E-01</totfact>
</mgrwt>
</event>
<event>
 4    1  0.2514307E-008  0.1021827E+04  0.7818608E-02  0.9353543E-01
         -1   -1    0    0    0  501 -0.00000000000E+00  0.00000000000E+00  0.80222460507E+03  0.80222460509E+03  0.50400000000E-02 0.  1.
          1   -1    0    0  501    0  0.00000000000E+00 -0.00000000000E+00 -0.22334044908E+04  0.22334044908E+04  0.50400000000E-02 0. -1.
    8880023    1    1    2    0    0  0.22349407531E+03 -0.74857852698E+03  0.35366952574E+03  0.10813009537E+04  0.65864270000E+03 0.  0.
    8880022    1    1    2    0    0 -0.22349407531E+03  0.74857852698E+03 -0.17848494115E+04  0.19543281422E+04  0.15294330000E+03 0.  0.
<mgrwt>
<rscale>  0 0.95999577E+03</rscale>
<asrwt>0</asrwt>
<pdfrwt beam="1">  1        1 0.34360069E+00 0.10218266E+04</pdfrwt>
<pdfrwt beam="2">  1       -1 0.12341917E+00 0.10218266E+04</pdfrwt>
<totfact> 0.12068649E+00</totfact>
</mgrwt>
</event>
<event>
 4    1  0.2514307E-008  0.1448634E+04  0.7818608E-02  0.8946786E-01
         -1   -1    0    0    0  501 -0.00000000000E+00  0.00000000000E+00  0.12615276045E+04  0.12615276045E+04  0.50400000000E-02 0.  1.
          1   -1    0    0  501    0  0.00000000000E+00 -0.00000000000E+00 -0.17226471801E+04  0.17226471801E+04  0.50400000000E-02 0. -1.
    8880023    1    1    2    0    0 -0.45873856266E+03 -0.12059391679E+04 -0.78148594222E+03  0.16459832410E+04  0.65864270000E+03 0. -1.
    8880022    1    1    2    0    0  0.45873856266E+03  0.12059391679E+04  0.32036636660E+03  0.13381915436E+04  0.15294330000E+03 0.  0.
<mgrwt>
<rscale>  0 0.14097578E+04</rscale>
<asrwt>0</asrwt>
<pdfrwt beam="1">  1        1 0.26502265E+00 0.14486340E+04</pdfrwt>
<pdfrwt beam="2">  1       -1 0.19408117E+00 0.14486340E+04</pdfrwt>
<totfact> 0.72437339E-01</totfact>
</mgrwt>
</event>
<event>
 4    1  0.2514307E-008  0.9862264E+03  0.7818608E-02  0.9399804E-01
         -1   -1    0    0    0  501 -0.00000000000E+00  0.00000000000E+00  0.11022937918E+04  0.11022937918E+04  0.50400000000E-02 0.  1.
          1   -1    0    0  501    0  0.00000000000E+00 -0.00000000000E+00 -0.25900506543E+04  0.25900506543E+04  0.50400000000E-02 0. -1.
    8880023    1    1    2    0    0 -0.71556962154E+03 -0.16368415985E+03  0.80944358668E+03  0.12758689250E+04  0.65864270000E+03 0.  0.
    8880022    1    1    2    0    0  0.71556962154E+03  0.16368415985E+03 -0.22972004492E+04  0.24164755212E+04  0.15294330000E+03 0.  0.
<mgrwt>
<rscale>  0 0.92091842E+03</rscale>
<asrwt>0</asrwt>
<pdfrwt beam="1">  1        1 0.39846933E+00 0.98622644E+03</pdfrwt>
<pdfrwt beam="2">  1       -1 0.16958366E+00 0.98622644E+03</pdfrwt>
<totfact> 0.29726692E-01</totfact>
</mgrwt>
</event>
<event>
 4    1  0.2514307E-008  0.6931037E+03  0.7818608E-02  0.1002711E+00
         -1   -1    0    0    0  501 -0.00000000000E+00  0.00000000000E+00  0.21848516627E+03  0.21848516633E+03  0.50400000000E-02 0.  1.
          1   -1    0    0  501    0  0.00000000000E+00 -0.00000000000E+00 -0.21160738936E+04  0.21160738936E+04  0.50400000000E-02 0. -1.
    8880023    1    1    2    0    0 -0.10996154263E+03 -0.18571765356E+03 -0.37281452921E+03  0.78700919128E+03  0.65864270000E+03 0.  1.
    8880022    1    1    2    0    0  0.10996154263E+03  0.18571765356E+03 -0.15247741981E+04  0.15475498687E+04  0.15294330000E+03 0.  1.
<mgrwt>
<rscale>  0 0.54477348E+03</rscale>
<asrwt>0</asrwt>
<pdfrwt beam="1">  1        1 0.32554982E+00 0.69310374E+03</pdfrwt>
<pdfrwt beam="2">  1       -1 0.33613104E-01 0.69310374E+03</pdfrwt>
<totfact> 0.21775356E+01</totfact>
</mgrwt>
</event>
<event>
 4    1  0.2514307E-008  0.8275185E+03  0.7818608E-02  0.9654180E-01
         -1   -1    0    0    0  501 -0.00000000000E+00  0.00000000000E+00  0.50718895243E+03  0.50718895245E+03  0.50400000000E-02 0.  1.
          1   -1    0    0  501    0  0.00000000000E+00 -0.00000000000E+00 -0.14058754751E+04  0.14058754751E+04  0.50400000000E-02 0. -1.
    8880023    1    1    2    0    0  0.34141383238E+03  0.36662417820E+03  0.50375160585E+02  0.82905039415E+03  0.65864270000E+03 0.  1.
    8880022    1    1    2    0    0 -0.34141383238E+03 -0.36662417820E+03 -0.94906168328E+03  0.10840140334E+04  0.15294330000E+03 0.  0.
<mgrwt>
<rscale>  0 0.73811672E+03</rscale>
<asrwt>0</asrwt>
<pdfrwt beam="1">  1        1 0.21628853E+00 0.82751852E+03</pdfrwt>
<pdfrwt beam="2">  1       -1 0.78029070E-01 0.82751852E+03</pdfrwt>
<totfact> 0.12832578E+01</totfact>
</mgrwt>
</event>
<event>
 4    1  0.2514307E-008  0.1129079E+04  0.7818608E-02  0.9229351E-01
          1   -1    0    0  501    0  0.00000000000E+00  0.00000000000E+00  0.24402673186E+04  0.24402673186E+04  0.50400000000E-02 0. -1.
         -1   -1    0    0    0  501 -0.00000000000E+00 -0.00000000000E+00 -0.89431813989E+03  0.89431813990E+03  0.50400000000E-02 0.  1.
    8880023    1    1    2    0    0 -0.77511901149E+03 -0.49010086314E+03 -0.38381564387E+03  0.11925321768E+04  0.65864270000E+03 0.  0.
    8880022    1    1    2    0    0  0.77511901149E+03  0.49010086314E+03  0.19297648226E+04  0.21420532817E+04  0.15294330000E+03 0.  0.
<mgrwt>
<rscale>  0 0.10755547E+04</rscale>
<asrwt>0</asrwt>
<pdfrwt beam="1">  1        1 0.37542573E+00 0.11290786E+04</pdfrwt>
<pdfrwt beam="2">  1       -1 0.13758741E+00 0.11290786E+04</pdfrwt>
<totfact> 0.65163900E-01</totfact>
</mgrwt>
</event>
<event>
 4    1  0.2514307E-008  0.1057840E+04  0.7818608E-02  0.9309516E-01
          1   -1    0    0  501    0  0.00000000000E+00  0.00000000000E+00  0.30600006114E+04  0.30600006114E+04  0.50400000000E-02 0. -1.
         -1   -1    0    0    0  501 -0.00000000000E+00 -0.00000000000E+00 -0.39644347312E+03  0.39644347316E+03  0.50400000000E-02 0.  1.
    8880023    1    1    2    0    0 -0.29970775643E+03  0.77161499664E+03  0.57363739463E+03  0.12033638307E+04  0.65864270000E+03 0.  1.
    8880022    1    1    2    0    0  0.29970775643E+03 -0.77161499664E+03  0.20899197436E+04  0.22530802538E+04  0.15294330000E+03 0.  0.
<mgrwt>
<rscale>  0 0.99911500E+03</rscale>
<asrwt>0</asrwt>
<pdfrwt beam="1">  1        1 0.47076934E+00 0.10578396E+04</pdfrwt>
<pdfrwt beam="2">  1       -1 0.60991301E-01 0.10578396E+04</pdfrwt>
<totfact> 0.15025869E+00</totfact>
</mgrwt>
</event>
<event>
 4    1  0.2514307E-008  0.7770125E+03  0.7818608E-02  0.9762902E-01
         -1   -1    0    0    0  501 -0.00000000000E+00  0.00000000000E+00  0.55367803013E+03  0.55367803015E+03  0.50400000000E-02 0.  1.
          1   -1    0    0  501    0  0.00000000000E+00 -0.00000000000E+00 -0.18233010014E+04  0.18233010014E+04  0.50400000000E-02 0. -1.
    8880023    1    1    2    0    0  0.41209852200E+03 -0.10632497396E+02  0.23312130769E+03  0.81122992560E+03  0.65864270000E+03 0.  1.
    8880022    1    1    2    0    0 -0.41209852200E+03  0.10632497396E+02 -0.15027442790E+04  0.15657491060E+04  0.15294330000E+03 0.  0.
<mgrwt>
<rscale>  0 0.67392007E+03</rscale>
<asrwt>0</asrwt>
<pdfrwt beam="1">  1        1 0.28050784E+00 0.77701251E+03</pdfrwt>
<pdfrwt beam="2">  1       -1 0.85181236E-01 0.77701251E+03</pdfrwt>
<totfact> 0.55760645E+00</totfact>
</mgrwt>
</event>
<event>
 4    1  0.2514307E-008  0.8637117E+03  0.7818608E-02  0.9586995E-01
         -1   -1    0    0    0  501 -0.00000000000E+00  0.00000000000E+00  0.62116458482E+03  0.62116458484E+03  0.50400000000E-02 0.  1.
          1   -1    0    0  501    0  0.00000000000E+00 -0.00000000000E+00 -0.10628229668E+04  0.10628229668E+04  0.50400000000E-02 0. -1.
    8880023    1    1    2    0    0 -0.15246654125E+03 -0.53753288386E+03  0.12608946216E+03  0.87286677458E+03  0.65864270000E+03 0.  0.
    8880022    1    1    2    0    0  0.15246654125E+03  0.53753288386E+03 -0.56774784409E+03  0.81112077702E+03  0.15294330000E+03 0.  0.
<mgrwt>
<rscale>  0 0.78162958E+03</rscale>
<asrwt>0</asrwt>
<pdfrwt beam="1">  1        1 0.16351123E+00 0.86371167E+03</pdfrwt>
<pdfrwt beam="2">  1       -1 0.95563782E-01 0.86371167E+03</pdfrwt>
<totfact> 0.14541146E+01</totfact>
</mgrwt>
</event>
<event>
 4    1  0.2514307E-008  0.8377019E+03  0.7818608E-02  0.9634529E-01
         -1   -1    0    0    0  501 -0.00000000000E+00  0.00000000000E+00  0.19670068446E+03  0.19670068452E+03  0.50400000000E-02 0.  1.
          1   -1    0    0  501    0  0.00000000000E+00 -0.00000000000E+00 -0.24125062199E+04  0.24125062200E+04  0.50400000000E-02 0. -1.
    8880023    1    1    2    0    0  0.33698562672E+03  0.39290586927E+03 -0.13736505532E+04  0.16089314415E+04  0.65864270000E+03 0.  0.
    8880022    1    1    2    0    0 -0.33698562672E+03 -0.39290586927E+03 -0.84215498224E+03  0.10002754630E+04  0.15294330000E+03 0. -1.
<mgrwt>
<rscale>  0 0.75052393E+03</rscale>
<asrwt>0</asrwt>
<pdfrwt beam="1">  1        1 0.37115478E+00 0.83770194E+03</pdfrwt>
<pdfrwt beam="2">  1       -1 0.30261645E-01 0.83770194E+03</pdfrwt>
<totfact> 0.16200547E+01</totfact>
</mgrwt>
</event>
<event>
 4    1  0.2514307E-008  0.8074523E+03  0.7818608E-02  0.9694908E-01
          1   -1    0    0  501    0  0.00000000000E+00  0.00000000000E+00  0.10719226318E+04  0.10719226318E+04  0.50400000000E-02 0. -1.
         -1   -1    0    0    0  501 -0.00000000000E+00 -0.00000000000E+00 -0.53562028169E+03  0.53562028172E+03  0.50400000000E-02 0.  1.
    8880023    1    1    2    0    0 -0.21678317188E+03  0.41373187208E+03 -0.88845658171E+02  0.81232552762E+03  0.65864270000E+03 0.  1.
    8880022    1    1    2    0    0  0.21678317188E+03 -0.41373187208E+03  0.62514800828E+03  0.79521738591E+03  0.15294330000E+03 0. -1.
<mgrwt>
<rscale>  0 0.71320755E+03</rscale>
<asrwt>0</asrwt>
<pdfrwt beam="1">  1        1 0.16491117E+00 0.80745230E+03</pdfrwt>
<pdfrwt beam="2">  1       -1 0.82403121E-01 0.80745230E+03</pdfrwt>
<totfact> 0.19940294E+01</totfact>
</mgrwt>
</event>
<event>
 4    1  0.2514307E-008  0.9638340E+03  0.7818608E-02  0.9430483E-01
          1   -1    0    0  501    0  0.00000000000E+00  0.00000000000E+00  0.18885387512E+04  0.18885387512E+04  0.50400000000E-02 0. -1.
         -1   -1    0    0    0  501 -0.00000000000E+00 -0.00000000000E+00 -0.65370205983E+03  0.65370205985E+03  0.50400000000E-02 0.  1.
    8880023    1    1    2    0    0  0.52227538976E+03  0.47158686158E+03 -0.15567863000E+03  0.97632565923E+03  0.65864270000E+03 0.  0.
    8880022    1    1    2    0    0 -0.52227538976E+03 -0.47158686158E+03  0.13905153214E+04  0.15659151518E+04  0.15294330000E+03 0.  0.
<mgrwt>
<rscale>  0 0.89608928E+03</rscale>
<asrwt>0</asrwt>
<pdfrwt beam="1">  1        1 0.29054442E+00 0.96383399E+03</pdfrwt>
<pdfrwt beam="2">  1       -1 0.10056955E+00 0.96383399E+03</pdfrwt>
<totfact> 0.33862135E+00</totfact>
</mgrwt>
</event>
<event>
 4    1  0.2514307E-008  0.1874620E+04  0.7818608E-02  0.8682345E-01
          1   -1    0    0  501    0  0.00000000000E+00  0.00000000000E+00  0.23066089521E+04  0.23066089521E+04  0.50400000000E-02 0. -1.
         -1   -1    0    0    0  501 -0.00000000000E+00 -0.00000000000E+00 -0.29415451144E+04  0.29415451144E+04  0.50400000000E-02 0.  1.
    8880023    1    1    2    0    0 -0.33399769528E+03  0.17230307072E+04  0.15563508277E+04  0.24364784800E+04  0.65864270000E+03 0. -1.
    8880022    1    1    2    0    0  0.33399769528E+03 -0.17230307072E+04 -0.21912869900E+04  0.28116755865E+04  0.15294330000E+03 0.  0.
<mgrwt>
<rscale>  0 0.18457432E+04</rscale>
<asrwt>0</asrwt>
<pdfrwt beam="1">  1        1 0.35486292E+00 0.18746198E+04</pdfrwt>
<pdfrwt beam="2">  1       -1 0.45254540E+00 0.18746198E+04</pdfrwt>
<totfact> 0.51185205E-03</totfact>
</mgrwt>
</event>
<event>
 4    1  0.2514307E-008  0.8458279E+03  0.7818608E-02  0.9619288E-01
         -1   -1    0    0    0  501 -0.00000000000E+00  0.00000000000E+00  0.90966244473E+03  0.90966244475E+03  0.50400000000E-02 0.  1.
          1   -1    0    0  501    0  0.00000000000E+00 -0.00000000000E+00 -0.65834191522E+03  0.65834191524E+03  0.50400000000E-02 0. -1.
    8880023    1    1    2    0    0 -0.25567701799E+02 -0.53005747381E+03  0.47739229968E+03  0.97125086716E+03  0.65864270000E+03 0.  1.
    8880022    1    1    2    0    0  0.25567701799E+02  0.53005747381E+03 -0.22607177016E+03  0.59675349282E+03  0.15294330000E+03 0.  0.
<mgrwt>
<rscale>  0 0.76032646E+03</rscale>
<asrwt>0</asrwt>
<pdfrwt beam="1">  1        1 0.10128337E+00 0.84582790E+03</pdfrwt>
<pdfrwt beam="2">  1       -1 0.13994807E+00 0.84582790E+03</pdfrwt>
<totfact> 0.12761263E+01</totfact>
</mgrwt>
</event>
<event>
 4    1  0.2514307E-008  0.7707054E+03  0.7818608E-02  0.9778141E-01
          1   -1    0    0  501    0  0.00000000000E+00  0.00000000000E+00  0.13718073622E+04  0.13718073622E+04  0.50400000000E-02 0. -1.
         -1   -1    0    0    0  501 -0.00000000000E+00 -0.00000000000E+00 -0.10524590532E+04  0.10524590532E+04  0.50400000000E-02 0.  1.
    8880023    1    1    2    0    0  0.39723563527E+03  0.48789721458E+02 -0.86871115418E+03  0.11613121297E+04  0.65864270000E+03 0.  1.
    8880022    1    1    2    0    0 -0.39723563527E+03 -0.48789721458E+02  0.11880594631E+04  0.12629542857E+04  0.15294330000E+03 0.  0.
<mgrwt>
<rscale>  0 0.66548916E+03</rscale>
<asrwt>0</asrwt>
<pdfrwt beam="1">  1        1 0.21104729E+00 0.77070539E+03</pdfrwt>
<pdfrwt beam="2">  1       -1 0.16191678E+00 0.77070539E+03</pdfrwt>
<totfact> 0.23661010E+00</totfact>
</mgrwt>
</event>
<event>
 4    1  0.2514307E-008  0.9243165E+03  0.7818608E-02  0.9488072E-01
          1   -1    0    0  501    0  0.00000000000E+00  0.00000000000E+00  0.81291000691E+03  0.81291000692E+03  0.50400000000E-02 0. -1.
         -1   -1    0    0    0  501 -0.00000000000E+00 -0.00000000000E+00 -0.95682782372E+03  0.95682782374E+03  0.50400000000E-02 0.  1.
    8880023    1    1    2    0    0 -0.23680944828E+03  0.60371515455E+03 -0.45979625241E+03  0.10323630672E+04  0.65864270000E+03 0.  1.
    8880022    1    1    2    0    0  0.23680944828E+03 -0.60371515455E+03  0.31587843559E+03  0.73737476341E+03  0.15294330000E+03 0.  0.
<mgrwt>
<rscale>  0 0.85168958E+03</rscale>
<asrwt>0</asrwt>
<pdfrwt beam="1">  1        1 0.12506308E+00 0.92431645E+03</pdfrwt>
<pdfrwt beam="2">  1       -1 0.14720428E+00 0.92431645E+03</pdfrwt>
<totfact> 0.79897057E+00</totfact>
</mgrwt>
</event>
<event>
 4    1  0.2514307E-008  0.6993430E+03  0.7818608E-02  0.9999938E-01
          1   -1    0    0  501    0  0.00000000000E+00  0.00000000000E+00  0.58760858287E+03  0.58760858289E+03  0.50400000000E-02 0. -1.
         -1   -1    0    0    0  501 -0.00000000000E+00 -0.00000000000E+00 -0.10950533066E+04  0.10950533066E+04  0.50400000000E-02 0.  1.
    8880023    1    1    2    0    0  0.14058470480E+03  0.18843128238E+03 -0.93726994609E+03  0.11694253142E+04  0.65864270000E+03 0.  1.
    8880022    1    1    2    0    0 -0.14058470480E+03 -0.18843128238E+03  0.42982522238E+03  0.51323657528E+03  0.15294330000E+03 0.  0.
<mgrwt>
<rscale>  0 0.55652968E+03</rscale>
<asrwt>0</asrwt>
<pdfrwt beam="1">  1        1 0.90401321E-01 0.69934299E+03</pdfrwt>
<pdfrwt beam="2">  1       -1 0.16846974E+00 0.69934299E+03</pdfrwt>
<totfact> 0.92543057E+00</totfact>
</mgrwt>
</event>
<event>
 4    1  0.2514307E-008  0.8602711E+03  0.7818608E-02  0.9593081E-01
          1   -1    0    0  501    0  0.00000000000E+00  0.00000000000E+00  0.15120303673E+04  0.15120303673E+04  0.50400000000E-02 0. -1.
         -1   -1    0    0    0  501 -0.00000000000E+00 -0.00000000000E+00 -0.72767964869E+03  0.72767964871E+03  0.50400000000E-02 0.  1.
    8880023    1    1    2    0    0  0.30372842829E+03 -0.46260690531E+03  0.12382897010E+04  0.15077890094E+04  0.65864270000E+03 0.  0.
    8880022    1    1    2    0    0 -0.30372842829E+03  0.46260690531E+03 -0.45393898247E+03  0.73192100654E+03  0.15294330000E+03 0.  1.
<mgrwt>
<rscale>  0 0.77755793E+03</rscale>
<asrwt>0</asrwt>
<pdfrwt beam="1">  1        1 0.23262006E+00 0.86027107E+03</pdfrwt>
<pdfrwt beam="2">  1       -1 0.11195072E+00 0.86027107E+03</pdfrwt>
<totfact> 0.48122640E+00</totfact>
</mgrwt>
</event>
<event>
 4    1  0.2514307E-008  0.7495145E+03  0.7818608E-02  0.9833051E-01
         -1   -1    0    0    0  501 -0.00000000000E+00  0.00000000000E+00  0.53295717765E+03  0.53295717768E+03  0.50400000000E-02 0.  1.
          1   -1    0    0  501    0  0.00000000000E+00 -0.00000000000E+00 -0.77769031546E+03  0.77769031548E+03  0.50400000000E-02 0. -1.
    8880023    1    1    2    0    0  0.34975280963E+03  0.75065086343E+02  0.14114864760E+03  0.76268928274E+03  0.65864270000E+03 0.  1.
    8880022    1    1    2    0    0 -0.34975280963E+03 -0.75065086343E+02 -0.38588178541E+03  0.54795821041E+03  0.15294330000E+03 0.  0.
<mgrwt>
<rscale>  0 0.63618595E+03</rscale>
<asrwt>0</asrwt>
<pdfrwt beam="1">  1        1 0.11964466E+00 0.74951451E+03</pdfrwt>
<pdfrwt beam="2">  1       -1 0.81993412E-01 0.74951451E+03</pdfrwt>
<totfact> 0.35075989E+01</totfact>
</mgrwt>
</event>
<event>
 4    1  0.2514307E-008  0.1221978E+04  0.7818608E-02  0.9136049E-01
          1   -1    0    0  501    0  0.00000000000E+00  0.00000000000E+00  0.46206106883E+04  0.46206106883E+04  0.50400000000E-02 0. -1.
         -1   -1    0    0    0  501 -0.00000000000E+00 -0.00000000000E+00 -0.77503548019E+03  0.77503548021E+03  0.50400000000E-02 0.  1.
    8880023    1    1    2    0    0  0.97816027928E+03  0.32034721504E+03 -0.18232320613E+03  0.12355046855E+04  0.65864270000E+03 0.  1.
    8880022    1    1    2    0    0 -0.97816027928E+03 -0.32034721504E+03  0.40278984142E+04  0.41601414830E+04  0.15294330000E+03 0.  0.
<mgrwt>
<rscale>  0 0.11738609E+04</rscale>
<asrwt>0</asrwt>
<pdfrwt beam="1">  1        1 0.71086318E+00 0.12219779E+04</pdfrwt>
<pdfrwt beam="2">  1       -1 0.11923623E+00 0.12219779E+04</pdfrwt>
<totfact> 0.15540059E-02</totfact>
</mgrwt>
</event>
<event>
 4    1  0.2514307E-008  0.1251775E+04  0.7818608E-02  0.9108365E-01
         -1   -1    0    0    0  501 -0.00000000000E+00  0.00000000000E+00  0.51213280421E+03  0.51213280423E+03  0.50400000000E-02 0.  1.
          1   -1    0    0  501    0  0.00000000000E+00 -0.00000000000E+00 -0.33292507304E+04  0.33292507304E+04  0.50400000000E-02 0. -1.
    8880023    1    1    2    0    0 -0.88539361868E+03  0.59093962777E+03 -0.62377787863E+03  0.13985851965E+04  0.65864270000E+03 0.  0.
    8880022    1    1    2    0    0  0.88539361868E+03 -0.59093962777E+03 -0.21933400476E+04  0.24427983382E+04  0.15294330000E+03 0.  0.
<mgrwt>
<rscale>  0 0.12051445E+04</rscale>
<asrwt>0</asrwt>
<pdfrwt beam="1">  1        1 0.51219241E+00 0.12517754E+04</pdfrwt>
<pdfrwt beam="2">  1       -1 0.78789664E-01 0.12517754E+04</pdfrwt>
<totfact> 0.54425977E-01</totfact>
</mgrwt>
</event>
<event>
 4    1  0.2514307E-008  0.9671889E+03  0.7818608E-02  0.9425803E-01
         -1   -1    0    0    0  501 -0.00000000000E+00  0.00000000000E+00  0.11662754567E+04  0.11662754567E+04  0.50400000000E-02 0.  1.
          1   -1    0    0  501    0  0.00000000000E+00 -0.00000000000E+00 -0.89227428527E+03  0.89227428528E+03  0.50400000000E-02 0. -1.
    8880023    1    1    2    0    0 -0.22817968965E+03 -0.67050593902E+03  0.72172641758E+03  0.12067905424E+04  0.65864270000E+03 0.  1.
    8880022    1    1    2    0    0  0.22817968965E+03  0.67050593902E+03 -0.44772524618E+03  0.85175919960E+03  0.15294330000E+03 0.  0.
<mgrwt>
<rscale>  0 0.89982302E+03</rscale>
<asrwt>0</asrwt>
<pdfrwt beam="1">  1        1 0.13727297E+00 0.96718891E+03</pdfrwt>
<pdfrwt beam="2">  1       -1 0.17942699E+00 0.96718891E+03</pdfrwt>
<totfact> 0.39068297E+00</totfact>
</mgrwt>
</event>
<event>
 4    1  0.2514307E-008  0.1131849E+04  0.7818608E-02  0.9226398E-01
          1   -1    0    0  501    0  0.00000000000E+00  0.00000000000E+00  0.23397261184E+04  0.23397261184E+04  0.50400000000E-02 0. -1.
         -1   -1    0    0    0  501 -0.00000000000E+00 -0.00000000000E+00 -0.78754270887E+03  0.78754270889E+03  0.50400000000E-02 0.  1.
    8880023    1    1    2    0    0 -0.84468921351E+02 -0.91659031735E+03 -0.19310530610E+03  0.11482041082E+04  0.65864270000E+03 0.  0.
    8880022    1    1    2    0    0  0.84468921351E+02  0.91659031735E+03  0.17452887156E+04  0.19790647191E+04  0.15294330000E+03 0.  0.
<mgrwt>
<rscale>  0 0.10785067E+04</rscale>
<asrwt>0</asrwt>
<pdfrwt beam="1">  1        1 0.35995786E+00 0.11318494E+04</pdfrwt>
<pdfrwt beam="2">  1       -1 0.12116042E+00 0.11318494E+04</pdfrwt>
<totfact> 0.10527609E+00</totfact>
</mgrwt>
</event>
<event>
 4    1  0.2514307E-008  0.8764227E+03  0.7818608E-02  0.9564993E-01
          1   -1    0    0  501    0  0.00000000000E+00  0.00000000000E+00  0.10736594660E+04  0.10736594660E+04  0.50400000000E-02 0. -1.
         -1   -1    0    0    0  501 -0.00000000000E+00 -0.00000000000E+00 -0.19007114453E+04  0.19007114453E+04  0.50400000000E-02 0.  1.
    8880023    1    1    2    0    0 -0.22713419724E+03 -0.53171102291E+03 -0.17020852180E+04  0.19144740403E+04  0.65864270000E+03 0.  1.
    8880022    1    1    2    0    0  0.22713419724E+03  0.53171102291E+03  0.87503323864E+03  0.10598968710E+04  0.15294330000E+03 0.  0.
<mgrwt>
<rscale>  0 0.79657159E+03</rscale>
<asrwt>0</asrwt>
<pdfrwt beam="1">  1        1 0.16517838E+00 0.87642271E+03</pdfrwt>
<pdfrwt beam="2">  1       -1 0.29241714E+00 0.87642271E+03</pdfrwt>
<totfact> 0.50817446E-01</totfact>
</mgrwt>
</event>
<event>
 4    1  0.2514307E-008  0.1533769E+04  0.7818608E-02  0.8886151E-01
          1   -1    0    0  501    0  0.00000000000E+00  0.00000000000E+00  0.24495297504E+04  0.24495297504E+04  0.50400000000E-02 0. -1.
         -1   -1    0    0    0  501 -0.00000000000E+00 -0.00000000000E+00 -0.99855404731E+03  0.99855404733E+03  0.50400000000E-02 0.  1.
    8880023    1    1    2    0    0 -0.27224009840E+03 -0.13581319388E+04  0.14907170711E+03  0.15409963058E+04  0.65864270000E+03 0.  0.
    8880022    1    1    2    0    0  0.27224009840E+03  0.13581319388E+04  0.13019039960E+04  0.19070874920E+04  0.15294330000E+03 0.  0.
<mgrwt>
<rscale>  0 0.14974486E+04</rscale>
<asrwt>0</asrwt>
<pdfrwt beam="1">  1        1 0.37685073E+00 0.15337690E+04</pdfrwt>
<pdfrwt beam="2">  1       -1 0.15362370E+00 0.15337690E+04</pdfrwt>
<totfact> 0.45416237E-01</totfact>
</mgrwt>
</event>
<event>
 4    1  0.2514307E-008  0.7855438E+03  0.7818608E-02  0.9742972E-01
         -1   -1    0    0    0  501 -0.00000000000E+00  0.00000000000E+00  0.90373409347E+03  0.90373409348E+03  0.50400000000E-02 0.  1.
          1   -1    0    0  501    0  0.00000000000E+00 -0.00000000000E+00 -0.88391186929E+03  0.88391186931E+03  0.50400000000E-02 0. -1.
    8880023    1    1    2    0    0  0.12019240787E+03  0.41088024968E+03  0.64378182870E+03  0.10156446444E+04  0.65864270000E+03 0.  0.
    8880022    1    1    2    0    0 -0.12019240787E+03 -0.41088024968E+03 -0.62395960452E+03  0.77200131838E+03  0.15294330000E+03 0. -1.
<mgrwt>
<rscale>  0 0.68514889E+03</rscale>
<asrwt>0</asrwt>
<pdfrwt beam="1">  1        1 0.13598644E+00 0.78554376E+03</pdfrwt>
<pdfrwt beam="2">  1       -1 0.13903601E+00 0.78554376E+03</pdfrwt>
<totfact> 0.82296642E+00</totfact>
</mgrwt>
</event>
<event>
 4    1  0.2514307E-008  0.6705265E+03  0.7818608E-02  0.1015288E+00
          1   -1    0    0  501    0  0.00000000000E+00  0.00000000000E+00  0.16853460680E+04  0.16853460680E+04  0.50400000000E-02 0. -1.
         -1   -1    0    0    0  501 -0.00000000000E+00 -0.00000000000E+00 -0.13520478358E+04  0.13520478358E+04  0.50400000000E-02 0.  1.
    8880023    1    1    2    0    0 -0.11100717759E+03 -0.58931867394E+02 -0.12624198589E+04  0.14294438306E+04  0.65864270000E+03 0.  1.
    8880022    1    1    2    0    0  0.11100717759E+03  0.58931867394E+02  0.15957180911E+04  0.16079500732E+04  0.15294330000E+03 0.  0.
<mgrwt>
<rscale>  0 0.49425947E+03</rscale>
<asrwt>0</asrwt>
<pdfrwt beam="1">  1        1 0.25928401E+00 0.67052648E+03</pdfrwt>
<pdfrwt beam="2">  1       -1 0.20800736E+00 0.67052648E+03</pdfrwt>
<totfact> 0.69743956E-01</totfact>
</mgrwt>
</event>
<event>
 4    1  0.2514307E-008  0.9856041E+03  0.7818608E-02  0.9400639E-01
          1   -1    0    0  501    0  0.00000000000E+00  0.00000000000E+00  0.22893865405E+04  0.22893865405E+04  0.50400000000E-02 0. -1.
         -1   -1    0    0    0  501 -0.00000000000E+00 -0.00000000000E+00 -0.53513117287E+03  0.53513117289E+03  0.50400000000E-02 0.  1.
    8880023    1    1    2    0    0  0.71339410172E+02  0.72973685690E+03  0.78179501117E+02  0.98869986974E+03  0.65864270000E+03 0.  0.
    8880022    1    1    2    0    0 -0.71339410172E+02 -0.72973685690E+03  0.16760758666E+04  0.18358178437E+04  0.15294330000E+03 0.  0.
<mgrwt>
<rscale>  0 0.92023113E+03</rscale>
<asrwt>0</asrwt>
<pdfrwt beam="1">  1        1 0.35221332E+00 0.98560408E+03</pdfrwt>
<pdfrwt beam="2">  1       -1 0.82327871E-01 0.98560408E+03</pdfrwt>
<totfact> 0.28250395E+00</totfact>
</mgrwt>
</event>
<event>
 4    1  0.2514307E-008  0.7507987E+03  0.7818608E-02  0.9829539E-01
         -1   -1    0    0    0  501 -0.00000000000E+00  0.00000000000E+00  0.91723142848E+03  0.91723142850E+03  0.50400000000E-02 0.  1.
          1   -1    0    0  501    0  0.00000000000E+00 -0.00000000000E+00 -0.83877641197E+03  0.83877641198E+03  0.50400000000E-02 0. -1.
    8880023    1    1    2    0    0 -0.12369083639E+03 -0.33851003702E+03  0.69668274312E+03  0.10242389951E+04  0.65864270000E+03 0.  1.
    8880022    1    1    2    0    0  0.12369083639E+03  0.33851003702E+03 -0.61822772660E+03  0.73176884542E+03  0.15294330000E+03 0.  0.
<mgrwt>
<rscale>  0 0.63801128E+03</rscale>
<asrwt>0</asrwt>
<pdfrwt beam="1">  1        1 0.12904253E+00 0.75079869E+03</pdfrwt>
<pdfrwt beam="2">  1       -1 0.14111253E+00 0.75079869E+03</pdfrwt>
<totfact> 0.86741932E+00</totfact>
</mgrwt>
</event>
<event>
 4    1  0.2514307E-008  0.9385501E+03  0.7818608E-02  0.9466783E-01
         -1   -1    0    0    0  501 -0.00000000000E+00  0.00000000000E+00  0.97615377980E+03  0.97615377981E+03  0.50400000000E-02 0.  1.
          1   -1    0    0  501    0  0.00000000000E+00 -0.00000000000E+00 -0.12228214521E+04  0.12228214521E+04  0.50400000000E-02 0. -1.
    8880023    1    1    2    0    0 -0.66138782953E+03  0.98143990103E+02  0.59649452233E+03  0.11120620600E+04  0.65864270000E+03 0.  0.
    8880022    1    1    2    0    0  0.66138782953E+03 -0.98143990103E+02 -0.84316219464E+03  0.10869131719E+04  0.15294330000E+03 0.  0.
<mgrwt>
<rscale>  0 0.86777709E+03</rscale>
<asrwt>0</asrwt>
<pdfrwt beam="1">  1        1 0.18812638E+00 0.93855011E+03</pdfrwt>
<pdfrwt beam="2">  1       -1 0.15017750E+00 0.93855011E+03</pdfrwt>
<totfact> 0.36175573E+00</totfact>
</mgrwt>
</event>
<event>
 4    1  0.2514307E-008  0.7439848E+03  0.7818608E-02  0.9848488E-01
         -1   -1    0    0    0  501 -0.00000000000E+00  0.00000000000E+00  0.95512370616E+03  0.95512370617E+03  0.50400000000E-02 0.  1.
          1   -1    0    0  501    0  0.00000000000E+00 -0.00000000000E+00 -0.17015653869E+04  0.17015653869E+04  0.50400000000E-02 0. -1.
    8880023    1    1    2    0    0  0.33465908460E+03 -0.87786267671E+02  0.78362978136E+03  0.10805503099E+04  0.65864270000E+03 0.  1.
    8880022    1    1    2    0    0 -0.33465908460E+03  0.87786267671E+02 -0.15300714621E+04  0.15761387832E+04  0.15294330000E+03 0.  0.
<mgrwt>
<rscale>  0 0.62824062E+03</rscale>
<asrwt>0</asrwt>
<pdfrwt beam="1">  1        1 0.26177929E+00 0.74398477E+03</pdfrwt>
<pdfrwt beam="2">  1       -1 0.14694211E+00 0.74398477E+03</pdfrwt>
<totfact> 0.18436059E+00</totfact>
</mgrwt>
</event>
<event>
 4    1  0.2514307E-008  0.7921449E+03  0.7818608E-02  0.9728045E-01
          1   -1    0    0  501    0  0.00000000000E+00  0.00000000000E+00  0.11039351766E+04  0.11039351766E+04  0.50400000000E-02 0. -1.
         -1   -1    0    0    0  501 -0.00000000000E+00 -0.00000000000E+00 -0.14482321268E+04  0.14482321268E+04  0.50400000000E-02 0.  1.
    8880023    1    1    2    0    0 -0.39334466025E+03 -0.19739146641E+03 -0.12809144714E+04  0.15060662343E+04  0.65864270000E+03 0.  1.
    8880022    1    1    2    0    0  0.39334466025E+03  0.19739146641E+03  0.93661752123E+03  0.10461010691E+04  0.15294330000E+03 0.  0.
<mgrwt>
<rscale>  0 0.69371284E+03</rscale>
<asrwt>0</asrwt>
<pdfrwt beam="1">  1        1 0.16983618E+00 0.79214495E+03</pdfrwt>
<pdfrwt beam="2">  1       -1 0.22280494E+00 0.79214495E+03</pdfrwt>
<totfact> 0.13803959E+00</totfact>
</mgrwt>
</event>
<event>
 4    1  0.2514307E-008  0.6588492E+03  0.7818608E-02  0.1025368E+00
         -1   -1    0    0    0  501 -0.00000000000E+00  0.00000000000E+00  0.14818436044E+03  0.14818436052E+03  0.50400000000E-02 0.  1.
          1   -1    0    0  501    0  0.00000000000E+00 -0.00000000000E+00 -0.23790206582E+04  0.23790206582E+04  0.50400000000E-02 0. -1.
    8880023    1    1    2    0    0 -0.14651220569E+02 -0.75781657000E+01 -0.60619074116E+03  0.89529297316E+03  0.65864270000E+03 0.  1.
    8880022    1    1    2    0    0  0.14651220569E+02  0.75781657000E+01 -0.16246455566E+04  0.16319120456E+04  0.15294330000E+03 0.  0.
<mgrwt>
<rscale>  0 0.45798362E+03</rscale>
<asrwt>0</asrwt>
<pdfrwt beam="1">  1        1 0.36600315E+00 0.65884922E+03</pdfrwt>
<pdfrwt beam="2">  1       -1 0.22797596E-01 0.65884922E+03</pdfrwt>
<totfact> 0.28473060E+01</totfact>
</mgrwt>
</event>
<event>
 4    1  0.2514307E-008  0.1134555E+04  0.7818608E-02  0.9223525E-01
          1   -1    0    0  501    0  0.00000000000E+00  0.00000000000E+00  0.10759350232E+04  0.10759350232E+04  0.50400000000E-02 0. -1.
         -1   -1    0    0    0  501 -0.00000000000E+00 -0.00000000000E+00 -0.11592926364E+04  0.11592926364E+04  0.50400000000E-02 0.  1.
    8880023    1    1    2    0    0 -0.87229748012E+03  0.30414016012E+03  0.37202663772E+03  0.11939925277E+04  0.65864270000E+03 0. -1.
    8880022    1    1    2    0    0  0.87229748012E+03 -0.30414016012E+03 -0.45538425098E+03  0.10412351319E+04  0.15294330000E+03 0.  0.
<mgrwt>
<rscale>  0 0.10813876E+04</rscale>
<asrwt>0</asrwt>
<pdfrwt beam="1">  1        1 0.16552846E+00 0.11345547E+04</pdfrwt>
<pdfrwt beam="2">  1       -1 0.17835271E+00 0.11345547E+04</pdfrwt>
<totfact> 0.27933315E+00</totfact>
</mgrwt>
</event>
<event>
 4    1  0.2514307E-008  0.9800086E+03  0.7818608E-02  0.9408193E-01
         -1   -1    0    0    0  501 -0.00000000000E+00  0.00000000000E+00  0.76335673125E+03  0.76335673126E+03  0.50400000000E-02 0.  1.
          1   -1    0    0  501    0  0.00000000000E+00 -0.00000000000E+00 -0.14473992641E+04  0.14473992641E+04  0.50400000000E-02 0. -1.
    8880023    1    1    2    0    0  0.47263246899E+03  0.55065883508E+03  0.25648132604E+03  0.10130150444E+04  0.65864270000E+03 0.  1.
    8880022    1    1    2    0    0 -0.47263246899E+03 -0.55065883508E+03 -0.94052385892E+03  0.11977409510E+04  0.15294330000E+03 0.  0.
<mgrwt>
<rscale>  0 0.91404499E+03</rscale>
<asrwt>0</asrwt>
<pdfrwt beam="1">  1        1 0.22267681E+00 0.98000858E+03</pdfrwt>
<pdfrwt beam="2">  1       -1 0.11743950E+00 0.98000858E+03</pdfrwt>
<totfact> 0.46789967E+00</totfact>
</mgrwt>
</event>
<event>
 4    1  0.2514307E-008  0.8024255E+03  0.7818608E-02  0.9705576E-01
          1   -1    0    0  501    0  0.00000000000E+00  0.00000000000E+00  0.61660907817E+03  0.61660907819E+03  0.50400000000E-02 0. -1.
         -1   -1    0    0    0  501 -0.00000000000E+00 -0.00000000000E+00 -0.74681060938E+03  0.74681060940E+03  0.50400000000E-02 0.  1.
    8880023    1    1    2    0    0 -0.31186461844E+03 -0.33588228072E+03 -0.29194080188E+03  0.85388294561E+03  0.65864270000E+03 0.  0.
    8880022    1    1    2    0    0  0.31186461844E+03  0.33588228072E+03  0.16173927066E+03  0.50953674198E+03  0.15294330000E+03 0.  0.
<mgrwt>
<rscale>  0 0.70685767E+03</rscale>
<asrwt>0</asrwt>
<pdfrwt beam="1">  1        1 0.94862936E-01 0.80242548E+03</pdfrwt>
<pdfrwt beam="2">  1       -1 0.11489394E+00 0.80242548E+03</pdfrwt>
<totfact> 0.23100761E+01</totfact>
</mgrwt>
</event>
<event>
 4    1  0.2514307E-008  0.6821520E+03  0.7818608E-02  0.1008132E+00
          1   -1    0    0  501    0  0.00000000000E+00  0.00000000000E+00  0.48452365321E+03  0.48452365324E+03  0.50400000000E-02 0. -1.
         -1   -1    0    0    0  501 -0.00000000000E+00 -0.00000000000E+00 -0.47533056979E+03  0.47533056982E+03  0.50400000000E-02 0.  1.
    8880023    1    1    2    0    0 -0.15071802829E+03  0.93836268166E+02 -0.11944899983E+03  0.69253118276E+03  0.65864270000E+03 0.  1.
    8880022    1    1    2    0    0  0.15071802829E+03 -0.93836268166E+02  0.12864208325E+03  0.26732304030E+03  0.15294330000E+03 0.  1.
<mgrwt>
<rscale>  0 0.52223996E+03</rscale>
<asrwt>0</asrwt>
<pdfrwt beam="1">  1        1 0.74542101E-01 0.68215202E+03</pdfrwt>
<pdfrwt beam="2">  1       -1 0.73127780E-01 0.68215202E+03</pdfrwt>
<totfact> 0.89282144E+01</totfact>
</mgrwt>
</event>
<event>
 4    1  0.2514307E-008  0.1016071E+04  0.7818608E-02  0.9360828E-01
         -1   -1    0    0    0  501 -0.00000000000E+00  0.00000000000E+00  0.84868805960E+03  0.84868805962E+03  0.50400000000E-02 0.  1.
          1   -1    0    0  501    0  0.00000000000E+00 -0.00000000000E+00 -0.12702954729E+04  0.12702954729E+04  0.50400000000E-02 0. -1.
    8880023    1    1    2    0    0  0.74721828462E+03 -0.20063524202E+03 -0.75183052766E+03  0.12639814135E+04  0.65864270000E+03 0.  0.
    8880022    1    1    2    0    0 -0.74721828462E+03  0.20063524202E+03  0.33022311435E+03  0.85500211899E+03  0.15294330000E+03 0.  0.
<mgrwt>
<rscale>  0 0.95370739E+03</rscale>
<asrwt>0</asrwt>
<pdfrwt beam="1">  1        1 0.19543007E+00 0.10160708E+04</pdfrwt>
<pdfrwt beam="2">  1       -1 0.13056739E+00 0.10160708E+04</pdfrwt>
<totfact> 0.47739762E+00</totfact>
</mgrwt>
</event>
<event>
 4    1  0.2514307E-008  0.9816526E+03  0.7818608E-02  0.9405965E-01
          1   -1    0    0  501    0  0.00000000000E+00  0.00000000000E+00  0.12549953310E+04  0.12549953311E+04  0.50400000000E-02 0. -1.
         -1   -1    0    0    0  501 -0.00000000000E+00 -0.00000000000E+00 -0.65444609761E+03  0.65444609762E+03  0.50400000000E-02 0.  1.
    8880023    1    1    2    0    0  0.16773090814E+02 -0.72770209025E+03  0.47918023400E+02  0.98282145477E+03  0.65864270000E+03 0.  0.
    8880022    1    1    2    0    0 -0.16773090814E+02  0.72770209025E+03  0.55263121004E+03  0.92661997391E+03  0.15294330000E+03 0.  0.
<mgrwt>
<rscale>  0 0.91586389E+03</rscale>
<asrwt>0</asrwt>
<pdfrwt beam="1">  1        1 0.19307620E+00 0.98165262E+03</pdfrwt>
<pdfrwt beam="2">  1       -1 0.10068402E+00 0.98165262E+03</pdfrwt>
<totfact> 0.91974516E+00</totfact>
</mgrwt>
</event>
<event>
 4    1  0.2514307E-008  0.6722436E+03  0.7818608E-02  0.1014103E+00
         -1   -1    0    0    0  501 -0.00000000000E+00  0.00000000000E+00  0.38045258060E+03  0.38045258063E+03  0.50400000000E-02 0.  1.
          1   -1    0    0  501    0  0.00000000000E+00 -0.00000000000E+00 -0.94586393870E+03  0.94586393872E+03  0.50400000000E-02 0. -1.
    8880023    1    1    2    0    0 -0.44743408335E+01  0.13446657554E+03  0.53866014726E+02  0.67439827511E+03  0.65864270000E+03 0.  1.
    8880022    1    1    2    0    0  0.44743408335E+01 -0.13446657554E+03 -0.61927737283E+03  0.65191824424E+03  0.15294330000E+03 0.  0.
<mgrwt>
<rscale>  0 0.49876019E+03</rscale>
<asrwt>0</asrwt>
<pdfrwt beam="1">  1        1 0.14551753E+00 0.67224362E+03</pdfrwt>
<pdfrwt beam="2">  1       -1 0.58531167E-01 0.67224362E+03</pdfrwt>
<totfact> 0.50974212E+01</totfact>
</mgrwt>
</event>
<event>
 4    1  0.2514307E-008  0.7037485E+03  0.7818608E-02  0.9981992E-01
         -1   -1    0    0    0  501 -0.00000000000E+00  0.00000000000E+00  0.31106899130E+03  0.31106899134E+03  0.50400000000E-02 0.  1.
          1   -1    0    0  501    0  0.00000000000E+00 -0.00000000000E+00 -0.82568395721E+03  0.82568395723E+03  0.50400000000E-02 0. -1.
    8880023    1    1    2    0    0  0.17055852916E+03 -0.17989329369E+03 -0.26117190765E+03  0.75064824025E+03  0.65864270000E+03 0.  0.
    8880022    1    1    2    0    0 -0.17055852916E+03  0.17989329369E+03 -0.25344305827E+03  0.38610470832E+03  0.15294330000E+03 0.  1.
<mgrwt>
<rscale>  0 0.56446943E+03</rscale>
<asrwt>0</asrwt>
<pdfrwt beam="1">  1        1 0.12702830E+00 0.70374855E+03</pdfrwt>
<pdfrwt beam="2">  1       -1 0.47856768E-01 0.70374855E+03</pdfrwt>
<totfact> 0.93725246E+01</totfact>
</mgrwt>
</event>
<event>
 4    1  0.2514307E-008  0.2395701E+04  0.7818608E-02  0.8449460E-01
          1   -1    0    0  501    0  0.00000000000E+00  0.00000000000E+00  0.18634170244E+04  0.18634170244E+04  0.50400000000E-02 0. -1.
         -1   -1    0    0    0  501 -0.00000000000E+00 -0.00000000000E+00 -0.55179703994E+04  0.55179703994E+04  0.50400000000E-02 0.  1.
    8880023    1    1    2    0    0 -0.12428531971E+04  0.19393007408E+04  0.66273682224E+03  0.24856793306E+04  0.65864270000E+03 0.  1.
    8880022    1    1    2    0    0  0.12428531971E+04 -0.19393007408E+04 -0.43172901972E+04  0.48957080931E+04  0.15294330000E+03 0.  0.
<mgrwt>
<rscale>  0 0.23735848E+04</rscale>
<asrwt>0</asrwt>
<pdfrwt beam="1">  1        1 0.28667954E+00 0.23957007E+04</pdfrwt>
<pdfrwt beam="2">  1       -1 0.84891852E+00 0.23957007E+04</pdfrwt>
<totfact> 0.95516189E-05</totfact>
</mgrwt>
</event>
<event>
 4    1  0.2514307E-008  0.1276517E+04  0.7818608E-02  0.9086109E-01
          1   -1    0    0  501    0  0.00000000000E+00  0.00000000000E+00  0.11650144034E+04  0.11650144034E+04  0.50400000000E-02 0. -1.
         -1   -1    0    0    0  501 -0.00000000000E+00 -0.00000000000E+00 -0.12656347459E+04  0.12656347459E+04  0.50400000000E-02 0.  1.
    8880023    1    1    2    0    0 -0.88913166292E+03 -0.63649794068E+03 -0.29346793120E+03  0.13098161609E+04  0.65864270000E+03 0.  0.
    8880022    1    1    2    0    0  0.88913166292E+03  0.63649794068E+03  0.19284758872E+03  0.11208329884E+04  0.15294330000E+03 0.  0.
<mgrwt>
<rscale>  0 0.12310445E+04</rscale>
<asrwt>0</asrwt>
<pdfrwt beam="1">  1        1 0.17923299E+00 0.12765167E+04</pdfrwt>
<pdfrwt beam="2">  1       -1 0.19471304E+00 0.12765167E+04</pdfrwt>
<totfact> 0.18052041E+00</totfact>
</mgrwt>
</event>
<event>
 4    1  0.2514307E-008  0.7399194E+03  0.7818608E-02  0.9860182E-01
         -1   -1    0    0    0  501 -0.00000000000E+00  0.00000000000E+00  0.99836615267E+03  0.99836615268E+03  0.50400000000E-02 0.  1.
          1   -1    0    0  501    0  0.00000000000E+00 -0.00000000000E+00 -0.12661882982E+04  0.12661882982E+04  0.50400000000E-02 0. -1.
    8880023    1    1    2    0    0  0.12251575542E+03  0.31410241757E+03  0.82649280911E+03  0.11093110514E+04  0.65864270000E+03 0.  1.
    8880022    1    1    2    0    0 -0.12251575542E+03 -0.31410241757E+03 -0.10943149546E+04  0.11552433995E+04  0.15294330000E+03 0.  0.
<mgrwt>
<rscale>  0 0.62230452E+03</rscale>
<asrwt>0</asrwt>
<pdfrwt beam="1">  1        1 0.19479820E+00 0.73991935E+03</pdfrwt>
<pdfrwt beam="2">  1       -1 0.15359479E+00 0.73991935E+03</pdfrwt>
<totfact> 0.32654140E+00</totfact>
</mgrwt>
</event>
<event>
 4    1  0.2514307E-008  0.6833374E+03  0.7818608E-02  0.1007495E+00
          1   -1    0    0  501    0  0.00000000000E+00  0.00000000000E+00  0.14393646423E+04  0.14393646423E+04  0.50400000000E-02 0. -1.
         -1   -1    0    0    0  501 -0.00000000000E+00 -0.00000000000E+00 -0.20316344186E+03  0.20316344192E+03  0.50400000000E-02 0.  1.
    8880023    1    1    2    0    0 -0.17097476499E+03  0.62509594226E+02  0.44278757961E+03  0.81425479216E+03  0.65864270000E+03 0.  1.
    8880022    1    1    2    0    0  0.17097476499E+03 -0.62509594226E+02  0.79341362083E+03  0.82827329208E+03  0.15294330000E+03 0.  0.
<mgrwt>
<rscale>  0 0.52482279E+03</rscale>
<asrwt>0</asrwt>
<pdfrwt beam="1">  1        1 0.22144072E+00 0.68333742E+03</pdfrwt>
<pdfrwt beam="2">  1       -1 0.31255914E-01 0.68333742E+03</pdfrwt>
<totfact> 0.70612823E+01</totfact>
</mgrwt>
</event>
<event>
 4    1  0.2514307E-008  0.7856082E+03  0.7818608E-02  0.9742824E-01
         -1   -1    0    0    0  501 -0.00000000000E+00  0.00000000000E+00  0.13046211348E+04  0.13046211348E+04  0.50400000000E-02 0.  1.
          1   -1    0    0  501    0  0.00000000000E+00 -0.00000000000E+00 -0.97363773644E+03  0.97363773645E+03  0.50400000000E-02 0. -1.
    8880023    1    1    2    0    0  0.39448105810E+03  0.16659749146E+03  0.11197256966E+04  0.13678325451E+04  0.65864270000E+03 0.  0.
    8880022    1    1    2    0    0 -0.39448105810E+03 -0.16659749146E+03 -0.78874229826E+03  0.91042632620E+03  0.15294330000E+03 0.  0.
<mgrwt>
<rscale>  0 0.68523299E+03</rscale>
<asrwt>0</asrwt>
<pdfrwt beam="1">  1        1 0.14979042E+00 0.78560819E+03</pdfrwt>
<pdfrwt beam="2">  1       -1 0.20071094E+00 0.78560819E+03</pdfrwt>
<totfact> 0.24469268E+00</totfact>
</mgrwt>
</event>
<event>
 4    1  0.2514307E-008  0.1178999E+04  0.7818608E-02  0.9177812E-01
          1   -1    0    0  501    0  0.00000000000E+00  0.00000000000E+00  0.13580841094E+04  0.13580841094E+04  0.50400000000E-02 0. -1.
         -1   -1    0    0    0  501 -0.00000000000E+00 -0.00000000000E+00 -0.98600967699E+03  0.98600967700E+03  0.50400000000E-02 0.  1.
    8880023    1    1    2    0    0 -0.22165849426E+03 -0.95241530891E+03 -0.20751645037E+03  0.11971218368E+04  0.65864270000E+03 0.  1.
    8880022    1    1    2    0    0  0.22165849426E+03  0.95241530891E+03  0.57959088275E+03  0.11469719496E+04  0.15294330000E+03 0.  0.
<mgrwt>
<rscale>  0 0.11285404E+04</rscale>
<asrwt>0</asrwt>
<pdfrwt beam="1">  1        1 0.20893602E+00 0.11789986E+04</pdfrwt>
<pdfrwt beam="2">  1       -1 0.15169380E+00 0.11789986E+04</pdfrwt>
<totfact> 0.27367895E+00</totfact>
</mgrwt>
</event>
<event>
 4    1  0.2514307E-008  0.6740530E+03  0.7818608E-02  0.1012910E+00
         -1   -1    0    0    0  501 -0.00000000000E+00  0.00000000000E+00  0.27687186854E+03  0.27687186858E+03  0.50400000000E-02 0.  1.
          1   -1    0    0  501    0  0.00000000000E+00 -0.00000000000E+00 -0.76243521047E+03  0.76243521049E+03  0.50400000000E-02 0. -1.
    8880023    1    1    2    0    0 -0.14115637010E+03 -0.24741129756E+02 -0.23776895027E+03  0.71475976684E+03  0.65864270000E+03 0.  0.
    8880022    1    1    2    0    0  0.14115637010E+03  0.24741129756E+02 -0.24779439166E+03  0.32454731223E+03  0.15294330000E+03 0.  0.
<mgrwt>
<rscale>  0 0.50334334E+03</rscale>
<asrwt>0</asrwt>
<pdfrwt beam="1">  1        1 0.11729772E+00 0.67405300E+03</pdfrwt>
<pdfrwt beam="2">  1       -1 0.42595672E-01 0.67405300E+03</pdfrwt>
<totfact> 0.13231769E+02</totfact>
</mgrwt>
</event>
<event>
 4    1  0.2514307E-008  0.9509975E+03  0.7818608E-02  0.9448680E-01
         -1   -1    0    0    0  501 -0.00000000000E+00  0.00000000000E+00  0.11436119174E+04  0.11436119174E+04  0.50400000000E-02 0.  1.
          1   -1    0    0  501    0  0.00000000000E+00 -0.00000000000E+00 -0.82175334181E+03  0.82175334182E+03  0.50400000000E-02 0. -1.
    8880023    1    1    2    0    0  0.68397396523E+03  0.52589556442E+02 -0.33014660888E+03  0.10066742453E+04  0.65864270000E+03 0.  0.
    8880022    1    1    2    0    0 -0.68397396523E+03 -0.52589556442E+02  0.65200518445E+03  0.95869101389E+03  0.15294330000E+03 0.  0.
<mgrwt>
<rscale>  0 0.88175504E+03</rscale>
<asrwt>0</asrwt>
<pdfrwt beam="1">  1        1 0.12642359E+00 0.95099750E+03</pdfrwt>
<pdfrwt beam="2">  1       -1 0.17594029E+00 0.95099750E+03</pdfrwt>
<totfact> 0.47542861E+00</totfact>
</mgrwt>
</event>
<event>
 4    1  0.2514307E-008  0.1892686E+04  0.7818608E-02  0.8672927E-01
          1   -1    0    0  501    0  0.00000000000E+00  0.00000000000E+00  0.14613080638E+04  0.14613080638E+04  0.50400000000E-02 0. -1.
         -1   -1    0    0    0  501 -0.00000000000E+00 -0.00000000000E+00 -0.24222043422E+04  0.24222043423E+04  0.50400000000E-02 0.  1.
    8880023    1    1    2    0    0  0.16432288146E+04 -0.66951495905E+03 -0.91425898571E+03  0.21019350410E+04  0.65864270000E+03 0.  0.
    8880022    1    1    2    0    0 -0.16432288146E+04  0.66951495905E+03 -0.46637292704E+02  0.17815773650E+04  0.15294330000E+03 0.  0.
<mgrwt>
<rscale>  0 0.18641160E+04</rscale>
<asrwt>0</asrwt>
<pdfrwt beam="1">  1        1 0.22481663E+00 0.18926863E+04</pdfrwt>
<pdfrwt beam="2">  1       -1 0.37264682E+00 0.18926863E+04</pdfrwt>
<totfact> 0.69142463E-02</totfact>
</mgrwt>
</event>
<event>
 4    1  0.2514307E-008  0.1723821E+04  0.7818608E-02  0.8765889E-01
         -1   -1    0    0    0  501 -0.00000000000E+00  0.00000000000E+00  0.79993762947E+03  0.79993762949E+03  0.50400000000E-02 0.  1.
          1   -1    0    0  501    0  0.00000000000E+00 -0.00000000000E+00 -0.43316447450E+04  0.43316447450E+04  0.50400000000E-02 0. -1.
    8880023    1    1    2    0    0  0.13591350456E+04  0.83096440896E+03 -0.66348637770E+03  0.18470988877E+04  0.65864270000E+03 0.  0.
    8880022    1    1    2    0    0 -0.13591350456E+04 -0.83096440896E+03 -0.28682207378E+04  0.32844834868E+04  0.15294330000E+03 0.  0.
<mgrwt>
<rscale>  0 0.16920897E+04</rscale>
<asrwt>0</asrwt>
<pdfrwt beam="1">  1        1 0.66640687E+00 0.17238214E+04</pdfrwt>
<pdfrwt beam="2">  1       -1 0.12306733E+00 0.17238214E+04</pdfrwt>
<totfact> 0.25983035E-02</totfact>
</mgrwt>
</event>
<event>
 4    1  0.2514307E-008  0.8498316E+03  0.7818608E-02  0.9611913E-01
         -1   -1    0    0    0  501 -0.00000000000E+00  0.00000000000E+00  0.30192509086E+03  0.30192509090E+03  0.50400000000E-02 0.  1.
          1   -1    0    0  501    0  0.00000000000E+00 -0.00000000000E+00 -0.34208088693E+04  0.34208088693E+04  0.50400000000E-02 0. -1.
    8880023    1    1    2    0    0  0.17948586368E+03 -0.50615059491E+03 -0.38599623131E+03  0.93338464571E+03  0.65864270000E+03 0.  0.
    8880022    1    1    2    0    0 -0.17948586368E+03  0.50615059491E+03 -0.27328875471E+04  0.27893493145E+04  0.15294330000E+03 0.  0.
<mgrwt>
<rscale>  0 0.76512670E+03</rscale>
<asrwt>0</asrwt>
<pdfrwt beam="1">  1        1 0.52627826E+00 0.84983163E+03</pdfrwt>
<pdfrwt beam="2">  1       -1 0.46450016E-01 0.84983163E+03</pdfrwt>
<totfact> 0.14163879E+00</totfact>
</mgrwt>
</event>
<event>
 4    1  0.2514307E-008  0.1319668E+04  0.7818608E-02  0.9048759E-01
         -1   -1    0    0    0  501 -0.00000000000E+00  0.00000000000E+00  0.10373988019E+04  0.10373988019E+04  0.50400000000E-02 0.  1.
          1   -1    0    0  501    0  0.00000000000E+00 -0.00000000000E+00 -0.19259569964E+04  0.19259569964E+04  0.50400000000E-02 0. -1.
    8880023    1    1    2    0    0 -0.22273332682E+03 -0.11216523224E+04  0.24919393239E+03  0.13429899067E+04  0.65864270000E+03 0.  0.
    8880022    1    1    2    0    0  0.22273332682E+03  0.11216523224E+04 -0.11377521269E+04  0.16203658916E+04  0.15294330000E+03 0.  0.
<mgrwt>
<rscale>  0 0.12760719E+04</rscale>
<asrwt>0</asrwt>
<pdfrwt beam="1">  1        1 0.29630108E+00 0.13196682E+04</pdfrwt>
<pdfrwt beam="2">  1       -1 0.15959982E+00 0.13196682E+04</pdfrwt>
<totfact> 0.95284137E-01</totfact>
</mgrwt>
</event>
<event>
 4    1  0.2514307E-008  0.6672076E+03  0.7818608E-02  0.1017749E+00
         -1   -1    0    0    0  501 -0.00000000000E+00  0.00000000000E+00  0.14530881505E+04  0.14530881505E+04  0.50400000000E-02 0.  1.
          1   -1    0    0  501    0  0.00000000000E+00 -0.00000000000E+00 -0.80283469415E+03  0.80283469416E+03  0.50400000000E-02 0. -1.
    8880023    1    1    2    0    0  0.44772225819E+02 -0.96701861970E+02  0.13638904243E+04  0.15183422204E+04  0.65864270000E+03 0.  1.
    8880022    1    1    2    0    0 -0.44772225819E+02  0.96701861970E+02 -0.71363696796E+03  0.73758062432E+03  0.15294330000E+03 0.  0.
<mgrwt>
<rscale>  0 0.48507749E+03</rscale>
<asrwt>0</asrwt>
<pdfrwt beam="1">  1        1 0.12351303E+00 0.66720762E+03</pdfrwt>
<pdfrwt beam="2">  1       -1 0.22355202E+00 0.66720762E+03</pdfrwt>
<totfact> 0.24251672E+00</totfact>
</mgrwt>
</event>
<event>
 4    1  0.2514307E-008  0.1133458E+04  0.7818608E-02  0.9224688E-01
          1   -1    0    0  501    0  0.00000000000E+00  0.00000000000E+00  0.18481909172E+04  0.18481909172E+04  0.50400000000E-02 0. -1.
         -1   -1    0    0    0  501 -0.00000000000E+00 -0.00000000000E+00 -0.16309727079E+04  0.16309727079E+04  0.50400000000E-02 0.  1.
    8880023    1    1    2    0    0  0.89846332746E+03  0.20899830201E+03 -0.12826524281E+04  0.17117021057E+04  0.65864270000E+03 0.  0.
    8880022    1    1    2    0    0 -0.89846332746E+03 -0.20899830201E+03  0.14998706374E+04  0.17674615195E+04  0.15294330000E+03 0. -1.
<mgrwt>
<rscale>  0 0.10802198E+04</rscale>
<asrwt>0</asrwt>
<pdfrwt beam="1">  1        1 0.28433706E+00 0.11334579E+04</pdfrwt>
<pdfrwt beam="2">  1       -1 0.25091888E+00 0.11334579E+04</pdfrwt>
<totfact> 0.25776603E-01</totfact>
</mgrwt>
</event>
<event>
 4    1  0.2514307E-008  0.8551916E+03  0.7818608E-02  0.9602175E-01
          1   -1    0    0  501    0  0.00000000000E+00  0.00000000000E+00  0.25862926569E+04  0.25862926569E+04  0.50400000000E-02 0. -1.
         -1   -1    0    0    0  501 -0.00000000000E+00 -0.00000000000E+00 -0.88793960532E+03  0.88793960534E+03  0.50400000000E-02 0.  1.
    8880023    1    1    2    0    0  0.11008034979E+03 -0.53425153371E+03 -0.64005084879E+03  0.10681842912E+04  0.65864270000E+03 0.  1.
    8880022    1    1    2    0    0 -0.11008034979E+03  0.53425153371E+03  0.23384039003E+04  0.24060479710E+04  0.15294330000E+03 0.  0.
<mgrwt>
<rscale>  0 0.77152415E+03</rscale>
<asrwt>0</asrwt>
<pdfrwt beam="1">  1        1 0.39789118E+00 0.85519155E+03</pdfrwt>
<pdfrwt beam="2">  1       -1 0.13660609E+00 0.85519155E+03</pdfrwt>
<totfact> 0.55237072E-01</totfact>
</mgrwt>
</event>
<event>
 4    1  0.2514307E-008  0.1418414E+04  0.7818608E-02  0.8969505E-01
         -1   -1    0    0    0  501 -0.00000000000E+00  0.00000000000E+00  0.15506042110E+04  0.15506042110E+04  0.50400000000E-02 0.  1.
          1   -1    0    0  501    0  0.00000000000E+00 -0.00000000000E+00 -0.27475881396E+04  0.27475881396E+04  0.50400000000E-02 0. -1.
    8880023    1    1    2    0    0 -0.11158374944E+04 -0.57705650270E+03  0.10188751648E+04  0.17464261591E+04  0.65864270000E+03 0.  0.
    8880022    1    1    2    0    0  0.11158374944E+04  0.57705650270E+03 -0.22158590935E+04  0.25517661916E+04  0.15294330000E+03 0.  0.
<mgrwt>
<rscale>  0 0.13785337E+04</rscale>
<asrwt>0</asrwt>
<pdfrwt beam="1">  1        1 0.42270587E+00 0.14184138E+04</pdfrwt>
<pdfrwt beam="2">  1       -1 0.23855449E+00 0.14184138E+04</pdfrwt>
<totfact> 0.71909139E-02</totfact>
</mgrwt>
</event>
<event>
 4    1  0.2514307E-008  0.9472358E+03  0.7818608E-02  0.9454102E-01
          1   -1    0    0  501    0  0.00000000000E+00  0.00000000000E+00  0.18463267850E+04  0.18463267851E+04  0.50400000000E-02 0. -1.
         -1   -1    0    0    0  501 -0.00000000000E+00 -0.00000000000E+00 -0.38389068331E+03  0.38389068334E+03  0.50400000000E-02 0.  1.
    8880023    1    1    2    0    0  0.59625718106E+03  0.32851624009E+03  0.10725006624E+04  0.14309134925E+04  0.65864270000E+03 0.  0.
    8880022    1    1    2    0    0 -0.59625718106E+03 -0.32851624009E+03  0.38993543931E+03  0.79930397585E+03  0.15294330000E+03 0.  0.
<mgrwt>
<rscale>  0 0.87753928E+03</rscale>
<asrwt>0</asrwt>
<pdfrwt beam="1">  1        1 0.28405027E+00 0.94723585E+03</pdfrwt>
<pdfrwt beam="2">  1       -1 0.59060106E-01 0.94723585E+03</pdfrwt>
<totfact> 0.11181964E+01</totfact>
</mgrwt>
</event>
<event>
 4    1  0.2514307E-008  0.1277509E+04  0.7818608E-02  0.9085230E-01
         -1   -1    0    0    0  501 -0.00000000000E+00  0.00000000000E+00  0.13444321788E+04  0.13444321788E+04  0.50400000000E-02 0.  1.
          1   -1    0    0  501    0  0.00000000000E+00 -0.00000000000E+00 -0.21722834179E+04  0.21722834179E+04  0.50400000000E-02 0. -1.
    8880023    1    1    2    0    0  0.96081806475E+03 -0.52444945313E+03  0.83054459042E+03  0.15237562487E+04  0.65864270000E+03 0.  1.
    8880022    1    1    2    0    0 -0.96081806475E+03  0.52444945313E+03 -0.16583958296E+04  0.19929593480E+04  0.15294330000E+03 0.  0.
<mgrwt>
<rscale>  0 0.12320817E+04</rscale>
<asrwt>0</asrwt>
<pdfrwt beam="1">  1        1 0.33419745E+00 0.12775088E+04</pdfrwt>
<pdfrwt beam="2">  1       -1 0.20683572E+00 0.12775088E+04</pdfrwt>
<totfact> 0.29876817E-01</totfact>
</mgrwt>
</event>
<event>
 4    1  0.2514307E-008  0.1281919E+04  0.7818608E-02  0.9081334E-01
         -1   -1    0    0    0  501 -0.00000000000E+00  0.00000000000E+00  0.12789617270E+04  0.12789617270E+04  0.50400000000E-02 0.  1.
          1   -1    0    0  501    0  0.00000000000E+00 -0.00000000000E+00 -0.15874326838E+04  0.15874326838E+04  0.50400000000E-02 0. -1.
    8880023    1    1    2    0    0  0.16308767269E+03 -0.10876155849E+04  0.61536544779E+03  0.14219669793E+04  0.65864270000E+03 0.  0.
    8880022    1    1    2    0    0 -0.16308767269E+03  0.10876155849E+04 -0.92383640464E+03  0.14444274316E+04  0.15294330000E+03 0.  0.
<mgrwt>
<rscale>  0 0.12366910E+04</rscale>
<asrwt>0</asrwt>
<pdfrwt beam="1">  1        1 0.24422041E+00 0.12819187E+04</pdfrwt>
<pdfrwt beam="2">  1       -1 0.19676334E+00 0.12819187E+04</pdfrwt>
<totfact> 0.87515783E-01</totfact>
</mgrwt>
</event>
<event>
 4    1  0.2514307E-008  0.9456670E+03  0.7818608E-02  0.9456376E-01
         -1   -1    0    0    0  501 -0.00000000000E+00  0.00000000000E+00  0.44199662474E+03  0.44199662477E+03  0.50400000000E-02 0.  1.
          1   -1    0    0  501    0  0.00000000000E+00 -0.00000000000E+00 -0.17369727010E+04  0.17369727010E+04  0.50400000000E-02 0. -1.
    8880023    1    1    2    0    0 -0.18424688547E+03 -0.65309182207E+03 -0.11119293137E+04  0.14596824476E+04  0.65864270000E+03 0.  0.
    8880022    1    1    2    0    0  0.18424688547E+03  0.65309182207E+03 -0.18304676258E+03  0.71928687821E+03  0.15294330000E+03 0.  0.
<mgrwt>
<rscale>  0 0.87577890E+03</rscale>
<asrwt>0</asrwt>
<pdfrwt beam="1">  1        1 0.26722657E+00 0.94566699E+03</pdfrwt>
<pdfrwt beam="2">  1       -1 0.67999482E-01 0.94566699E+03</pdfrwt>
<totfact> 0.99906489E+00</totfact>
</mgrwt>
</event>
<event>
 4    1  0.2514307E-008  0.1449723E+04  0.7818608E-02  0.8945979E-01
         -1   -1    0    0    0  501 -0.00000000000E+00  0.00000000000E+00  0.19722033301E+04  0.19722033301E+04  0.50400000000E-02 0.  1.
          1   -1    0    0  501    0  0.00000000000E+00 -0.00000000000E+00 -0.14827026002E+04  0.14827026002E+04  0.50400000000E-02 0. -1.
    8880023    1    1    2    0    0  0.35571508831E+02 -0.12909772106E+04  0.12792179768E+04  0.19334157155E+04  0.65864270000E+03 0.  0.
    8880022    1    1    2    0    0 -0.35571508831E+02  0.12909772106E+04 -0.78971724689E+03  0.15214902148E+04  0.15294330000E+03 0.  0.
<mgrwt>
<rscale>  0 0.14108822E+04</rscale>
<asrwt>0</asrwt>
<pdfrwt beam="1">  1        1 0.22810809E+00 0.14497233E+04</pdfrwt>
<pdfrwt beam="2">  1       -1 0.30341590E+00 0.14497233E+04</pdfrwt>
<totfact> 0.20084042E-01</totfact>
</mgrwt>
</event>
<event>
 4    1  0.2514307E-008  0.1460076E+04  0.7818608E-02  0.8938355E-01
         -1   -1    0    0    0  501 -0.00000000000E+00  0.00000000000E+00  0.18798465513E+04  0.18798465513E+04  0.50400000000E-02 0.  1.
          1   -1    0    0  501    0  0.00000000000E+00 -0.00000000000E+00 -0.20485617484E+04  0.20485617484E+04  0.50400000000E-02 0. -1.
    8880023    1    1    2    0    0  0.80645574957E+03 -0.10235431402E+04  0.13028782368E+04  0.19568631383E+04  0.65864270000E+03 0.  0.
    8880022    1    1    2    0    0 -0.80645574957E+03  0.10235431402E+04 -0.14715934339E+04  0.19715451614E+04  0.15294330000E+03 0.  0.
<mgrwt>
<rscale>  0 0.14215656E+04</rscale>
<asrwt>0</asrwt>
<pdfrwt beam="1">  1        1 0.31516335E+00 0.14600759E+04</pdfrwt>
<pdfrwt beam="2">  1       -1 0.28920716E+00 0.14600759E+04</pdfrwt>
<totfact> 0.10160566E-01</totfact>
</mgrwt>
</event>
<event>
 4    1  0.2514307E-008  0.8928308E+03  0.7818608E-02  0.9537640E-01
          1   -1    0    0  501    0  0.00000000000E+00  0.00000000000E+00  0.77533396521E+03  0.77533396523E+03  0.50400000000E-02 0. -1.
         -1   -1    0    0    0  501 -0.00000000000E+00 -0.00000000000E+00 -0.15573956864E+04  0.15573956864E+04  0.50400000000E-02 0.  1.
    8880023    1    1    2    0    0  0.25744955504E+03  0.54502874653E+03 -0.12629086960E+04  0.15466367346E+04  0.65864270000E+03 0.  0.
    8880022    1    1    2    0    0 -0.25744955504E+03 -0.54502874653E+03  0.48084697488E+03  0.78609291703E+03  0.15294330000E+03 0.  0.
<mgrwt>
<rscale>  0 0.81564768E+03</rscale>
<asrwt>0</asrwt>
<pdfrwt beam="1">  1        1 0.11928215E+00 0.89283079E+03</pdfrwt>
<pdfrwt beam="2">  1       -1 0.23959934E+00 0.89283079E+03</pdfrwt>
<totfact> 0.19374196E+00</totfact>
</mgrwt>
</event>
<event>
 4    1  0.2514307E-008  0.2556753E+04  0.7818608E-02  0.8390232E-01
         -1   -1    0    0    0  501 -0.00000000000E+00  0.00000000000E+00  0.26576176933E+04  0.26576176933E+04  0.50400000000E-02 0.  1.
          1   -1    0    0  501    0  0.00000000000E+00 -0.00000000000E+00 -0.39090508056E+04  0.39090508056E+04  0.50400000000E-02 0. -1.
    8880023    1    1    2    0    0 -0.14178927345E+03  0.24663882510E+04  0.14201595055E+04  0.29246945875E+04  0.65864270000E+03 0.  0.
    8880022    1    1    2    0    0  0.14178927345E+03 -0.24663882510E+04 -0.26715926177E+04  0.36419739114E+04  0.15294330000E+03 0.  0.
<mgrwt>
<rscale>  0 0.25361137E+04</rscale>
<asrwt>0</asrwt>
<pdfrwt beam="1">  1        1 0.60139243E+00 0.25567529E+04</pdfrwt>
<pdfrwt beam="2">  1       -1 0.40886426E+00 0.25567529E+04</pdfrwt>
<totfact> 0.58925873E-04</totfact>
</mgrwt>
</event>
<event>
 4    1  0.2514307E-008  0.9840224E+03  0.7818608E-02  0.9402766E-01
          1   -1    0    0  501    0  0.00000000000E+00  0.00000000000E+00  0.24875534559E+04  0.24875534559E+04  0.50400000000E-02 0. -1.
         -1   -1    0    0    0  501 -0.00000000000E+00 -0.00000000000E+00 -0.44163111967E+03  0.44163111970E+03  0.50400000000E-02 0.  1.
    8880023    1    1    2    0    0  0.44153038059E+03 -0.58270137868E+03  0.29766735323E+03  0.10280593529E+04  0.65864270000E+03 0.  1.
    8880022    1    1    2    0    0 -0.44153038059E+03  0.58270137868E+03  0.17482549830E+04  0.19011252227E+04  0.15294330000E+03 0.  0.
<mgrwt>
<rscale>  0 0.91848382E+03</rscale>
<asrwt>0</asrwt>
<pdfrwt beam="1">  1        1 0.38270053E+00 0.98402245E+03</pdfrwt>
<pdfrwt beam="2">  1       -1 0.67943250E-01 0.98402245E+03</pdfrwt>
<totfact> 0.30946531E+00</totfact>
</mgrwt>
</event>
<event>
 4    1  0.2514307E-008  0.9160830E+03  0.7818608E-02  0.9500691E-01
          1   -1    0    0  501    0  0.00000000000E+00  0.00000000000E+00  0.13547327124E+04  0.13547327124E+04  0.50400000000E-02 0. -1.
         -1   -1    0    0    0  501 -0.00000000000E+00 -0.00000000000E+00 -0.11548945411E+04  0.11548945411E+04  0.50400000000E-02 0.  1.
    8880023    1    1    2    0    0 -0.63431484237E+02 -0.63354113427E+03 -0.86475655672E+03  0.12597666572E+04  0.65864270000E+03 0.  1.
    8880022    1    1    2    0    0  0.63431484237E+02  0.63354113427E+03  0.10645947281E+04  0.12498605963E+04  0.15294330000E+03 0.  0.
<mgrwt>
<rscale>  0 0.84232882E+03</rscale>
<asrwt>0</asrwt>
<pdfrwt beam="1">  1        1 0.20842042E+00 0.91608304E+03</pdfrwt>
<pdfrwt beam="2">  1       -1 0.17767608E+00 0.91608304E+03</pdfrwt>
<totfact> 0.18197413E+00</totfact>
</mgrwt>
</event>
<event>
 4    1  0.2514307E-008  0.1208350E+04  0.7818608E-02  0.9149048E-01
         -1   -1    0    0    0  501 -0.00000000000E+00  0.00000000000E+00  0.13003506166E+04  0.13003506166E+04  0.50400000000E-02 0.  1.
          1   -1    0    0  501    0  0.00000000000E+00 -0.00000000000E+00 -0.13391184279E+04  0.13391184279E+04  0.50400000000E-02 0. -1.
    8880023    1    1    2    0    0  0.92625129945E+03 -0.41031437452E+03  0.68131099139E+03  0.13871893270E+04  0.65864270000E+03 0.  0.
    8880022    1    1    2    0    0 -0.92625129945E+03  0.41031437452E+03 -0.72007880273E+03  0.12522797175E+04  0.15294330000E+03 0.  0.
<mgrwt>
<rscale>  0 0.11595173E+04</rscale>
<asrwt>0</asrwt>
<pdfrwt beam="1">  1        1 0.20601822E+00 0.12083499E+04</pdfrwt>
<pdfrwt beam="2">  1       -1 0.20005394E+00 0.12083499E+04</pdfrwt>
<totfact> 0.12487075E+00</totfact>
</mgrwt>
</event>
<event>
 4    1  0.2514307E-008  0.1226321E+04  0.7818608E-02  0.9131951E-01
          1   -1    0    0  501    0  0.00000000000E+00  0.00000000000E+00  0.16625712342E+04  0.16625712342E+04  0.50400000000E-02 0. -1.
         -1   -1    0    0    0  501 -0.00000000000E+00 -0.00000000000E+00 -0.12614224404E+04  0.12614224405E+04  0.50400000000E-02 0.  1.
    8880023    1    1    2    0    0 -0.29731208964E+03 -0.99078721696E+03 -0.69459021821E+03  0.14093684988E+04  0.65864270000E+03 0.  1.
    8880022    1    1    2    0    0  0.29731208964E+03  0.99078721696E+03  0.10957390119E+04  0.15146251758E+04  0.15294330000E+03 0.  0.
<mgrwt>
<rscale>  0 0.11784275E+04</rscale>
<asrwt>0</asrwt>
<pdfrwt beam="1">  1        1 0.25578019E+00 0.12263213E+04</pdfrwt>
<pdfrwt beam="2">  1       -1 0.19406499E+00 0.12263213E+04</pdfrwt>
<totfact> 0.81722146E-01</totfact>
</mgrwt>
</event>
<event>
 4    1  0.2514307E-008  0.1105638E+04  0.7818608E-02  0.9254805E-01
         -1   -1    0    0    0  501 -0.00000000000E+00  0.00000000000E+00  0.57289998983E+03  0.57289998985E+03  0.50400000000E-02 0.  1.
          1   -1    0    0  501    0  0.00000000000E+00 -0.00000000000E+00 -0.20393816952E+04  0.20393816952E+04  0.50400000000E-02 0. -1.
    8880023    1    1    2    0    0 -0.50552508481E+02  0.88660569667E+03 -0.31406305625E+03  0.11493785395E+04  0.65864270000E+03 0.  0.
    8880022    1    1    2    0    0  0.50552508481E+02 -0.88660569667E+03 -0.11524186492E+04  0.14629031456E+04  0.15294330000E+03 0.  0.
<mgrwt>
<rscale>  0 0.10505225E+04</rscale>
<asrwt>0</asrwt>
<pdfrwt beam="1">  1        1 0.31375103E+00 0.11056380E+04</pdfrwt>
<pdfrwt beam="2">  1       -1 0.88138461E-01 0.11056380E+04</pdfrwt>
<totfact> 0.35381849E+00</totfact>
</mgrwt>
</event>
<event>
 4    1  0.2514307E-008  0.1274374E+04  0.7818608E-02  0.9088011E-01
         -1   -1    0    0    0  501 -0.00000000000E+00  0.00000000000E+00  0.10965218440E+04  0.10965218440E+04  0.50400000000E-02 0.  1.
          1   -1    0    0  501    0  0.00000000000E+00 -0.00000000000E+00 -0.21082375475E+04  0.21082375475E+04  0.50400000000E-02 0. -1.
    8880023    1    1    2    0    0  0.75334391962E+03 -0.78910890761E+03  0.47009090073E+03  0.13583135097E+04  0.65864270000E+03 0.  1.
    8880022    1    1    2    0    0 -0.75334391962E+03  0.78910890761E+03 -0.14818066042E+04  0.18464458818E+04  0.15294330000E+03 0.  0.
<mgrwt>
<rscale>  0 0.12288044E+04</rscale>
<asrwt>0</asrwt>
<pdfrwt beam="1">  1        1 0.32434424E+00 0.12743744E+04</pdfrwt>
<pdfrwt beam="2">  1       -1 0.16869567E+00 0.12743744E+04</pdfrwt>
<totfact> 0.61591409E-01</totfact>
</mgrwt>
</event>
<event>
 4    1  0.2626309E-008  0.8495939E+03  0.7818608E-02  0.9612349E-01
         -1   -1    0    0    0  501 -0.00000000000E+00  0.00000000000E+00  0.97770678431E+03  0.97770678433E+03  0.50400000000E-02 0.  1.
          1   -1    0    0  501    0  0.00000000000E+00 -0.00000000000E+00 -0.20568740547E+04  0.20568740547E+04  0.50400000000E-02 0. -1.
    8880023    1    1    2    0    0 -0.41518677382E+03 -0.34002870719E+03  0.74314204340E+03  0.11287470407E+04  0.65864270000E+03 0.  0.
    8880022    1    1    2    0    0  0.41518677382E+03  0.34002870719E+03 -0.18223093137E+04  0.19058337983E+04  0.15294330000E+03 0.  0.
<mgrwt>
<rscale>  0 0.76484219E+03</rscale>
<asrwt>0</asrwt>
<pdfrwt beam="1">  1        1 0.31644216E+00 0.84959389E+03</pdfrwt>
<pdfrwt beam="2">  1       -1 0.15041643E+00 0.84959389E+03</pdfrwt>
<totfact> 0.98043372E-01</totfact>
</mgrwt>
</event>
<event>
 4    1  0.2514307E-008  0.8648998E+03  0.7818608E-02  0.9584906E-01
          1   -1    0    0  501    0  0.00000000000E+00  0.00000000000E+00  0.26344726449E+04  0.26344726449E+04  0.50400000000E-02 0. -1.
         -1   -1    0    0    0  501 -0.00000000000E+00 -0.00000000000E+00 -0.31199206175E+03  0.31199206179E+03  0.50400000000E-02 0.  1.
    8880023    1    1    2    0    0 -0.55597911147E+03 -0.71615203612E+02  0.42825087901E+03  0.96511684858E+03  0.65864270000E+03 0.  0.
    8880022    1    1    2    0    0  0.55597911147E+03  0.71615203612E+02  0.18942297042E+04  0.19813478581E+04  0.15294330000E+03 0.  1.
<mgrwt>
<rscale>  0 0.78303288E+03</rscale>
<asrwt>0</asrwt>
<pdfrwt beam="1">  1        1 0.40530349E+00 0.86489983E+03</pdfrwt>
<pdfrwt beam="2">  1       -1 0.47998778E-01 0.86489983E+03</pdfrwt>
<totfact> 0.49268064E+00</totfact>
</mgrwt>
</event>
<event>
 4    1  0.2514307E-008  0.7423450E+03  0.7818608E-02  0.9853168E-01
         -1   -1    0    0    0  501 -0.00000000000E+00  0.00000000000E+00  0.52581255152E+03  0.52581255154E+03  0.50400000000E-02 0.  1.
          1   -1    0    0  501    0  0.00000000000E+00 -0.00000000000E+00 -0.14857341733E+04  0.14857341733E+04  0.50400000000E-02 0. -1.
    8880023    1    1    2    0    0 -0.32441071659E+03  0.10965221932E+03  0.21934987644E+03  0.77407396080E+03  0.65864270000E+03 0.  1.
    8880022    1    1    2    0    0  0.32441071659E+03 -0.10965221932E+03 -0.11792714982E+04  0.12374727640E+04  0.15294330000E+03 0.  0.
<mgrwt>
<rscale>  0 0.62585646E+03</rscale>
<asrwt>0</asrwt>
<pdfrwt beam="1">  1        1 0.22857449E+00 0.74234502E+03</pdfrwt>
<pdfrwt beam="2">  1       -1 0.80894239E-01 0.74234502E+03</pdfrwt>
<totfact> 0.10593749E+01</totfact>
</mgrwt>
</event>
<event>
 4    1  0.2514307E-008  0.6612118E+03  0.7818608E-02  0.1022948E+00
         -1   -1    0    0    0  501 -0.00000000000E+00  0.00000000000E+00  0.19583114089E+03  0.19583114095E+03  0.50400000000E-02 0.  1.
          1   -1    0    0  501    0  0.00000000000E+00 -0.00000000000E+00 -0.15869521355E+04  0.15869521355E+04  0.50400000000E-02 0. -1.
    8880023    1    1    2    0    0  0.12029086035E+02  0.56974951223E+02 -0.38850969793E+03  0.76690340697E+03  0.65864270000E+03 0.  1.
    8880022    1    1    2    0    0 -0.12029086035E+02 -0.56974951223E+02 -0.10026112967E+04  0.10158798695E+04  0.15294330000E+03 0.  0.
<mgrwt>
<rscale>  0 0.46637669E+03</rscale>
<asrwt>0</asrwt>
<pdfrwt beam="1">  1        1 0.24414647E+00 0.66121180E+03</pdfrwt>
<pdfrwt beam="2">  1       -1 0.30127869E-01 0.66121180E+03</pdfrwt>
<totfact> 0.59871311E+01</totfact>
</mgrwt>
</event>
<event>
 4    1  0.2514307E-008  0.1340888E+04  0.7818608E-02  0.9031031E-01
         -1   -1    0    0    0  501 -0.00000000000E+00  0.00000000000E+00  0.15552156806E+04  0.15552156806E+04  0.50400000000E-02 0.  1.
          1   -1    0    0  501    0  0.00000000000E+00 -0.00000000000E+00 -0.16729618431E+04  0.16729618431E+04  0.50400000000E-02 0. -1.
    8880023    1    1    2    0    0  0.48682752459E+03  0.10616825297E+04  0.94599964513E+03  0.16410046823E+04  0.65864270000E+03 0.  0.
    8880022    1    1    2    0    0 -0.48682752459E+03 -0.10616825297E+04 -0.10637458076E+04  0.15871728414E+04  0.15294330000E+03 0.  0.
<mgrwt>
<rscale>  0 0.12981533E+04</rscale>
<asrwt>0</asrwt>
<pdfrwt beam="1">  1        1 0.25737875E+00 0.13408882E+04</pdfrwt>
<pdfrwt beam="2">  1       -1 0.23926395E+00 0.13408882E+04</pdfrwt>
<totfact> 0.39254124E-01</totfact>
</mgrwt>
</event>
<event>
 4    1  0.2514307E-008  0.7791829E+03  0.7818608E-02  0.9757760E-01
         -1   -1    0    0    0  501 -0.00000000000E+00  0.00000000000E+00  0.14734863634E+03  0.14734863643E+03  0.50400000000E-02 0.  1.
          1   -1    0    0  501    0  0.00000000000E+00 -0.00000000000E+00 -0.25698847172E+04  0.25698847172E+04  0.50400000000E-02 0. -1.
    8880023    1    1    2    0    0 -0.37899985223E+03 -0.17226395125E+03 -0.13904791910E+04  0.15939129034E+04  0.65864270000E+03 0.  1.
    8880022    1    1    2    0    0  0.37899985223E+03  0.17226395125E+03 -0.10320568899E+04  0.11233204502E+04  0.15294330000E+03 0. -1.
<mgrwt>
<rscale>  0 0.67679500E+03</rscale>
<asrwt>0</asrwt>
<pdfrwt beam="1">  1        1 0.39536685E+00 0.77918288E+03</pdfrwt>
<pdfrwt beam="2">  1       -1 0.22669023E-01 0.77918288E+03</pdfrwt>
<totfact> 0.20937598E+01</totfact>
</mgrwt>
</event>
<event>
 4    1  0.2514307E-008  0.6930478E+03  0.7818608E-02  0.1002736E+00
          1   -1    0    0  501    0  0.00000000000E+00  0.00000000000E+00  0.81166876612E+03  0.81166876614E+03  0.50400000000E-02 0. -1.
         -1   -1    0    0    0  501 -0.00000000000E+00 -0.00000000000E+00 -0.66260135900E+03  0.66260135902E+03  0.50400000000E-02 0.  1.
    8880023    1    1    2    0    0  0.11773796542E+03  0.18067332700E+03 -0.44528566707E+03  0.82376854222E+03  0.65864270000E+03 0.  1.
    8880022    1    1    2    0    0 -0.11773796542E+03 -0.18067332700E+03  0.59435307419E+03  0.65050158294E+03  0.15294330000E+03 0.  0.
<mgrwt>
<rscale>  0 0.54466505E+03</rscale>
<asrwt>0</asrwt>
<pdfrwt beam="1">  1        1 0.12487212E+00 0.69304782E+03</pdfrwt>
<pdfrwt beam="2">  1       -1 0.10193867E+00 0.69304782E+03</pdfrwt>
<totfact> 0.20377736E+01</totfact>
</mgrwt>
</event>
<event>
 4    1  0.2514307E-008  0.1227225E+04  0.7818608E-02  0.9131101E-01
          1   -1    0    0  501    0  0.00000000000E+00  0.00000000000E+00  0.10548486997E+04  0.10548486997E+04  0.50400000000E-02 0. -1.
         -1   -1    0    0    0  501 -0.00000000000E+00 -0.00000000000E+00 -0.14461438719E+04  0.14461438719E+04  0.50400000000E-02 0.  1.
    8880023    1    1    2    0    0 -0.89415427491E+03 -0.52226452823E+03 -0.69594158839E+03  0.14108213939E+04  0.65864270000E+03 0.  0.
    8880022    1    1    2    0    0  0.89415427491E+03  0.52226452823E+03  0.30464641612E+03  0.10901711777E+04  0.15294330000E+03 0.  0.
<mgrwt>
<rscale>  0 0.11793777E+04</rscale>
<asrwt>0</asrwt>
<pdfrwt beam="1">  1        1 0.16228441E+00 0.12272255E+04</pdfrwt>
<pdfrwt beam="2">  1       -1 0.22248367E+00 0.12272255E+04</pdfrwt>
<totfact> 0.14213122E+00</totfact>
</mgrwt>
</event>
<event>
 4    1  0.2514307E-008  0.8591382E+03  0.7818608E-02  0.9595098E-01
          1   -1    0    0  501    0  0.00000000000E+00  0.00000000000E+00  0.68818856272E+03  0.68818856274E+03  0.50400000000E-02 0. -1.
         -1   -1    0    0    0  501 -0.00000000000E+00 -0.00000000000E+00 -0.21241132649E+04  0.21241132649E+04  0.50400000000E-02 0.  1.
    8880023    1    1    2    0    0  0.55147913272E+03  0.13379211232E+02 -0.18936006290E+04  0.20793849537E+04  0.65864270000E+03 0.  1.
    8880022    1    1    2    0    0 -0.55147913272E+03 -0.13379211232E+02  0.45767592684E+03  0.73291687396E+03  0.15294330000E+03 0.  0.
<mgrwt>
<rscale>  0 0.77621460E+03</rscale>
<asrwt>0</asrwt>
<pdfrwt beam="1">  1        1 0.10587516E+00 0.85913820E+03</pdfrwt>
<pdfrwt beam="2">  1       -1 0.32678665E+00 0.85913820E+03</pdfrwt>
<totfact> 0.64307494E-01</totfact>
</mgrwt>
</event>
<event>
 4    1  0.2514307E-008  0.7365395E+03  0.7818608E-02  0.9870144E-01
          1   -1    0    0  501    0  0.00000000000E+00  0.00000000000E+00  0.33937598535E+03  0.33937598539E+03  0.50400000000E-02 0. -1.
         -1   -1    0    0    0  501 -0.00000000000E+00 -0.00000000000E+00 -0.16576096056E+04  0.16576096056E+04  0.50400000000E-02 0.  1.
    8880023    1    1    2    0    0 -0.23949468747E+03  0.22654467943E+03 -0.14369093918E+04  0.16146823228E+04  0.65864270000E+03 0.  1.
    8880022    1    1    2    0    0  0.23949468747E+03 -0.22654467943E+03  0.11867577155E+03  0.38230326819E+03  0.15294330000E+03 0.  0.
<mgrwt>
<rscale>  0 0.61730288E+03</rscale>
<asrwt>0</asrwt>
<pdfrwt beam="1">  1        1 0.52211691E-01 0.73653948E+03</pdfrwt>
<pdfrwt beam="2">  1       -1 0.25501686E+00 0.73653948E+03</pdfrwt>
<totfact> 0.50250308E+00</totfact>
</mgrwt>
</event>
<event>
 4    1  0.2514307E-008  0.1151565E+04  0.7818608E-02  0.9205705E-01
          1   -1    0    0  501    0  0.00000000000E+00  0.00000000000E+00  0.17842064187E+04  0.17842064187E+04  0.50400000000E-02 0. -1.
         -1   -1    0    0    0  501 -0.00000000000E+00 -0.00000000000E+00 -0.97704023530E+03  0.97704023531E+03  0.50400000000E-02 0.  1.
    8880023    1    1    2    0    0 -0.79218297199E+03 -0.51452765087E+03 -0.40157773975E+03  0.12195767512E+04  0.65864270000E+03 0.  0.
    8880022    1    1    2    0    0  0.79218297199E+03  0.51452765087E+03  0.12087439231E+04  0.15416699029E+04  0.15294330000E+03 0.  0.
<mgrwt>
<rscale>  0 0.10994732E+04</rscale>
<asrwt>0</asrwt>
<pdfrwt beam="1">  1        1 0.27449329E+00 0.11515654E+04</pdfrwt>
<pdfrwt beam="2">  1       -1 0.15031388E+00 0.11515654E+04</pdfrwt>
<totfact> 0.14310273E+00</totfact>
</mgrwt>
</event>
<event>
 4    1  0.2514307E-008  0.9675814E+03  0.7818608E-02  0.9425257E-01
         -1   -1    0    0    0  501 -0.00000000000E+00  0.00000000000E+00  0.89838392790E+03  0.89838392791E+03  0.50400000000E-02 0.  1.
          1   -1    0    0  501    0  0.00000000000E+00 -0.00000000000E+00 -0.11188037984E+04  0.11188037984E+04  0.50400000000E-02 0. -1.
    8880023    1    1    2    0    0 -0.52500432107E+03 -0.47620802671E+03  0.41521821554E+03  0.10529102500E+04  0.65864270000E+03 0.  0.
    8880022    1    1    2    0    0  0.52500432107E+03  0.47620802671E+03 -0.63563808605E+03  0.96427747630E+03  0.15294330000E+03 0.  0.
<mgrwt>
<rscale>  0 0.90025953E+03</rscale>
<asrwt>0</asrwt>
<pdfrwt beam="1">  1        1 0.17212366E+00 0.96758143E+03</pdfrwt>
<pdfrwt beam="2">  1       -1 0.13821291E+00 0.96758143E+03</pdfrwt>
<totfact> 0.53555967E+00</totfact>
</mgrwt>
</event>
<event>
 4    1  0.2514307E-008  0.1207440E+04  0.7818608E-02  0.9149923E-01
         -1   -1    0    0    0  501 -0.00000000000E+00  0.00000000000E+00  0.14282068203E+04  0.14282068203E+04  0.50400000000E-02 0.  1.
          1   -1    0    0  501    0  0.00000000000E+00 -0.00000000000E+00 -0.23534775559E+04  0.23534775559E+04  0.50400000000E-02 0. -1.
    8880023    1    1    2    0    0 -0.45543073046E+03  0.90370625391E+03  0.10219569305E+04  0.15818686158E+04  0.65864270000E+03 0.  0.
    8880022    1    1    2    0    0  0.45543073046E+03 -0.90370625391E+03 -0.19472276660E+04  0.21998157604E+04  0.15294330000E+03 0.  0.
<mgrwt>
<rscale>  0 0.11585592E+04</rscale>
<asrwt>0</asrwt>
<pdfrwt beam="1">  1        1 0.36207347E+00 0.12074404E+04</pdfrwt>
<pdfrwt beam="2">  1       -1 0.21972413E+00 0.12074404E+04</pdfrwt>
<totfact> 0.18587472E-01</totfact>
</mgrwt>
</event>
<event>
 4    1  0.2514307E-008  0.7592120E+03  0.7818608E-02  0.9807152E-01
         -1   -1    0    0    0  501 -0.00000000000E+00  0.00000000000E+00  0.38331378663E+03  0.38331378666E+03  0.50400000000E-02 0.  1.
          1   -1    0    0  501    0  0.00000000000E+00 -0.00000000000E+00 -0.16031416745E+04  0.16031416745E+04  0.50400000000E-02 0. -1.
    8880023    1    1    2    0    0 -0.27043143968E+03  0.26355161905E+03 -0.65140238635E+02  0.76200136248E+03  0.65864270000E+03 0.  0.
    8880022    1    1    2    0    0  0.27043143968E+03 -0.26355161905E+03 -0.11546876492E+04  0.12244540987E+04  0.15294330000E+03 0.  0.
<mgrwt>
<rscale>  0 0.64980142E+03</rscale>
<asrwt>0</asrwt>
<pdfrwt beam="1">  1        1 0.24663718E+00 0.75921198E+03</pdfrwt>
<pdfrwt beam="2">  1       -1 0.58971352E-01 0.75921198E+03</pdfrwt>
<totfact> 0.16760060E+01</totfact>
</mgrwt>
</event>
<event>
 4    1  0.2514307E-008  0.8209035E+03  0.7818608E-02  0.9667298E-01
         -1   -1    0    0    0  501 -0.00000000000E+00  0.00000000000E+00  0.70850240660E+03  0.70850240662E+03  0.50400000000E-02 0.  1.
          1   -1    0    0  501    0  0.00000000000E+00 -0.00000000000E+00 -0.10814685085E+04  0.10814685085E+04  0.50400000000E-02 0. -1.
    8880023    1    1    2    0    0  0.39804626838E+03  0.28571226461E+03  0.35899907656E+03  0.89597035283E+03  0.65864270000E+03 0.  1.
    8880022    1    1    2    0    0 -0.39804626838E+03 -0.28571226461E+03 -0.73196517846E+03  0.89400056230E+03  0.15294330000E+03 0.  0.
<mgrwt>
<rscale>  0 0.72997709E+03</rscale>
<asrwt>0</asrwt>
<pdfrwt beam="1">  1        1 0.16637977E+00 0.82090349E+03</pdfrwt>
<pdfrwt beam="2">  1       -1 0.10900037E+00 0.82090349E+03</pdfrwt>
<totfact> 0.10451466E+01</totfact>
</mgrwt>
</event>
<event>
 4    1  0.2514307E-008  0.8287577E+03  0.7818608E-02  0.9651754E-01
         -1   -1    0    0    0  501 -0.00000000000E+00  0.00000000000E+00  0.79252567772E+03  0.79252567774E+03  0.50400000000E-02 0.  1.
          1   -1    0    0  501    0  0.00000000000E+00 -0.00000000000E+00 -0.96807794231E+03  0.96807794233E+03  0.50400000000E-02 0. -1.
    8880023    1    1    2    0    0 -0.49565945597E+03 -0.85737376527E+02  0.45032523807E+03  0.94320317023E+03  0.65864270000E+03 0.  0.
    8880022    1    1    2    0    0  0.49565945597E+03  0.85737376527E+02 -0.62587750266E+03  0.81740044983E+03  0.15294330000E+03 0.  0.
<mgrwt>
<rscale>  0 0.73963431E+03</rscale>
<asrwt>0</asrwt>
<pdfrwt beam="1">  1        1 0.14893507E+00 0.82875775E+03</pdfrwt>
<pdfrwt beam="2">  1       -1 0.12192703E+00 0.82875775E+03</pdfrwt>
<totfact> 0.97529045E+00</totfact>
</mgrwt>
</event>
<event>
 4    1  0.2514307E-008  0.6627558E+03  0.7818608E-02  0.1021495E+00
          1   -1    0    0  501    0  0.00000000000E+00  0.00000000000E+00  0.18588996479E+04  0.18588996479E+04  0.50400000000E-02 0. -1.
         -1   -1    0    0    0  501 -0.00000000000E+00 -0.00000000000E+00 -0.71365166091E+03  0.71365166093E+03  0.50400000000E-02 0.  1.
    8880023    1    1    2    0    0  0.73561381127E+02  0.48756650199E+01 -0.55463297484E+03  0.86421235350E+03  0.65864270000E+03 0.  1.
    8880022    1    1    2    0    0 -0.73561381127E+02 -0.48756650199E+01  0.16998809618E+04  0.17083389553E+04  0.15294330000E+03 0.  0.
<mgrwt>
<rscale>  0 0.47150850E+03</rscale>
<asrwt>0</asrwt>
<pdfrwt beam="1">  1        1 0.28598456E+00 0.66275580E+03</pdfrwt>
<pdfrwt beam="2">  1       -1 0.10979256E+00 0.66275580E+03</pdfrwt>
<totfact> 0.30430486E+00</totfact>
</mgrwt>
</event>
<event>
 4    1  0.2514307E-008  0.1064239E+04  0.7818608E-02  0.9301957E-01
         -1   -1    0    0    0  501 -0.00000000000E+00  0.00000000000E+00  0.12247550490E+04  0.12247550490E+04  0.50400000000E-02 0.  1.
          1   -1    0    0  501    0  0.00000000000E+00 -0.00000000000E+00 -0.10376742517E+04  0.10376742517E+04  0.50400000000E-02 0. -1.
    8880023    1    1    2    0    0  0.47065971159E+03 -0.69085024375E+03  0.69624510123E+03  0.12717555074E+04  0.65864270000E+03 0. -1.
    8880022    1    1    2    0    0 -0.47065971159E+03  0.69085024375E+03 -0.50916430395E+03  0.99067379335E+03  0.15294330000E+03 0.  0.
<mgrwt>
<rscale>  0 0.10060291E+04</rscale>
<asrwt>0</asrwt>
<pdfrwt beam="1">  1        1 0.15964219E+00 0.10642391E+04</pdfrwt>
<pdfrwt beam="2">  1       -1 0.18842385E+00 0.10642391E+04</pdfrwt>
<totfact> 0.25534549E+00</totfact>
</mgrwt>
</event>
<event>
 4    1  0.2514307E-008  0.8048573E+03  0.7818608E-02  0.9700390E-01
         -1   -1    0    0    0  501 -0.00000000000E+00  0.00000000000E+00  0.73645621309E+03  0.73645621310E+03  0.50400000000E-02 0.  1.
          1   -1    0    0  501    0  0.00000000000E+00 -0.00000000000E+00 -0.12075309337E+04  0.12075309337E+04  0.50400000000E-02 0. -1.
    8880023    1    1    2    0    0  0.24267440780E+03 -0.39381995625E+03  0.43524963505E+03  0.91500681812E+03  0.65864270000E+03 0.  1.
    8880022    1    1    2    0    0 -0.24267440780E+03  0.39381995625E+03 -0.90632435564E+03  0.10289803287E+04  0.15294330000E+03 0.  0.
<mgrwt>
<rscale>  0 0.70993553E+03</rscale>
<asrwt>0</asrwt>
<pdfrwt beam="1">  1        1 0.18577399E+00 0.80485727E+03</pdfrwt>
<pdfrwt beam="2">  1       -1 0.11330096E+00 0.80485727E+03</pdfrwt>
<totfact> 0.77144046E+00</totfact>
</mgrwt>
</event>
<event>
 4    1  0.2514307E-008  0.1088233E+04  0.7818608E-02  0.9274272E-01
          1   -1    0    0  501    0  0.00000000000E+00  0.00000000000E+00  0.10016641693E+04  0.10016641693E+04  0.50400000000E-02 0. -1.
         -1   -1    0    0    0  501 -0.00000000000E+00 -0.00000000000E+00 -0.12090855532E+04  0.12090855532E+04  0.50400000000E-02 0.  1.
    8880023    1    1    2    0    0 -0.43210005419E+03 -0.75081913068E+03 -0.60533353548E+03  0.12452625102E+04  0.65864270000E+03 0.  1.
    8880022    1    1    2    0    0  0.43210005419E+03  0.75081913068E+03  0.39791215159E+03  0.96548721236E+03  0.15294330000E+03 0.  0.
<mgrwt>
<rscale>  0 0.10318631E+04</rscale>
<asrwt>0</asrwt>
<pdfrwt beam="1">  1        1 0.15410218E+00 0.10882325E+04</pdfrwt>
<pdfrwt beam="2">  1       -1 0.18601316E+00 0.10882325E+04</pdfrwt>
<totfact> 0.28243950E+00</totfact>
</mgrwt>
</event>
<event>
 4    1  0.2514307E-008  0.7639372E+03  0.7818608E-02  0.9795019E-01
         -1   -1    0    0    0  501 -0.00000000000E+00  0.00000000000E+00  0.63225278578E+03  0.63225278581E+03  0.50400000000E-02 0.  1.
          1   -1    0    0  501    0  0.00000000000E+00 -0.00000000000E+00 -0.69759716675E+03  0.69759716676E+03  0.50400000000E-02 0. -1.
    8880023    1    1    2    0    0 -0.21427208347E+03  0.32230000870E+03  0.25425336730E+03  0.80513651166E+03  0.65864270000E+03 0.  0.
    8880022    1    1    2    0    0  0.21427208347E+03 -0.32230000870E+03 -0.31959774826E+03  0.52471344091E+03  0.15294330000E+03 0.  0.
<mgrwt>
<rscale>  0 0.65630531E+03</rscale>
<asrwt>0</asrwt>
<pdfrwt beam="1">  1        1 0.10732264E+00 0.76393719E+03</pdfrwt>
<pdfrwt beam="2">  1       -1 0.97269659E-01 0.76393719E+03</pdfrwt>
<totfact> 0.28460749E+01</totfact>
</mgrwt>
</event>
<event>
 4    1  0.2514307E-008  0.1251200E+04  0.7818608E-02  0.9108891E-01
         -1   -1    0    0    0  501 -0.00000000000E+00  0.00000000000E+00  0.92070831331E+03  0.92070831332E+03  0.50400000000E-02 0.  1.
          1   -1    0    0  501    0  0.00000000000E+00 -0.00000000000E+00 -0.32683172115E+04  0.32683172115E+04  0.50400000000E-02 0. -1.
    8880023    1    1    2    0    0 -0.51008766675E+03  0.93354279078E+03  0.33825122014E+03  0.12961156060E+04  0.65864270000E+03 0.  0.
    8880022    1    1    2    0    0  0.51008766675E+03 -0.93354279078E+03 -0.26858601183E+04  0.28929099188E+04  0.15294330000E+03 0.  0.
<mgrwt>
<rscale>  0 0.12045414E+04</rscale>
<asrwt>0</asrwt>
<pdfrwt beam="1">  1        1 0.50281803E+00 0.12512001E+04</pdfrwt>
<pdfrwt beam="2">  1       -1 0.14164743E+00 0.12512001E+04</pdfrwt>
<totfact> 0.15176493E-01</totfact>
</mgrwt>
</event>
<event>
 4    1  0.2514307E-008  0.6639568E+03  0.7818608E-02  0.1020425E+00
         -1   -1    0    0    0  501 -0.00000000000E+00  0.00000000000E+00  0.12499568832E+04  0.12499568832E+04  0.50400000000E-02 0.  1.
          1   -1    0    0  501    0  0.00000000000E+00 -0.00000000000E+00 -0.12433493546E+04  0.12433493547E+04  0.50400000000E-02 0. -1.
    8880023    1    1    2    0    0 -0.17192420284E+02 -0.82053606281E+02  0.11547330242E+04  0.13320086100E+04  0.65864270000E+03 0.  1.
    8880022    1    1    2    0    0  0.17192420284E+02  0.82053606281E+02 -0.11481254957E+04  0.11612976279E+04  0.15294330000E+03 0.  0.
<mgrwt>
<rscale>  0 0.47533500E+03</rscale>
<asrwt>0</asrwt>
<pdfrwt beam="1">  1        1 0.19128452E+00 0.66395676E+03</pdfrwt>
<pdfrwt beam="2">  1       -1 0.19230106E+00 0.66395676E+03</pdfrwt>
<totfact> 0.18005659E+00</totfact>
</mgrwt>
</event>
<event>
 4    1  0.2514307E-008  0.1104853E+04  0.7818608E-02  0.9255672E-01
          1   -1    0    0  501    0  0.00000000000E+00  0.00000000000E+00  0.92268519774E+03  0.92268519775E+03  0.50400000000E-02 0. -1.
         -1   -1    0    0    0  501 -0.00000000000E+00 -0.00000000000E+00 -0.11762452070E+04  0.11762452070E+04  0.50400000000E-02 0.  1.
    8880023    1    1    2    0    0  0.54218439478E+03 -0.70208638473E+03  0.14529712160E+03  0.11143655905E+04  0.65864270000E+03 0.  0.
    8880022    1    1    2    0    0 -0.54218439478E+03  0.70208638473E+03 -0.39885713085E+03  0.98456481422E+03  0.15294330000E+03 0.  0.
<mgrwt>
<rscale>  0 0.10496819E+04</rscale>
<asrwt>0</asrwt>
<pdfrwt beam="1">  1        1 0.14195157E+00 0.11048527E+04</pdfrwt>
<pdfrwt beam="2">  1       -1 0.18096080E+00 0.11048527E+04</pdfrwt>
<totfact> 0.35409573E+00</totfact>
</mgrwt>
</event>
<event>
 4    1  0.2514307E-008  0.6995639E+03  0.7818608E-02  0.9999015E-01
          1   -1    0    0  501    0  0.00000000000E+00  0.00000000000E+00  0.85532180749E+03  0.85532180750E+03  0.50400000000E-02 0. -1.
         -1   -1    0    0    0  501 -0.00000000000E+00 -0.00000000000E+00 -0.45249608570E+03  0.45249608573E+03  0.50400000000E-02 0.  1.
    8880023    1    1    2    0    0  0.16930857453E+03  0.16405498896E+03 -0.12424532242E+03  0.71051146312E+03  0.65864270000E+03 0.  0.
    8880022    1    1    2    0    0 -0.16930857453E+03 -0.16405498896E+03  0.52707104420E+03  0.59730643012E+03  0.15294330000E+03 0.  0.
<mgrwt>
<rscale>  0 0.55693441E+03</rscale>
<asrwt>0</asrwt>
<pdfrwt beam="1">  1        1 0.13158797E+00 0.69956389E+03</pdfrwt>
<pdfrwt beam="2">  1       -1 0.69614783E-01 0.69956389E+03</pdfrwt>
<totfact> 0.42578619E+01</totfact>
</mgrwt>
</event>
<event>
 4    1  0.2514307E-008  0.8646549E+03  0.7818608E-02  0.9585336E-01
         -1   -1    0    0    0  501 -0.00000000000E+00  0.00000000000E+00  0.16649591845E+04  0.16649591845E+04  0.50400000000E-02 0.  1.
          1   -1    0    0  501    0  0.00000000000E+00 -0.00000000000E+00 -0.44146389491E+03  0.44146389494E+03  0.50400000000E-02 0. -1.
    8880023    1    1    2    0    0 -0.45672172149E+03  0.32438131707E+03  0.12559631930E+04  0.15248185854E+04  0.65864270000E+03 0.  1.
    8880022    1    1    2    0    0  0.45672172149E+03 -0.32438131707E+03 -0.32467903477E+02  0.58160449406E+03  0.15294330000E+03 0.  0.
<mgrwt>
<rscale>  0 0.78274377E+03</rscale>
<asrwt>0</asrwt>
<pdfrwt beam="1">  1        1 0.67917524E-01 0.86465495E+03</pdfrwt>
<pdfrwt beam="2">  1       -1 0.25614756E+00 0.86465495E+03</pdfrwt>
<totfact> 0.34272216E+00</totfact>
</mgrwt>
</event>
<event>
 4    1  0.2514307E-008  0.1103185E+04  0.7818608E-02  0.9257518E-01
         -1   -1    0    0    0  501 -0.00000000000E+00  0.00000000000E+00  0.83147009691E+03  0.83147009692E+03  0.50400000000E-02 0.  1.
          1   -1    0    0  501    0  0.00000000000E+00 -0.00000000000E+00 -0.22511333413E+04  0.22511333413E+04  0.50400000000E-02 0. -1.
    8880023    1    1    2    0    0  0.82677979998E+03  0.31566151187E+03 -0.17968699993E+04  0.21084968647E+04  0.65864270000E+03 0. -1.
    8880022    1    1    2    0    0 -0.82677979998E+03 -0.31566151187E+03  0.37720675488E+03  0.97410657357E+03  0.15294330000E+03 0.  0.
<mgrwt>
<rscale>  0 0.10478967E+04</rscale>
<asrwt>0</asrwt>
<pdfrwt beam="1">  1        1 0.34632820E+00 0.11031850E+04</pdfrwt>
<pdfrwt beam="2">  1       -1 0.12791848E+00 0.11031850E+04</pdfrwt>
<totfact> 0.10606618E+00</totfact>
</mgrwt>
</event>
<event>
 4    1  0.2514307E-008  0.6723752E+03  0.7818608E-02  0.1014014E+00
         -1   -1    0    0    0  501 -0.00000000000E+00  0.00000000000E+00  0.23684929868E+03  0.23684929873E+03  0.50400000000E-02 0.  1.
          1   -1    0    0  501    0  0.00000000000E+00 -0.00000000000E+00 -0.27047775813E+04  0.27047775813E+04  0.50400000000E-02 0. -1.
    8880023    1    1    2    0    0 -0.11877647097E+03  0.64578386777E+02 -0.25469212879E+03  0.71899687400E+03  0.65864270000E+03 0.  1.
    8880022    1    1    2    0    0  0.11877647097E+03 -0.64578386777E+02 -0.22132361539E+04  0.22226300061E+04  0.15294330000E+03 0.  0.
<mgrwt>
<rscale>  0 0.49909882E+03</rscale>
<asrwt>0</asrwt>
<pdfrwt beam="1">  1        1 0.41611961E+00 0.67237521E+03</pdfrwt>
<pdfrwt beam="2">  1       -1 0.36438355E-01 0.67237521E+03</pdfrwt>
<totfact> 0.75504360E+00</totfact>
</mgrwt>
</event>
<event>
 4    1  0.2514307E-008  0.1026520E+04  0.7818608E-02  0.9347655E-01
          1   -1    0    0  501    0  0.00000000000E+00  0.00000000000E+00  0.26600872035E+04  0.26600872035E+04  0.50400000000E-02 0. -1.
         -1   -1    0    0    0  501 -0.00000000000E+00 -0.00000000000E+00 -0.98389052469E+03  0.98389052470E+03  0.50400000000E-02 0.  1.
    8880023    1    1    2    0    0  0.32340039143E+03 -0.71787600328E+03 -0.62853937985E+03  0.12036634611E+04  0.65864270000E+03 0.  1.
    8880022    1    1    2    0    0 -0.32340039143E+03  0.71787600328E+03  0.23047360587E+04  0.24403142672E+04  0.15294330000E+03 0.  0.
<mgrwt>
<rscale>  0 0.96511597E+03</rscale>
<asrwt>0</asrwt>
<pdfrwt beam="1">  1        1 0.40924418E+00 0.10265203E+04</pdfrwt>
<pdfrwt beam="2">  1       -1 0.15136777E+00 0.10265203E+04</pdfrwt>
<totfact> 0.36233311E-01</totfact>
</mgrwt>
</event>
<event>
 4    1  0.2514307E-008  0.1000971E+04  0.7818608E-02  0.9380288E-01
         -1   -1    0    0    0  501 -0.00000000000E+00  0.00000000000E+00  0.10821948898E+04  0.10821948898E+04  0.50400000000E-02 0.  1.
          1   -1    0    0  501    0  0.00000000000E+00 -0.00000000000E+00 -0.93887092703E+03  0.93887092704E+03  0.50400000000E-02 0. -1.
    8880023    1    1    2    0    0 -0.75370089389E+03 -0.82739347375E+01  0.55934564299E+03  0.11466521923E+04  0.65864270000E+03 0.  0.
    8880022    1    1    2    0    0  0.75370089389E+03  0.82739347375E+01 -0.41602168021E+03  0.87441362459E+03  0.15294330000E+03 0.  0.
<mgrwt>
<rscale>  0 0.93715817E+03</rscale>
<asrwt>0</asrwt>
<pdfrwt beam="1">  1        1 0.14444168E+00 0.10009714E+04</pdfrwt>
<pdfrwt beam="2">  1       -1 0.16649152E+00 0.10009714E+04</pdfrwt>
<totfact> 0.44314285E+00</totfact>
</mgrwt>
</event>
<event>
 4    1  0.2514307E-008  0.6770996E+03  0.7818608E-02  0.1011014E+00
          1   -1    0    0  501    0  0.00000000000E+00  0.00000000000E+00  0.83336884219E+03  0.83336884221E+03  0.50400000000E-02 0. -1.
         -1   -1    0    0    0  501 -0.00000000000E+00 -0.00000000000E+00 -0.33231672190E+03  0.33231672194E+03  0.50400000000E-02 0.  1.
    8880023    1    1    2    0    0  0.14218348221E+03  0.66614996629E+02  0.68234043820E+02  0.68052905257E+03  0.65864270000E+03 0.  1.
    8880022    1    1    2    0    0 -0.14218348221E+03 -0.66614996629E+02  0.43281807647E+03  0.48515651158E+03  0.15294330000E+03 0.  0.
<mgrwt>
<rscale>  0 0.51073528E+03</rscale>
<asrwt>0</asrwt>
<pdfrwt beam="1">  1        1 0.12821059E+00 0.67709963E+03</pdfrwt>
<pdfrwt beam="2">  1       -1 0.51125650E-01 0.67709963E+03</pdfrwt>
<totfact> 0.81693985E+01</totfact>
</mgrwt>
</event>
<event>
 4    1  0.2514307E-008  0.9922911E+03  0.7818608E-02  0.9391713E-01
         -1   -1    0    0    0  501 -0.00000000000E+00  0.00000000000E+00  0.48681592794E+03  0.48681592797E+03  0.50400000000E-02 0.  1.
          1   -1    0    0  501    0  0.00000000000E+00 -0.00000000000E+00 -0.16433582765E+04  0.16433582765E+04  0.50400000000E-02 0. -1.
    8880023    1    1    2    0    0  0.74016389624E+03  0.54671060026E+02 -0.87116688051E+03  0.13204444169E+04  0.65864270000E+03 0.  0.
    8880022    1    1    2    0    0 -0.74016389624E+03 -0.54671060026E+02 -0.28537546802E+03  0.80972978756E+03  0.15294330000E+03 0.  0.
<mgrwt>
<rscale>  0 0.92760788E+03</rscale>
<asrwt>0</asrwt>
<pdfrwt beam="1">  1        1 0.25282435E+00 0.99229115E+03</pdfrwt>
<pdfrwt beam="2">  1       -1 0.74894759E-01 0.99229115E+03</pdfrwt>
<totfact> 0.94193732E+00</totfact>
</mgrwt>
</event>
<event>
 4    1  0.2514307E-008  0.1742490E+04  0.7818608E-02  0.8755034E-01
          1   -1    0    0  501    0  0.00000000000E+00  0.00000000000E+00  0.34276535748E+04  0.34276535748E+04  0.50400000000E-02 0. -1.
         -1   -1    0    0    0  501 -0.00000000000E+00 -0.00000000000E+00 -0.16194214653E+04  0.16194214653E+04  0.50400000000E-02 0.  1.
    8880023    1    1    2    0    0 -0.10661122769E+04 -0.12107287503E+04 -0.84621689361E+03  0.19370990504E+04  0.65864270000E+03 0.  0.
    8880022    1    1    2    0    0  0.10661122769E+04  0.12107287503E+04  0.26544490030E+04  0.31099759897E+04  0.15294330000E+03 0.  0.
<mgrwt>
<rscale>  0 0.17111433E+04</rscale>
<asrwt>0</asrwt>
<pdfrwt beam="1">  1        1 0.52733131E+00 0.17424895E+04</pdfrwt>
<pdfrwt beam="2">  1       -1 0.24914177E+00 0.17424895E+04</pdfrwt>
<totfact> 0.18443230E-02</totfact>
</mgrwt>
</event>
<event>
 4    1  0.2514307E-008  0.1126901E+04  0.7818608E-02  0.9231680E-01
          1   -1    0    0  501    0  0.00000000000E+00  0.00000000000E+00  0.26562089373E+04  0.26562089373E+04  0.50400000000E-02 0. -1.
         -1   -1    0    0    0  501 -0.00000000000E+00 -0.00000000000E+00 -0.44616448440E+03  0.44616448443E+03  0.50400000000E-02 0.  1.
    8880023    1    1    2    0    0  0.39598981889E+03 -0.82418935528E+03  0.68833701169E+03  0.13204976630E+04  0.65864270000E+03 0.  0.
    8880022    1    1    2    0    0 -0.39598981889E+03  0.82418935528E+03  0.15217074412E+04  0.17818757588E+04  0.15294330000E+03 0.  0.
<mgrwt>
<rscale>  0 0.10732338E+04</rscale>
<asrwt>0</asrwt>
<pdfrwt beam="1">  1        1 0.40864752E+00 0.11269012E+04</pdfrwt>
<pdfrwt beam="2">  1       -1 0.68640691E-01 0.11269012E+04</pdfrwt>
<totfact> 0.22720127E+00</totfact>
</mgrwt>
</event>
<event>
 4    1  0.2514307E-008  0.8259293E+03  0.7818608E-02  0.9657305E-01
          1   -1    0    0  501    0  0.00000000000E+00  0.00000000000E+00  0.12894910541E+04  0.12894910541E+04  0.50400000000E-02 0. -1.
         -1   -1    0    0    0  501 -0.00000000000E+00 -0.00000000000E+00 -0.37161815340E+03  0.37161815343E+03  0.50400000000E-02 0.  1.
    8880023    1    1    2    0    0 -0.25696544701E+03 -0.42698690463E+03  0.37048853161E+03  0.90521876693E+03  0.65864270000E+03 0.  0.
    8880022    1    1    2    0    0  0.25696544701E+03  0.42698690463E+03  0.54738436913E+03  0.75589044065E+03  0.15294330000E+03 0.  0.
<mgrwt>
<rscale>  0 0.73616727E+03</rscale>
<asrwt>0</asrwt>
<pdfrwt beam="1">  1        1 0.19838324E+00 0.82592933E+03</pdfrwt>
<pdfrwt beam="2">  1       -1 0.57172024E-01 0.82592933E+03</pdfrwt>
<totfact> 0.29114566E+01</totfact>
</mgrwt>
</event>
<event>
 4    1  0.2514307E-008  0.1002001E+04  0.7818608E-02  0.9378944E-01
          1   -1    0    0  501    0  0.00000000000E+00  0.00000000000E+00  0.16564542479E+04  0.16564542479E+04  0.50400000000E-02 0. -1.
         -1   -1    0    0    0  501 -0.00000000000E+00 -0.00000000000E+00 -0.57768713078E+03  0.57768713081E+03  0.50400000000E-02 0.  1.
    8880023    1    1    2    0    0 -0.71571456239E+03 -0.24072560758E+03  0.12760788475E+03  0.10100941201E+04  0.65864270000E+03 0.  0.
    8880022    1    1    2    0    0  0.71571456239E+03  0.24072560758E+03  0.95115923232E+03  0.12240472586E+04  0.15294330000E+03 0.  0.
<mgrwt>
<rscale>  0 0.93828937E+03</rscale>
<asrwt>0</asrwt>
<pdfrwt beam="1">  1        1 0.25483911E+00 0.10020012E+04</pdfrwt>
<pdfrwt beam="2">  1       -1 0.88874945E-01 0.10020012E+04</pdfrwt>
<totfact> 0.63834012E+00</totfact>
</mgrwt>
</event>
<event>
 4    1  0.2514307E-008  0.1288597E+04  0.7818608E-02  0.9075470E-01
          1   -1    0    0  501    0  0.00000000000E+00  0.00000000000E+00  0.24775881661E+04  0.24775881661E+04  0.50400000000E-02 0. -1.
         -1   -1    0    0    0  501 -0.00000000000E+00 -0.00000000000E+00 -0.10481264990E+04  0.10481264990E+04  0.50400000000E-02 0.  1.
    8880023    1    1    2    0    0  0.10014025009E+04  0.47314312409E+03 -0.42791255637E+03  0.13577889184E+04  0.65864270000E+03 0.  0.
    8880022    1    1    2    0    0 -0.10014025009E+04 -0.47314312409E+03  0.18573742234E+04  0.21679257467E+04  0.15294330000E+03 0.  0.
<mgrwt>
<rscale>  0 0.12436674E+04</rscale>
<asrwt>0</asrwt>
<pdfrwt beam="1">  1        1 0.38116740E+00 0.12885968E+04</pdfrwt>
<pdfrwt beam="2">  1       -1 0.16125023E+00 0.12885968E+04</pdfrwt>
<totfact> 0.39103126E-01</totfact>
</mgrwt>
</event>
<event>
 4    1  0.2514307E-008  0.9900208E+03  0.7818608E-02  0.9394731E-01
          1   -1    0    0  501    0  0.00000000000E+00  0.00000000000E+00  0.19228044800E+04  0.19228044800E+04  0.50400000000E-02 0. -1.
         -1   -1    0    0    0  501 -0.00000000000E+00 -0.00000000000E+00 -0.10432032313E+04  0.10432032314E+04  0.50400000000E-02 0.  1.
    8880023    1    1    2    0    0  0.42865925240E+03 -0.60214806140E+03 -0.70191790284E+03  0.12136020728E+04  0.65864270000E+03 0.  0.
    8880022    1    1    2    0    0 -0.42865925240E+03  0.60214806140E+03  0.15815191515E+04  0.17524056386E+04  0.15294330000E+03 0.  0.
<mgrwt>
<rscale>  0 0.92510534E+03</rscale>
<asrwt>0</asrwt>
<pdfrwt beam="1">  1        1 0.29581607E+00 0.99002083E+03</pdfrwt>
<pdfrwt beam="2">  1       -1 0.16049281E+00 0.99002083E+03</pdfrwt>
<totfact> 0.98567991E-01</totfact>
</mgrwt>
</event>
<event>
 4    1  0.2514307E-008  0.6842342E+03  0.7818608E-02  0.1007023E+00
         -1   -1    0    0    0  501 -0.00000000000E+00  0.00000000000E+00  0.65552447119E+03  0.65552447121E+03  0.50400000000E-02 0.  1.
          1   -1    0    0  501    0  0.00000000000E+00 -0.00000000000E+00 -0.96729235668E+03  0.96729235670E+03  0.50400000000E-02 0. -1.
    8880023    1    1    2    0    0  0.69816093730E+02  0.17173229952E+03  0.45338203528E+03  0.82081163845E+03  0.65864270000E+03 0.  1.
    8880022    1    1    2    0    0 -0.69816093730E+02 -0.17173229952E+03 -0.76514992077E+03  0.80200518945E+03  0.15294330000E+03 0.  0.
<mgrwt>
<rscale>  0 0.52675060E+03</rscale>
<asrwt>0</asrwt>
<pdfrwt beam="1">  1        1 0.14881421E+00 0.68423423E+03</pdfrwt>
<pdfrwt beam="2">  1       -1 0.10084992E+00 0.68423423E+03</pdfrwt>
<totfact> 0.15596650E+01</totfact>
</mgrwt>
</event>
<event>
 4    1  0.2514307E-008  0.7791045E+03  0.7818608E-02  0.9757945E-01
         -1   -1    0    0    0  501 -0.00000000000E+00  0.00000000000E+00  0.56129572621E+03  0.56129572623E+03  0.50400000000E-02 0.  1.
          1   -1    0    0  501    0  0.00000000000E+00 -0.00000000000E+00 -0.73185811655E+03  0.73185811656E+03  0.50400000000E-02 0. -1.
    8880023    1    1    2    0    0  0.19409718015E+03  0.36813022118E+03  0.81128522595E+02  0.78331706131E+03  0.65864270000E+03 0.  0.
    8880022    1    1    2    0    0 -0.19409718015E+03 -0.36813022118E+03 -0.25169091293E+03  0.50983678149E+03  0.15294330000E+03 0.  0.
<mgrwt>
<rscale>  0 0.67669136E+03</rscale>
<asrwt>0</asrwt>
<pdfrwt beam="1">  1        1 0.11259356E+00 0.77910447E+03</pdfrwt>
<pdfrwt beam="2">  1       -1 0.86353188E-01 0.77910447E+03</pdfrwt>
<totfact> 0.34381009E+01</totfact>
</mgrwt>
</event>
<event>
 4    1  0.2514307E-008  0.6934393E+03  0.7818608E-02  0.1002559E+00
         -1   -1    0    0    0  501 -0.00000000000E+00  0.00000000000E+00  0.41237513760E+03  0.41237513763E+03  0.50400000000E-02 0.  1.
          1   -1    0    0  501    0  0.00000000000E+00 -0.00000000000E+00 -0.17466761471E+04  0.17466761471E+04  0.50400000000E-02 0. -1.
    8880023    1    1    2    0    0  0.20604431329E+03  0.67776421291E+02  0.99812524605E+02  0.70058593238E+03  0.65864270000E+03 0.  1.
    8880022    1    1    2    0    0 -0.20604431329E+03 -0.67776421291E+02 -0.14341135341E+04  0.14584653524E+04  0.15294330000E+03 0.  0.
<mgrwt>
<rscale>  0 0.54542298E+03</rscale>
<asrwt>0</asrwt>
<pdfrwt beam="1">  1        1 0.26871940E+00 0.69343933E+03</pdfrwt>
<pdfrwt beam="2">  1       -1 0.63442330E-01 0.69343933E+03</pdfrwt>
<totfact> 0.11723051E+01</totfact>
</mgrwt>
</event>
<event>
 4    1  0.2514307E-008  0.8768198E+03  0.7818608E-02  0.9564317E-01
          1   -1    0    0  501    0  0.00000000000E+00  0.00000000000E+00  0.15538468553E+04  0.15538468553E+04  0.50400000000E-02 0. -1.
         -1   -1    0    0    0  501 -0.00000000000E+00 -0.00000000000E+00 -0.73214240216E+03  0.73214240218E+03  0.50400000000E-02 0.  1.
    8880023    1    1    2    0    0  0.68769064323E+02 -0.57469437269E+03 -0.37052651540E+03  0.95189438021E+03  0.65864270000E+03 0.  0.
    8880022    1    1    2    0    0 -0.68769064323E+02  0.57469437269E+03  0.11922309686E+04  0.13340948773E+04  0.15294330000E+03 0.  0.
<mgrwt>
<rscale>  0 0.79703599E+03</rscale>
<asrwt>0</asrwt>
<pdfrwt beam="1">  1        1 0.23905336E+00 0.87681983E+03</pdfrwt>
<pdfrwt beam="2">  1       -1 0.11263729E+00 0.87681983E+03</pdfrwt>
<totfact> 0.44294553E+00</totfact>
</mgrwt>
</event>
<event>
 4    1  0.2514307E-008  0.1482444E+04  0.7818608E-02  0.8922134E-01
         -1   -1    0    0    0  501 -0.00000000000E+00  0.00000000000E+00  0.18183152577E+04  0.18183152577E+04  0.50400000000E-02 0.  1.
          1   -1    0    0  501    0  0.00000000000E+00 -0.00000000000E+00 -0.21915403981E+04  0.21915403981E+04  0.50400000000E-02 0. -1.
    8880023    1    1    2    0    0  0.13164310672E+04  0.17560687177E+03  0.12272294447E+04  0.19245079486E+04  0.65864270000E+03 0.  1.
    8880022    1    1    2    0    0 -0.13164310672E+04 -0.17560687177E+03 -0.16004545850E+04  0.20853477072E+04  0.15294330000E+03 0.  0.
<mgrwt>
<rscale>  0 0.14446275E+04</rscale>
<asrwt>0</asrwt>
<pdfrwt beam="1">  1        1 0.33716006E+00 0.14824435E+04</pdfrwt>
<pdfrwt beam="2">  1       -1 0.27974081E+00 0.14824435E+04</pdfrwt>
<totfact> 0.93231261E-02</totfact>
</mgrwt>
</event>
<event>
 4    1  0.2514307E-008  0.9807061E+03  0.7818608E-02  0.9407247E-01
         -1   -1    0    0    0  501 -0.00000000000E+00  0.00000000000E+00  0.59751887418E+03  0.59751887420E+03  0.50400000000E-02 0.  1.
          1   -1    0    0  501    0  0.00000000000E+00 -0.00000000000E+00 -0.19568965031E+04  0.19568965031E+04  0.50400000000E-02 0. -1.
    8880023    1    1    2    0    0 -0.48016289275E+03 -0.54536028694E+03  0.27692943251E+02  0.98109701432E+03  0.65864270000E+03 0.  1.
    8880022    1    1    2    0    0  0.48016289275E+03  0.54536028694E+03 -0.13870705722E+04  0.15733183630E+04  0.15294330000E+03 0.  0.
<mgrwt>
<rscale>  0 0.91481683E+03</rscale>
<asrwt>0</asrwt>
<pdfrwt beam="1">  1        1 0.30106100E+00 0.98070610E+03</pdfrwt>
<pdfrwt beam="2">  1       -1 0.91925982E-01 0.98070610E+03</pdfrwt>
<totfact> 0.37228236E+00</totfact>
</mgrwt>
</event>
<event>
 4    1  0.2514307E-008  0.7503852E+03  0.7818608E-02  0.9830667E-01
         -1   -1    0    0    0  501 -0.00000000000E+00  0.00000000000E+00  0.15444468258E+03  0.15444468266E+03  0.50400000000E-02 0.  1.
          1   -1    0    0  501    0  0.00000000000E+00 -0.00000000000E+00 -0.30035082008E+04  0.30035082008E+04  0.50400000000E-02 0. -1.
    8880023    1    1    2    0    0 -0.23852350487E+03  0.26902468686E+03 -0.90792141037E+03  0.11778791272E+04  0.65864270000E+03 0.  1.
    8880022    1    1    2    0    0  0.23852350487E+03 -0.26902468686E+03 -0.19411421078E+04  0.19800737563E+04  0.15294330000E+03 0.  0.
<mgrwt>
<rscale>  0 0.63742433E+03</rscale>
<asrwt>0</asrwt>
<pdfrwt beam="1">  1        1 0.46207814E+00 0.75038520E+03</pdfrwt>
<pdfrwt beam="2">  1       -1 0.23760723E-01 0.75038520E+03</pdfrwt>
<totfact> 0.96452785E+00</totfact>
</mgrwt>
</event>
<event>
 4    1  0.2514307E-008  0.6655173E+03  0.7818608E-02  0.1019103E+00
         -1   -1    0    0    0  501 -0.00000000000E+00  0.00000000000E+00  0.38806602284E+03  0.38806602287E+03  0.50400000000E-02 0.  1.
          1   -1    0    0  501    0  0.00000000000E+00 -0.00000000000E+00 -0.23761196582E+04  0.23761196582E+04  0.50400000000E-02 0. -1.
    8880023    1    1    2    0    0  0.29531366573E+02 -0.90724764276E+02  0.95951652766E+02  0.67239869898E+03  0.65864270000E+03 0.  0.
    8880022    1    1    2    0    0 -0.29531366573E+02  0.90724764276E+02 -0.20840052882E+04  0.20917869821E+04  0.15294330000E+03 0. -1.
<mgrwt>
<rscale>  0 0.48011596E+03</rscale>
<asrwt>0</asrwt>
<pdfrwt beam="1">  1        1 0.36555686E+00 0.66551731E+03</pdfrwt>
<pdfrwt beam="2">  1       -1 0.59702467E-01 0.66551731E+03</pdfrwt>
<totfact> 0.50398007E+00</totfact>
</mgrwt>
</event>
<event>
 4    1  0.2514307E-008  0.1089738E+04  0.7818608E-02  0.9272568E-01
         -1   -1    0    0    0  501 -0.00000000000E+00  0.00000000000E+00  0.90444026609E+03  0.90444026611E+03  0.50400000000E-02 0.  1.
          1   -1    0    0  501    0  0.00000000000E+00 -0.00000000000E+00 -0.18616898270E+04  0.18616898270E+04  0.50400000000E-02 0. -1.
    8880023    1    1    2    0    0  0.16599962409E+03 -0.85215198175E+03  0.38887324355E+03  0.11570442865E+04  0.65864270000E+03 0.  0.
    8880022    1    1    2    0    0 -0.16599962409E+03  0.85215198175E+03 -0.13461228044E+04  0.16090858065E+04  0.15294330000E+03 0.  0.
<mgrwt>
<rscale>  0 0.10334797E+04</rscale>
<asrwt>0</asrwt>
<pdfrwt beam="1">  1        1 0.28641382E+00 0.10897381E+04</pdfrwt>
<pdfrwt beam="2">  1       -1 0.13914466E+00 0.10897381E+04</pdfrwt>
<totfact> 0.15701732E+00</totfact>
</mgrwt>
</event>
<event>
 4    1  0.2514307E-008  0.9953082E+03  0.7818608E-02  0.9387722E-01
          1   -1    0    0  501    0  0.00000000000E+00  0.00000000000E+00  0.11616071507E+04  0.11616071507E+04  0.50400000000E-02 0. -1.
         -1   -1    0    0    0  501 -0.00000000000E+00 -0.00000000000E+00 -0.15716534738E+04  0.15716534738E+04  0.50400000000E-02 0.  1.
    8880023    1    1    2    0    0 -0.73864449145E+03 -0.10598376186E+03 -0.12509850655E+04  0.15986250601E+04  0.65864270000E+03 0.  1.
    8880022    1    1    2    0    0  0.73864449145E+03  0.10598376186E+03  0.84093874242E+03  0.11346355644E+04  0.15294330000E+03 0.  0.
<mgrwt>
<rscale>  0 0.93093052E+03</rscale>
<asrwt>0</asrwt>
<pdfrwt beam="1">  1        1 0.17870879E+00 0.99530822E+03</pdfrwt>
<pdfrwt beam="2">  1       -1 0.24179284E+00 0.99530822E+03</pdfrwt>
<totfact> 0.90774455E-01</totfact>
</mgrwt>
</event>
<event>
 4    1  0.2514307E-008  0.9415643E+03  0.7818608E-02  0.9462356E-01
         -1   -1    0    0    0  501 -0.00000000000E+00  0.00000000000E+00  0.11841211544E+04  0.11841211544E+04  0.50400000000E-02 0.  1.
          1   -1    0    0  501    0  0.00000000000E+00 -0.00000000000E+00 -0.57180137032E+03  0.57180137034E+03  0.50400000000E-02 0. -1.
    8880023    1    1    2    0    0 -0.63497504374E+03 -0.22257561966E+03  0.23915111245E+03  0.97146110241E+03  0.65864270000E+03 0.  0.
    8880022    1    1    2    0    0  0.63497504374E+03  0.22257561966E+03  0.37316867162E+03  0.78446142233E+03  0.15294330000E+03 0.  0.
<mgrwt>
<rscale>  0 0.87116940E+03</rscale>
<asrwt>0</asrwt>
<pdfrwt beam="1">  1        1 0.87969442E-01 0.94156435E+03</pdfrwt>
<pdfrwt beam="2">  1       -1 0.18217248E+00 0.94156435E+03</pdfrwt>
<totfact> 0.74396687E+00</totfact>
</mgrwt>
</event>
<event>
 4    1  0.2514307E-008  0.9128328E+03  0.7818608E-02  0.9505737E-01
         -1   -1    0    0    0  501 -0.00000000000E+00  0.00000000000E+00  0.78712647799E+03  0.78712647801E+03  0.50400000000E-02 0.  1.
          1   -1    0    0  501    0  0.00000000000E+00 -0.00000000000E+00 -0.14360997699E+04  0.14360997699E+04  0.50400000000E-02 0. -1.
    8880023    1    1    2    0    0  0.12783315919E+03 -0.61896051549E+03  0.39392991597E+03  0.99420542207E+03  0.65864270000E+03 0.  1.
    8880022    1    1    2    0    0 -0.12783315919E+03  0.61896051549E+03 -0.10429032078E+04  0.12290208258E+04  0.15294330000E+03 0.  0.
<mgrwt>
<rscale>  0 0.83862166E+03</rscale>
<asrwt>0</asrwt>
<pdfrwt beam="1">  1        1 0.22093843E+00 0.91283276E+03</pdfrwt>
<pdfrwt beam="2">  1       -1 0.12109638E+00 0.91283276E+03</pdfrwt>
<totfact> 0.44592814E+00</totfact>
</mgrwt>
</event>
<event>
 4    1  0.2514307E-008  0.7835514E+03  0.7818608E-02  0.9747560E-01
          1   -1    0    0  501    0  0.00000000000E+00  0.00000000000E+00  0.62655442785E+03  0.62655442787E+03  0.50400000000E-02 0. -1.
         -1   -1    0    0    0  501 -0.00000000000E+00 -0.00000000000E+00 -0.11700450155E+04  0.11700450155E+04  0.50400000000E-02 0.  1.
    8880023    1    1    2    0    0  0.89880707686E+02  0.41480608223E+03 -0.92037934348E+03  0.12087394134E+04  0.65864270000E+03 0.  0.
    8880022    1    1    2    0    0 -0.89880707686E+02 -0.41480608223E+03  0.37688875585E+03  0.58786002991E+03  0.15294330000E+03 0.  0.
<mgrwt>
<rscale>  0 0.68254348E+03</rscale>
<asrwt>0</asrwt>
<pdfrwt beam="1">  1        1 0.96392989E-01 0.78355142E+03</pdfrwt>
<pdfrwt beam="2">  1       -1 0.18000693E+00 0.78355142E+03</pdfrwt>
<totfact> 0.68826939E+00</totfact>
</mgrwt>
</event>
<event>
 4    1  0.2514307E-008  0.6948573E+03  0.7818608E-02  0.1001924E+00
          1   -1    0    0  501    0  0.00000000000E+00  0.00000000000E+00  0.13567345245E+04  0.13567345246E+04  0.50400000000E-02 0. -1.
         -1   -1    0    0    0  501 -0.00000000000E+00 -0.00000000000E+00 -0.16138745525E+04  0.16138745525E+04  0.50400000000E-02 0.  1.
    8880023    1    1    2    0    0  0.18807091697E+03  0.11681532323E+03 -0.15242928480E+04  0.16752001022E+04  0.65864270000E+03 0.  1.
    8880022    1    1    2    0    0 -0.18807091697E+03 -0.11681532323E+03  0.12671528201E+04  0.12954089748E+04  0.15294330000E+03 0.  0.
<mgrwt>
<rscale>  0 0.54814462E+03</rscale>
<asrwt>0</asrwt>
<pdfrwt beam="1">  1        1 0.20872839E+00 0.69485732E+03</pdfrwt>
<pdfrwt beam="2">  1       -1 0.24828839E+00 0.69485732E+03</pdfrwt>
<totfact> 0.63181239E-01</totfact>
</mgrwt>
</event>
<event>
 4    1  0.2514307E-008  0.1226563E+04  0.7818608E-02  0.9131724E-01
          1   -1    0    0  501    0  0.00000000000E+00  0.00000000000E+00  0.22012821059E+04  0.22012821059E+04  0.50400000000E-02 0. -1.
         -1   -1    0    0    0  501 -0.00000000000E+00 -0.00000000000E+00 -0.94648557307E+03  0.94648557308E+03  0.50400000000E-02 0.  1.
    8880023    1    1    2    0    0 -0.61896971784E+03  0.82916975501E+03 -0.31041828666E+03  0.12652334619E+04  0.65864270000E+03 0.  0.
    8880022    1    1    2    0    0  0.61896971784E+03 -0.82916975501E+03  0.15652148195E+04  0.18825342171E+04  0.15294330000E+03 0.  0.
<mgrwt>
<rscale>  0 0.11786812E+04</rscale>
<asrwt>0</asrwt>
<pdfrwt beam="1">  1        1 0.33865878E+00 0.12265628E+04</pdfrwt>
<pdfrwt beam="2">  1       -1 0.14561317E+00 0.12265628E+04</pdfrwt>
<totfact> 0.80580288E-01</totfact>
</mgrwt>
</event>
<event>
 4    1  0.2514307E-008  0.8139959E+03  0.7818608E-02  0.9681313E-01
         -1   -1    0    0    0  501 -0.00000000000E+00  0.00000000000E+00  0.50559049485E+03  0.50559049487E+03  0.50400000000E-02 0.  1.
          1   -1    0    0  501    0  0.00000000000E+00 -0.00000000000E+00 -0.13213002011E+04  0.13213002011E+04  0.50400000000E-02 0. -1.
    8880023    1    1    2    0    0 -0.20611328139E+03 -0.43162070656E+03  0.61286943343E+02  0.81629983142E+03  0.65864270000E+03 0.  1.
    8880022    1    1    2    0    0  0.20611328139E+03  0.43162070656E+03 -0.87699664955E+03  0.10105908645E+04  0.15294330000E+03 0.  0.
<mgrwt>
<rscale>  0 0.72140393E+03</rscale>
<asrwt>0</asrwt>
<pdfrwt beam="1">  1        1 0.20327695E+00 0.81399590E+03</pdfrwt>
<pdfrwt beam="2">  1       -1 0.77783154E-01 0.81399590E+03</pdfrwt>
<totfact> 0.14831667E+01</totfact>
</mgrwt>
</event>
<event>
 4    1  0.2514307E-008  0.1176430E+04  0.7818608E-02  0.9180382E-01
         -1   -1    0    0    0  501 -0.00000000000E+00  0.00000000000E+00  0.70402876171E+03  0.70402876172E+03  0.50400000000E-02 0.  1.
          1   -1    0    0  501    0  0.00000000000E+00 -0.00000000000E+00 -0.34092827135E+04  0.34092827135E+04  0.50400000000E-02 0. -1.
    8880023    1    1    2    0    0  0.60613735405E+03  0.76339654121E+03  0.59330275455E+02  0.11779248953E+04  0.65864270000E+03 0.  1.
    8880022    1    1    2    0    0 -0.60613735405E+03 -0.76339654121E+03 -0.27645842273E+04  0.29353865799E+04  0.15294330000E+03 0.  0.
<mgrwt>
<rscale>  0 0.11258235E+04</rscale>
<asrwt>0</asrwt>
<pdfrwt beam="1">  1        1 0.52450502E+00 0.11764298E+04</pdfrwt>
<pdfrwt beam="2">  1       -1 0.10831212E+00 0.11764298E+04</pdfrwt>
<totfact> 0.23427225E-01</totfact>
</mgrwt>
</event>
<event>
 4    1  0.2514307E-008  0.8067814E+03  0.7818608E-02  0.9696321E-01
          1   -1    0    0  501    0  0.00000000000E+00  0.00000000000E+00  0.22162068444E+03  0.22162068450E+03  0.50400000000E-02 0. -1.
         -1   -1    0    0    0  501 -0.00000000000E+00 -0.00000000000E+00 -0.25698484400E+04  0.25698484400E+04  0.50400000000E-02 0.  1.
    8880023    1    1    2    0    0  0.14434871933E+03 -0.44300054512E+03 -0.20833740989E+04  0.22341315713E+04  0.65864270000E+03 0.  0.
    8880022    1    1    2    0    0 -0.14434871933E+03  0.44300054512E+03 -0.26485365669E+03  0.55733755322E+03  0.15294330000E+03 0.  0.
<mgrwt>
<rscale>  0 0.71236285E+03</rscale>
<asrwt>0</asrwt>
<pdfrwt beam="1">  1        1 0.34095492E-01 0.80678141E+03</pdfrwt>
<pdfrwt beam="2">  1       -1 0.39536128E+00 0.80678141E+03</pdfrwt>
<totfact> 0.10562065E+00</totfact>
</mgrwt>
</event>
<event>
 4    1  0.2514307E-008  0.6970921E+03  0.7818608E-02  0.1000948E+00
         -1   -1    0    0    0  501 -0.00000000000E+00  0.00000000000E+00  0.34903332944E+03  0.34903332948E+03  0.50400000000E-02 0.  1.
          1   -1    0    0  501    0  0.00000000000E+00 -0.00000000000E+00 -0.26280744278E+04  0.26280744278E+04  0.50400000000E-02 0. -1.
    8880023    1    1    2    0    0  0.16147504975E+03  0.16140927620E+03 -0.15828012973E+02  0.69727173928E+03  0.65864270000E+03 0.  1.
    8880022    1    1    2    0    0 -0.16147504975E+03 -0.16140927620E+03 -0.22632130854E+04  0.22798360180E+04  0.15294330000E+03 0.  0.
<mgrwt>
<rscale>  0 0.55236289E+03</rscale>
<asrwt>0</asrwt>
<pdfrwt beam="1">  1        1 0.40431913E+00 0.69709207E+03</pdfrwt>
<pdfrwt beam="2">  1       -1 0.53697437E-01 0.69709207E+03</pdfrwt>
<totfact> 0.41427130E+00</totfact>
</mgrwt>
</event>
<event>
 4    1  0.2514307E-008  0.1466506E+04  0.7818608E-02  0.8933657E-01
         -1   -1    0    0    0  501 -0.00000000000E+00  0.00000000000E+00  0.13636949823E+04  0.13636949823E+04  0.50400000000E-02 0.  1.
          1   -1    0    0  501    0  0.00000000000E+00 -0.00000000000E+00 -0.21918655392E+04  0.21918655392E+04  0.50400000000E-02 0. -1.
    8880023    1    1    2    0    0  0.50556157604E+03  0.12088163309E+04  0.62393445517E+03  0.15937169886E+04  0.65864270000E+03 0.  0.
    8880022    1    1    2    0    0 -0.50556157604E+03 -0.12088163309E+04 -0.14521050121E+04  0.19618435330E+04  0.15294330000E+03 0.  0.
<mgrwt>
<rscale>  0 0.14281980E+04</rscale>
<asrwt>0</asrwt>
<pdfrwt beam="1">  1        1 0.33721008E+00 0.14665059E+04</pdfrwt>
<pdfrwt beam="2">  1       -1 0.20979923E+00 0.14665059E+04</pdfrwt>
<totfact> 0.26990324E-01</totfact>
</mgrwt>
</event>
<event>
 4    1  0.2514307E-008  0.1719264E+04  0.7818608E-02  0.8768562E-01
         -1   -1    0    0    0  501 -0.00000000000E+00  0.00000000000E+00  0.14857753411E+04  0.14857753411E+04  0.50400000000E-02 0.  1.
          1   -1    0    0  501    0  0.00000000000E+00 -0.00000000000E+00 -0.19334176134E+04  0.19334176134E+04  0.50400000000E-02 0. -1.
    8880023    1    1    2    0    0  0.40425227804E+03  0.15357856835E+04 -0.58933683701E+03  0.18174668316E+04  0.65864270000E+03 0.  0.
    8880022    1    1    2    0    0 -0.40425227804E+03 -0.15357856835E+04  0.14169456474E+03  0.16017261229E+04  0.15294330000E+03 0.  0.
<mgrwt>
<rscale>  0 0.16874365E+04</rscale>
<asrwt>0</asrwt>
<pdfrwt beam="1">  1        1 0.29744887E+00 0.17192637E+04</pdfrwt>
<pdfrwt beam="2">  1       -1 0.22858082E+00 0.17192637E+04</pdfrwt>
<totfact> 0.29421458E-01</totfact>
</mgrwt>
</event>
<event>
 4    1  0.2514307E-008  0.6774215E+03  0.7818608E-02  0.1010821E+00
         -1   -1    0    0    0  501 -0.00000000000E+00  0.00000000000E+00  0.22369543769E+03  0.22369543774E+03  0.50400000000E-02 0.  1.
          1   -1    0    0  501    0  0.00000000000E+00 -0.00000000000E+00 -0.10952041371E+04  0.10952041372E+04  0.50400000000E-02 0. -1.
    8880023    1    1    2    0    0  0.10108679370E+03 -0.12194738201E+03 -0.37160077796E+03  0.77264936956E+03  0.65864270000E+03 0.  1.
    8880022    1    1    2    0    0 -0.10108679370E+03  0.12194738201E+03 -0.49990792149E+03  0.54625020533E+03  0.15294330000E+03 0.  0.
<mgrwt>
<rscale>  0 0.51149464E+03</rscale>
<asrwt>0</asrwt>
<pdfrwt beam="1">  1        1 0.16849294E+00 0.67742152E+03</pdfrwt>
<pdfrwt beam="2">  1       -1 0.34414683E-01 0.67742152E+03</pdfrwt>
<totfact> 0.10487159E+02</totfact>
</mgrwt>
</event>
<event>
 4    1  0.2514307E-008  0.7039820E+03  0.7818608E-02  0.9981067E-01
         -1   -1    0    0    0  501 -0.00000000000E+00  0.00000000000E+00  0.85092590456E+03  0.85092590457E+03  0.50400000000E-02 0.  1.
          1   -1    0    0  501    0  0.00000000000E+00 -0.00000000000E+00 -0.70457074087E+03  0.70457074088E+03  0.50400000000E-02 0. -1.
    8880023    1    1    2    0    0  0.13157112568E+03  0.21087799590E+03  0.65983874929E+03  0.96487194570E+03  0.65864270000E+03 0.  0.
    8880022    1    1    2    0    0 -0.13157112568E+03 -0.21087799590E+03 -0.51348358560E+03  0.59062469976E+03  0.15294330000E+03 0.  0.
<mgrwt>
<rscale>  0 0.56488283E+03</rscale>
<asrwt>0</asrwt>
<pdfrwt beam="1">  1        1 0.10839550E+00 0.70398203E+03</pdfrwt>
<pdfrwt beam="2">  1       -1 0.13091168E+00 0.70398203E+03</pdfrwt>
<totfact> 0.13908498E+01</totfact>
</mgrwt>
</event>
<event>
 4    1  0.2514307E-008  0.9466666E+03  0.7818608E-02  0.9454926E-01
          1   -1    0    0  501    0  0.00000000000E+00  0.00000000000E+00  0.11058741017E+04  0.11058741017E+04  0.50400000000E-02 0. -1.
         -1   -1    0    0    0  501 -0.00000000000E+00 -0.00000000000E+00 -0.11842187061E+04  0.11842187061E+04  0.50400000000E-02 0.  1.
    8880023    1    1    2    0    0 -0.18478324125E+03  0.65438724295E+03 -0.83432820189E+03  0.12618562774E+04  0.65864270000E+03 0.  0.
    8880022    1    1    2    0    0  0.18478324125E+03 -0.65438724295E+03  0.75598359747E+03  0.10282365305E+04  0.15294330000E+03 0.  0.
<mgrwt>
<rscale>  0 0.87690072E+03</rscale>
<asrwt>0</asrwt>
<pdfrwt beam="1">  1        1 0.17013448E+00 0.94666663E+03</pdfrwt>
<pdfrwt beam="2">  1       -1 0.18218749E+00 0.94666663E+03</pdfrwt>
<totfact> 0.25467318E+00</totfact>
</mgrwt>
</event>
<event>
 4    1  0.2514307E-008  0.7901207E+03  0.7818608E-02  0.9732579E-01
         -1   -1    0    0    0  501 -0.00000000000E+00  0.00000000000E+00  0.74175327965E+03  0.74175327967E+03  0.50400000000E-02 0.  1.
          1   -1    0    0  501    0  0.00000000000E+00 -0.00000000000E+00 -0.56836800608E+03  0.56836800610E+03  0.50400000000E-02 0. -1.
    8880023    1    1    2    0    0  0.19376087609E+03 -0.39107181931E+03 -0.59447311612E+02  0.79235385661E+03  0.65864270000E+03 0.  0.
    8880022    1    1    2    0    0 -0.19376087609E+03  0.39107181931E+03  0.23283258518E+03  0.51776742916E+03  0.15294330000E+03 0.  0.
<mgrwt>
<rscale>  0 0.69109751E+03</rscale>
<asrwt>0</asrwt>
<pdfrwt beam="1">  1        1 0.87441231E-01 0.79012066E+03</pdfrwt>
<pdfrwt beam="2">  1       -1 0.11411589E+00 0.79012066E+03</pdfrwt>
<totfact> 0.26423915E+01</totfact>
</mgrwt>
</event>
<event>
 4    1  0.2514307E-008  0.6631407E+03  0.7818608E-02  0.1021147E+00
         -1   -1    0    0    0  501 -0.00000000000E+00  0.00000000000E+00  0.35132282008E+03  0.35132282011E+03  0.50400000000E-02 0.  1.
          1   -1    0    0  501    0  0.00000000000E+00 -0.00000000000E+00 -0.85118211182E+03  0.85118211183E+03  0.50400000000E-02 0. -1.
    8880023    1    1    2    0    0 -0.74662331570E+02 -0.19260778405E+02  0.11481524014E+02  0.66324013223E+03  0.65864270000E+03 0.  1.
    8880022    1    1    2    0    0  0.74662331570E+02  0.19260778405E+02 -0.51134081576E+03  0.53926479972E+03  0.15294330000E+03 0.  0.
<mgrwt>
<rscale>  0 0.47274987E+03</rscale>
<asrwt>0</asrwt>
<pdfrwt beam="1">  1        1 0.13095109E+00 0.66314074E+03</pdfrwt>
<pdfrwt beam="2">  1       -1 0.54049665E-01 0.66314074E+03</pdfrwt>
<totfact> 0.71070205E+01</totfact>
</mgrwt>
</event>
<event>
 4    1  0.2514307E-008  0.7020237E+03  0.7818608E-02  0.9988907E-01
         -1   -1    0    0    0  501 -0.00000000000E+00  0.00000000000E+00  0.79120437348E+03  0.79120437350E+03  0.50400000000E-02 0.  1.
          1   -1    0    0  501    0  0.00000000000E+00 -0.00000000000E+00 -0.11670973070E+04  0.11670973070E+04  0.50400000000E-02 0. -1.
    8880023    1    1    2    0    0  0.17349682519E+03 -0.17007628955E+03  0.61089094012E+03  0.93060466343E+03  0.65864270000E+03 0.  1.
    8880022    1    1    2    0    0 -0.17349682519E+03  0.17007628955E+03 -0.98678387360E+03  0.10276970170E+04  0.15294330000E+03 0.  0.
<mgrwt>
<rscale>  0 0.56139312E+03</rscale>
<asrwt>0</asrwt>
<pdfrwt beam="1">  1        1 0.17955343E+00 0.70202372E+03</pdfrwt>
<pdfrwt beam="2">  1       -1 0.12172375E+00 0.70202372E+03</pdfrwt>
<totfact> 0.70493904E+00</totfact>
</mgrwt>
</event>
<event>
 4    1  0.2514307E-008  0.7247784E+03  0.7818608E-02  0.9906737E-01
          1   -1    0    0  501    0  0.00000000000E+00  0.00000000000E+00  0.15200515697E+04  0.15200515697E+04  0.50400000000E-02 0. -1.
         -1   -1    0    0    0  501 -0.00000000000E+00 -0.00000000000E+00 -0.20893925428E+03  0.20893925434E+03  0.50400000000E-02 0.  1.
    8880023    1    1    2    0    0  0.18641543848E+03  0.23820756386E+03  0.59877639335E+03  0.94012602064E+03  0.65864270000E+03 0.  0.
    8880022    1    1    2    0    0 -0.18641543848E+03 -0.23820756386E+03  0.71233592211E+03  0.78886480345E+03  0.15294330000E+03 0.  0.
<mgrwt>
<rscale>  0 0.59935890E+03</rscale>
<asrwt>0</asrwt>
<pdfrwt beam="1">  1        1 0.23385408E+00 0.72477843E+03</pdfrwt>
<pdfrwt beam="2">  1       -1 0.32144502E-01 0.72477843E+03</pdfrwt>
<totfact> 0.58918804E+01</totfact>
</mgrwt>
</event>
<event>
 4    1  0.2514307E-008  0.7913550E+03  0.7818608E-02  0.9729810E-01
         -1   -1    0    0    0  501 -0.00000000000E+00  0.00000000000E+00  0.65211564401E+03  0.65211564403E+03  0.50400000000E-02 0.  1.
          1   -1    0    0  501    0  0.00000000000E+00 -0.00000000000E+00 -0.85521578173E+03  0.85521578175E+03  0.50400000000E-02 0. -1.
    8880023    1    1    2    0    0 -0.30591833860E+03  0.31439853884E+03  0.27778622428E+03  0.83869414197E+03  0.65864270000E+03 0.  1.
    8880022    1    1    2    0    0  0.30591833860E+03 -0.31439853884E+03 -0.48088636200E+03  0.66863728380E+03  0.15294330000E+03 0.  0.
<mgrwt>
<rscale>  0 0.69269331E+03</rscale>
<asrwt>0</asrwt>
<pdfrwt beam="1">  1        1 0.13157166E+00 0.79135496E+03</pdfrwt>
<pdfrwt beam="2">  1       -1 0.10032548E+00 0.79135496E+03</pdfrwt>
<totfact> 0.19192334E+01</totfact>
</mgrwt>
</event>
<event>
 4    1  0.2514307E-008  0.1839352E+04  0.7818608E-02  0.8701075E-01
          1   -1    0    0  501    0  0.00000000000E+00  0.00000000000E+00  0.20456090540E+04  0.20456090540E+04  0.50400000000E-02 0. -1.
         -1   -1    0    0    0  501 -0.00000000000E+00 -0.00000000000E+00 -0.16872202787E+04  0.16872202787E+04  0.50400000000E-02 0.  1.
    8880023    1    1    2    0    0 -0.16103308363E+04  0.59685833681E+03 -0.34369149232E+03  0.18711866088E+04  0.65864270000E+03 0.  1.
    8880022    1    1    2    0    0  0.16103308363E+04 -0.59685833681E+03  0.70208026756E+03  0.18616427240E+04  0.15294330000E+03 0.  0.
<mgrwt>
<rscale>  0 0.18098571E+04</rscale>
<asrwt>0</asrwt>
<pdfrwt beam="1">  1        1 0.31470908E+00 0.18393519E+04</pdfrwt>
<pdfrwt beam="2">  1       -1 0.25957235E+00 0.18393519E+04</pdfrwt>
<totfact> 0.15220597E-01</totfact>
</mgrwt>
</event>
<event>
 4    1  0.2514307E-008  0.1015878E+04  0.7818608E-02  0.9361073E-01
          1   -1    0    0  501    0  0.00000000000E+00  0.00000000000E+00  0.14615864603E+04  0.14615864603E+04  0.50400000000E-02 0. -1.
         -1   -1    0    0    0  501 -0.00000000000E+00 -0.00000000000E+00 -0.67272891598E+03  0.67272891600E+03  0.50400000000E-02 0.  1.
    8880023    1    1    2    0    0  0.32221323190E+03 -0.70311906524E+03 -0.44213054996E+01  0.10158875631E+04  0.65864270000E+03 0.  0.
    8880022    1    1    2    0    0 -0.32221323190E+03  0.70311906524E+03  0.79327884983E+03  0.11184278132E+04  0.15294330000E+03 0.  0.
<mgrwt>
<rscale>  0 0.95349650E+03</rscale>
<asrwt>0</asrwt>
<pdfrwt beam="1">  1        1 0.22485946E+00 0.10158779E+04</pdfrwt>
<pdfrwt beam="2">  1       -1 0.10349676E+00 0.10158779E+04</pdfrwt>
<totfact> 0.61456441E+00</totfact>
</mgrwt>
</event>
<event>
 4    1  0.2514307E-008  0.7016817E+03  0.7818608E-02  0.9990295E-01
          1   -1    0    0  501    0  0.00000000000E+00  0.00000000000E+00  0.44719919704E+03  0.44719919706E+03  0.50400000000E-02 0. -1.
         -1   -1    0    0    0  501 -0.00000000000E+00 -0.00000000000E+00 -0.11488404582E+04  0.11488404582E+04  0.50400000000E-02 0.  1.
    8880023    1    1    2    0    0 -0.47408947070E+02  0.23727480111E+03 -0.97432759846E+03  0.12006962209E+04  0.65864270000E+03 0.  1.
    8880022    1    1    2    0    0  0.47408947070E+02 -0.23727480111E+03  0.27268633732E+03  0.39534343435E+03  0.15294330000E+03 0.  0.
<mgrwt>
<rscale>  0 0.56077824E+03</rscale>
<asrwt>0</asrwt>
<pdfrwt beam="1">  1        1 0.68799877E-01 0.70168166E+03</pdfrwt>
<pdfrwt beam="2">  1       -1 0.17674468E+00 0.70168166E+03</pdfrwt>
<totfact> 0.11750409E+01</totfact>
</mgrwt>
</event>
<event>
 4    1  0.2514307E-008  0.9245365E+03  0.7818608E-02  0.9487738E-01
          1   -1    0    0  501    0  0.00000000000E+00  0.00000000000E+00  0.29150173338E+04  0.29150173339E+04  0.50400000000E-02 0. -1.
         -1   -1    0    0    0  501 -0.00000000000E+00 -0.00000000000E+00 -0.62650013166E+03  0.62650013168E+03  0.50400000000E-02 0.  1.
    8880023    1    1    2    0    0 -0.63070743123E+03  0.15220293125E+03 -0.21631408983E+03  0.94950491722E+03  0.65864270000E+03 0.  1.
    8880022    1    1    2    0    0  0.63070743123E+03 -0.15220293125E+03  0.25048312920E+04  0.25920125483E+04  0.15294330000E+03 0.  0.
<mgrwt>
<rscale>  0 0.85193922E+03</rscale>
<asrwt>0</asrwt>
<pdfrwt beam="1">  1        1 0.44846421E+00 0.92453653E+03</pdfrwt>
<pdfrwt beam="2">  1       -1 0.96384635E-01 0.92453653E+03</pdfrwt>
<totfact> 0.74275500E-01</totfact>
</mgrwt>
</event>
<event>
 4    1  0.2514307E-008  0.1406921E+04  0.7818608E-02  0.8978323E-01
          1   -1    0    0  501    0  0.00000000000E+00  0.00000000000E+00  0.18518509109E+04  0.18518509109E+04  0.50400000000E-02 0. -1.
         -1   -1    0    0    0  501 -0.00000000000E+00 -0.00000000000E+00 -0.13422241618E+04  0.13422241618E+04  0.50400000000E-02 0.  1.
    8880023    1    1    2    0    0  0.80357157448E+03 -0.94862520763E+03 -0.59158701539E+03  0.15262380099E+04  0.65864270000E+03 0.  0.
    8880022    1    1    2    0    0 -0.80357157448E+03  0.94862520763E+03  0.11012137645E+04  0.16678370628E+04  0.15294330000E+03 0.  0.
<mgrwt>
<rscale>  0 0.13666443E+04</rscale>
<asrwt>0</asrwt>
<pdfrwt beam="1">  1        1 0.28490014E+00 0.14069212E+04</pdfrwt>
<pdfrwt beam="2">  1       -1 0.20649603E+00 0.14069212E+04</pdfrwt>
<totfact> 0.48749740E-01</totfact>
</mgrwt>
</event>
<event>
 4    1  0.2514307E-008  0.1329941E+04  0.7818608E-02  0.9040126E-01
         -1   -1    0    0    0  501 -0.00000000000E+00  0.00000000000E+00  0.53773370901E+03  0.53773370903E+03  0.50400000000E-02 0.  1.
          1   -1    0    0  501    0  0.00000000000E+00 -0.00000000000E+00 -0.32847964735E+04  0.32847964735E+04  0.50400000000E-02 0. -1.
    8880023    1    1    2    0    0  0.89770921356E+03  0.72735851755E+03 -0.21104006156E+04  0.24945005933E+04  0.65864270000E+03 0.  0.
    8880022    1    1    2    0    0 -0.89770921356E+03 -0.72735851755E+03 -0.63666214890E+03  0.13280295893E+04  0.15294330000E+03 0.  0.
<mgrwt>
<rscale>  0 0.12867662E+04</rscale>
<asrwt>0</asrwt>
<pdfrwt beam="1">  1        1 0.50535329E+00 0.13299408E+04</pdfrwt>
<pdfrwt beam="2">  1       -1 0.82728265E-01 0.13299408E+04</pdfrwt>
<totfact> 0.52412119E-01</totfact>
</mgrwt>
</event>
<event>
 4    1  0.2514307E-008  0.1131106E+04  0.7818608E-02  0.9227189E-01
          1   -1    0    0  501    0  0.00000000000E+00  0.00000000000E+00  0.57042296452E+03  0.57042296454E+03  0.50400000000E-02 0. -1.
         -1   -1    0    0    0  501 -0.00000000000E+00 -0.00000000000E+00 -0.20883132531E+04  0.20883132531E+04  0.50400000000E-02 0.  1.
    8880023    1    1    2    0    0  0.86064917167E+03 -0.32384270071E+03 -0.12564375464E+04  0.16905728632E+04  0.65864270000E+03 0. -1.
    8880022    1    1    2    0    0 -0.86064917167E+03  0.32384270071E+03 -0.26145274217E+03  0.96816335445E+03  0.15294330000E+03 0.  0.
<mgrwt>
<rscale>  0 0.10777150E+04</rscale>
<asrwt>0</asrwt>
<pdfrwt beam="1">  1        1 0.87757380E-01 0.11311062E+04</pdfrwt>
<pdfrwt beam="2">  1       -1 0.32127896E+00 0.11311062E+04</pdfrwt>
<totfact> 0.88392789E-01</totfact>
</mgrwt>
</event>
<event>
 4    1  0.2514307E-008  0.1333632E+04  0.7818608E-02  0.9037047E-01
          1   -1    0    0  501    0  0.00000000000E+00  0.00000000000E+00  0.29870381505E+04  0.29870381505E+04  0.50400000000E-02 0. -1.
         -1   -1    0    0    0  501 -0.00000000000E+00 -0.00000000000E+00 -0.93628700647E+03  0.93628700648E+03  0.50400000000E-02 0.  1.
    8880023    1    1    2    0    0 -0.63346591090E+03 -0.97133182959E+03 -0.23640828518E+03  0.13544237398E+04  0.65864270000E+03 0.  0.
    8880022    1    1    2    0    0  0.63346591090E+03  0.97133182959E+03  0.22871594292E+04  0.25689014172E+04  0.15294330000E+03 0.  0.
<mgrwt>
<rscale>  0 0.12906070E+04</rscale>
<asrwt>0</asrwt>
<pdfrwt beam="1">  1        1 0.45954433E+00 0.13336322E+04</pdfrwt>
<pdfrwt beam="2">  1       -1 0.14404416E+00 0.13336322E+04</pdfrwt>
<totfact> 0.23127538E-01</totfact>
</mgrwt>
</event>
<event>
 4    1  0.2514307E-008  0.7131376E+03  0.7818608E-02  0.9946529E-01
          1   -1    0    0  501    0  0.00000000000E+00  0.00000000000E+00  0.12939718248E+04  0.12939718248E+04  0.50400000000E-02 0. -1.
         -1   -1    0    0    0  501 -0.00000000000E+00 -0.00000000000E+00 -0.65323231824E+03  0.65323231826E+03  0.50400000000E-02 0.  1.
    8880023    1    1    2    0    0 -0.25418668773E+03 -0.10071793056E+03 -0.42920639296E+03  0.83233605460E+03  0.65864270000E+03 0.  0.
    8880022    1    1    2    0    0  0.25418668773E+03  0.10071793056E+03  0.10699458995E+04  0.11148680885E+04  0.15294330000E+03 0. -1.
<mgrwt>
<rscale>  0 0.58058312E+03</rscale>
<asrwt>0</asrwt>
<pdfrwt beam="1">  1        1 0.19907258E+00 0.71313756E+03</pdfrwt>
<pdfrwt beam="2">  1       -1 0.10049728E+00 0.71313756E+03</pdfrwt>
<totfact> 0.89714915E+00</totfact>
</mgrwt>
</event>
<event>
 4    1  0.2514307E-008  0.1880311E+04  0.7818608E-02  0.8679366E-01
          1   -1    0    0  501    0  0.00000000000E+00  0.00000000000E+00  0.19687488889E+04  0.19687488889E+04  0.50400000000E-02 0. -1.
         -1   -1    0    0    0  501 -0.00000000000E+00 -0.00000000000E+00 -0.21315384650E+04  0.21315384650E+04  0.50400000000E-02 0.  1.
    8880023    1    1    2    0    0 -0.80443838273E+03  0.15667282157E+04 -0.10161145959E+04  0.21373014508E+04  0.65864270000E+03 0.  0.
    8880022    1    1    2    0    0  0.80443838273E+03 -0.15667282157E+04  0.85332501977E+03  0.19629859031E+04  0.15294330000E+03 0.  0.
<mgrwt>
<rscale>  0 0.18515314E+04</rscale>
<asrwt>0</asrwt>
<pdfrwt beam="1">  1        1 0.30288445E+00 0.18803108E+04</pdfrwt>
<pdfrwt beam="2">  1       -1 0.32792899E+00 0.18803108E+04</pdfrwt>
<totfact> 0.61306982E-02</totfact>
</mgrwt>
</event>
<event>
 4    1  0.2514307E-008  0.7268619E+03  0.7818608E-02  0.9900017E-01
          1   -1    0    0  501    0  0.00000000000E+00  0.00000000000E+00  0.39264903254E+04  0.39264903254E+04  0.50400000000E-02 0. -1.
         -1   -1    0    0    0  501 -0.00000000000E+00 -0.00000000000E+00 -0.23590944520E+03  0.23590944525E+03  0.50400000000E-02 0.  1.
    8880023    1    1    2    0    0 -0.78918650274E+02 -0.29713614401E+03  0.35451469119E+03  0.80870817603E+03  0.65864270000E+03 0.  1.
    8880022    1    1    2    0    0  0.78918650274E+02  0.29713614401E+03  0.33360661890E+04  0.33536915946E+04  0.15294330000E+03 0.  0.
<mgrwt>
<rscale>  0 0.60260485E+03</rscale>
<asrwt>0</asrwt>
<pdfrwt beam="1">  1        1 0.60407545E+00 0.72686192E+03</pdfrwt>
<pdfrwt beam="2">  1       -1 0.36293760E-01 0.72686192E+03</pdfrwt>
<totfact> 0.89743084E-01</totfact>
</mgrwt>
</event>
<event>
 4    1  0.2514307E-008  0.9904325E+03  0.7818608E-02  0.9394183E-01
          1   -1    0    0  501    0  0.00000000000E+00  0.00000000000E+00  0.13070880932E+04  0.13070880932E+04  0.50400000000E-02 0. -1.
         -1   -1    0    0    0  501 -0.00000000000E+00 -0.00000000000E+00 -0.13764483600E+04  0.13764483600E+04  0.50400000000E-02 0.  1.
    8880023    1    1    2    0    0 -0.59886535978E+03 -0.43417339353E+03 -0.10515134168E+04  0.14445196180E+04  0.65864270000E+03 0.  1.
    8880022    1    1    2    0    0  0.59886535978E+03  0.43417339353E+03  0.98215315000E+03  0.12390168352E+04  0.15294330000E+03 0.  0.
<mgrwt>
<rscale>  0 0.92555922E+03</rscale>
<asrwt>0</asrwt>
<pdfrwt beam="1">  1        1 0.20109048E+00 0.99043246E+03</pdfrwt>
<pdfrwt beam="2">  1       -1 0.21176129E+00 0.99043246E+03</pdfrwt>
<totfact> 0.11270262E+00</totfact>
</mgrwt>
</event>
<event>
 4    1  0.2514307E-008  0.1053965E+04  0.7818608E-02  0.9314130E-01
          1   -1    0    0  501    0  0.00000000000E+00  0.00000000000E+00  0.33401328550E+04  0.33401328550E+04  0.50400000000E-02 0. -1.
         -1   -1    0    0    0  501 -0.00000000000E+00 -0.00000000000E+00 -0.37564639804E+03  0.37564639808E+03  0.50400000000E-02 0.  1.
    8880023    1    1    2    0    0  0.78564716563E+03  0.24452234264E+03  0.61178797875E+03  0.12186580251E+04  0.65864270000E+03 0. -1.
    8880022    1    1    2    0    0 -0.78564716563E+03 -0.24452234264E+03  0.23526984782E+04  0.24971212280E+04  0.15294330000E+03 0.  0.
<mgrwt>
<rscale>  0 0.99492395E+03</rscale>
<asrwt>0</asrwt>
<pdfrwt beam="1">  1        1 0.51386659E+00 0.10539653E+04</pdfrwt>
<pdfrwt beam="2">  1       -1 0.57791754E-01 0.10539653E+04</pdfrwt>
<totfact> 0.10362157E+00</totfact>
</mgrwt>
</event>
<event>
 4    1  0.2514307E-008  0.1121047E+04  0.7818608E-02  0.9237977E-01
          1   -1    0    0  501    0  0.00000000000E+00  0.00000000000E+00  0.17726036786E+04  0.17726036786E+04  0.50400000000E-02 0. -1.
         -1   -1    0    0    0  501 -0.00000000000E+00 -0.00000000000E+00 -0.78231820874E+03  0.78231820876E+03  0.50400000000E-02 0.  1.
    8880023    1    1    2    0    0 -0.90713129334E+03  0.70606741927E+01 -0.10335757329E+03  0.11258019500E+04  0.65864270000E+03 0.  0.
    8880022    1    1    2    0    0  0.90713129334E+03 -0.70606741927E+01  0.10936430432E+04  0.14291199374E+04  0.15294330000E+03 0.  0.
<mgrwt>
<rscale>  0 0.10669900E+04</rscale>
<asrwt>0</asrwt>
<pdfrwt beam="1">  1        1 0.27270825E+00 0.11210474E+04</pdfrwt>
<pdfrwt beam="2">  1       -1 0.12035665E+00 0.11210474E+04</pdfrwt>
<totfact> 0.25942908E+00</totfact>
</mgrwt>
</event>
<event>
 4    1  0.2514307E-008  0.1235357E+04  0.7818608E-02  0.9123496E-01
          1   -1    0    0  501    0  0.00000000000E+00  0.00000000000E+00  0.96346406646E+03  0.96346406647E+03  0.50400000000E-02 0. -1.
         -1   -1    0    0    0  501 -0.00000000000E+00 -0.00000000000E+00 -0.18014838766E+04  0.18014838766E+04  0.50400000000E-02 0.  1.
    8880023    1    1    2    0    0  0.52386536575E+03 -0.90435720232E+03 -0.11245159234E+04  0.16705218164E+04  0.65864270000E+03 0.  1.
    8880022    1    1    2    0    0 -0.52386536575E+03  0.90435720232E+03  0.28649611325E+03  0.10944261267E+04  0.15294330000E+03 0.  0.
<mgrwt>
<rscale>  0 0.11879201E+04</rscale>
<asrwt>0</asrwt>
<pdfrwt beam="1">  1        1 0.14822524E+00 0.12353571E+04</pdfrwt>
<pdfrwt beam="2">  1       -1 0.27715137E+00 0.12353571E+04</pdfrwt>
<totfact> 0.73564317E-01</totfact>
</mgrwt>
</event>
<event>
 4    1  0.2514307E-008  0.7518082E+03  0.7818608E-02  0.9826796E-01
         -1   -1    0    0    0  501 -0.00000000000E+00  0.00000000000E+00  0.14451737790E+04  0.14451737790E+04  0.50400000000E-02 0.  1.
          1   -1    0    0  501    0  0.00000000000E+00 -0.00000000000E+00 -0.10579938315E+04  0.10579938315E+04  0.50400000000E-02 0. -1.
    8880023    1    1    2    0    0  0.19921201539E+03 -0.30285291779E+03  0.13041629038E+04  0.15053426197E+04  0.65864270000E+03 0.  1.
    8880022    1    1    2    0    0 -0.19921201539E+03  0.30285291779E+03 -0.91698295635E+03  0.99782499074E+03  0.15294330000E+03 0.  0.
<mgrwt>
<rscale>  0 0.63944116E+03</rscale>
<asrwt>0</asrwt>
<pdfrwt beam="1">  1        1 0.16276828E+00 0.75180817E+03</pdfrwt>
<pdfrwt beam="2">  1       -1 0.22233443E+00 0.75180817E+03</pdfrwt>
<totfact> 0.15166240E+00</totfact>
</mgrwt>
</event>
<event>
 4    1  0.2514307E-008  0.9986205E+03  0.7818608E-02  0.9383365E-01
         -1   -1    0    0    0  501 -0.00000000000E+00  0.00000000000E+00  0.10320861455E+04  0.10320861455E+04  0.50400000000E-02 0.  1.
          1   -1    0    0  501    0  0.00000000000E+00 -0.00000000000E+00 -0.15300094250E+04  0.15300094250E+04  0.50400000000E-02 0. -1.
    8880023    1    1    2    0    0 -0.22545515436E+03  0.71596275337E+03  0.64309622551E+03  0.11877776107E+04  0.65864270000E+03 0.  0.
    8880022    1    1    2    0    0  0.22545515436E+03 -0.71596275337E+03 -0.11410195050E+04  0.13743179598E+04  0.15294330000E+03 0.  0.
<mgrwt>
<rscale>  0 0.93457438E+03</rscale>
<asrwt>0</asrwt>
<pdfrwt beam="1">  1        1 0.23538606E+00 0.99862050E+03</pdfrwt>
<pdfrwt beam="2">  1       -1 0.15878248E+00 0.99862050E+03</pdfrwt>
<totfact> 0.18730581E+00</totfact>
</mgrwt>
</event>
<event>
 4    1  0.2688181E-008  0.1072901E+04  0.7818608E-02  0.9291844E-01
         -1   -1    0    0    0  501 -0.00000000000E+00  0.00000000000E+00  0.12889184190E+04  0.12889184190E+04  0.50400000000E-02 0.  1.
          1   -1    0    0  501    0  0.00000000000E+00 -0.00000000000E+00 -0.29930486978E+04  0.29930486978E+04  0.50400000000E-02 0. -1.
    8880023    1    1    2    0    0 -0.72369126967E+03 -0.43997457730E+03  0.98622172084E+03  0.14573092230E+04  0.65864270000E+03 0.  0.
    8880022    1    1    2    0    0  0.72369126967E+03  0.43997457730E+03 -0.26903519997E+04  0.28246578939E+04  0.15294330000E+03 0.  0.
<mgrwt>
<rscale>  0 0.10153715E+04</rscale>
<asrwt>0</asrwt>
<pdfrwt beam="1">  1        1 0.46046903E+00 0.10729012E+04</pdfrwt>
<pdfrwt beam="2">  1       -1 0.19829514E+00 0.10729012E+04</pdfrwt>
<totfact> 0.94877801E-02</totfact>
</mgrwt>
</event>
<event>
 4    1  0.2514307E-008  0.8008827E+03  0.7818608E-02  0.9708891E-01
         -1   -1    0    0    0  501 -0.00000000000E+00  0.00000000000E+00  0.21036430055E+04  0.21036430055E+04  0.50400000000E-02 0.  1.
          1   -1    0    0  501    0  0.00000000000E+00 -0.00000000000E+00 -0.11102619604E+04  0.11102619604E+04  0.50400000000E-02 0. -1.
    8880023    1    1    2    0    0  0.42273712012E+03  0.16998865736E+03  0.19693728281E+04  0.21259920881E+04  0.65864270000E+03 0.  1.
    8880022    1    1    2    0    0 -0.42273712012E+03 -0.16998865736E+03 -0.97599178296E+03  0.10879128778E+04  0.15294330000E+03 0.  0.
<mgrwt>
<rscale>  0 0.70489895E+03</rscale>
<asrwt>0</asrwt>
<pdfrwt beam="1">  1        1 0.17080953E+00 0.80088265E+03</pdfrwt>
<pdfrwt beam="2">  1       -1 0.32363739E+00 0.80088265E+03</pdfrwt>
<totfact> 0.30518785E-01</totfact>
</mgrwt>
</event>
<event>
 4    1  0.2514307E-008  0.8257585E+03  0.7818608E-02  0.9657642E-01
          1   -1    0    0  501    0  0.00000000000E+00  0.00000000000E+00  0.14098236264E+04  0.14098236264E+04  0.50400000000E-02 0. -1.
         -1   -1    0    0    0  501 -0.00000000000E+00 -0.00000000000E+00 -0.12416643145E+04  0.12416643145E+04  0.50400000000E-02 0.  1.
    8880023    1    1    2    0    0  0.16286708556E+03 -0.47068156296E+03 -0.10445893508E+04  0.13315569606E+04  0.65864270000E+03 0.  1.
    8880022    1    1    2    0    0 -0.16286708556E+03  0.47068156296E+03  0.12127486626E+04  0.13199309804E+04  0.15294330000E+03 0.  0.
<mgrwt>
<rscale>  0 0.73595744E+03</rscale>
<asrwt>0</asrwt>
<pdfrwt beam="1">  1        1 0.21689594E+00 0.82575846E+03</pdfrwt>
<pdfrwt beam="2">  1       -1 0.19102528E+00 0.82575846E+03</pdfrwt>
<totfact> 0.13596584E+00</totfact>
</mgrwt>
</event>
<event>
 4    1  0.2514307E-008  0.7076519E+03  0.7818608E-02  0.9966826E-01
          1   -1    0    0  501    0  0.00000000000E+00  0.00000000000E+00  0.63197172220E+03  0.63197172222E+03  0.50400000000E-02 0. -1.
         -1   -1    0    0    0  501 -0.00000000000E+00 -0.00000000000E+00 -0.81050059794E+03  0.81050059796E+03  0.50400000000E-02 0.  1.
    8880023    1    1    2    0    0 -0.21039943007E+03  0.15064221182E+03 -0.59795602973E+03  0.92645702324E+03  0.65864270000E+03 0.  1.
    8880022    1    1    2    0    0  0.21039943007E+03 -0.15064221182E+03  0.41942715399E+03  0.51601529694E+03  0.15294330000E+03 0.  0.
<mgrwt>
<rscale>  0 0.57129098E+03</rscale>
<asrwt>0</asrwt>
<pdfrwt beam="1">  1        1 0.97226418E-01 0.70765189E+03</pdfrwt>
<pdfrwt beam="2">  1       -1 0.12469240E+00 0.70765189E+03</pdfrwt>
<totfact> 0.18450240E+01</totfact>
</mgrwt>
</event>
<event>
 4    1  0.2514307E-008  0.6903600E+03  0.7818608E-02  0.1003982E+00
          1   -1    0    0  501    0  0.00000000000E+00  0.00000000000E+00  0.17829913214E+04  0.17829913214E+04  0.50400000000E-02 0. -1.
         -1   -1    0    0    0  501 -0.00000000000E+00 -0.00000000000E+00 -0.16096723447E+03  0.16096723455E+03  0.50400000000E-02 0.  1.
    8880023    1    1    2    0    0  0.15796424594E+03 -0.13354431793E+03  0.68604353419E+03  0.97326909173E+03  0.65864270000E+03 0.  0.
    8880022    1    1    2    0    0 -0.15796424594E+03  0.13354431793E+03  0.93598055277E+03  0.97068946426E+03  0.15294330000E+03 0.  0.
<mgrwt>
<rscale>  0 0.53938182E+03</rscale>
<asrwt>0</asrwt>
<pdfrwt beam="1">  1        1 0.27430637E+00 0.69036005E+03</pdfrwt>
<pdfrwt beam="2">  1       -1 0.24764189E-01 0.69036005E+03</pdfrwt>
<totfact> 0.61716835E+01</totfact>
</mgrwt>
</event>
<event>
 4    1  0.2514307E-008  0.6601678E+03  0.7818608E-02  0.1023985E+00
          1   -1    0    0  501    0  0.00000000000E+00  0.00000000000E+00  0.11851139617E+04  0.11851139617E+04  0.50400000000E-02 0. -1.
         -1   -1    0    0    0  501 -0.00000000000E+00 -0.00000000000E+00 -0.17636980567E+03  0.17636980574E+03  0.50400000000E-02 0.  1.
    8880023    1    1    2    0    0  0.41612206243E+02 -0.16724169996E+02  0.49938944798E+03  0.82777490938E+03  0.65864270000E+03 0.  1.
    8880022    1    1    2    0    0 -0.41612206243E+02  0.16724169996E+02  0.50935470801E+03  0.53370885804E+03  0.15294330000E+03 0.  0.
<mgrwt>
<rscale>  0 0.46275509E+03</rscale>
<asrwt>0</asrwt>
<pdfrwt beam="1">  1        1 0.18232523E+00 0.66016777E+03</pdfrwt>
<pdfrwt beam="2">  1       -1 0.27133815E-01 0.66016777E+03</pdfrwt>
<totfact> 0.13658618E+02</totfact>
</mgrwt>
</event>
<event>
 4    1  0.2514307E-008  0.1429555E+04  0.7818608E-02  0.8961052E-01
         -1   -1    0    0    0  501 -0.00000000000E+00  0.00000000000E+00  0.18777591499E+04  0.18777591499E+04  0.50400000000E-02 0.  1.
          1   -1    0    0  501    0  0.00000000000E+00 -0.00000000000E+00 -0.14223466400E+04  0.14223466400E+04  0.50400000000E-02 0. -1.
    8880023    1    1    2    0    0 -0.12212210670E+04  0.34414483880E+03  0.11598093870E+04  0.18408651729E+04  0.65864270000E+03 0.  0.
    8880022    1    1    2    0    0  0.12212210670E+04 -0.34414483880E+03 -0.70439687709E+03  0.14592406169E+04  0.15294330000E+03 0.  0.
<mgrwt>
<rscale>  0 0.13900512E+04</rscale>
<asrwt>0</asrwt>
<pdfrwt beam="1">  1        1 0.21882256E+00 0.14295547E+04</pdfrwt>
<pdfrwt beam="2">  1       -1 0.28888602E+00 0.14295547E+04</pdfrwt>
<totfact> 0.27561154E-01</totfact>
</mgrwt>
</event>
<event>
 4    1  0.2514307E-008  0.8018591E+03  0.7818608E-02  0.9706791E-01
         -1   -1    0    0    0  501 -0.00000000000E+00  0.00000000000E+00  0.65101018910E+03  0.65101018912E+03  0.50400000000E-02 0.  1.
          1   -1    0    0  501    0  0.00000000000E+00 -0.00000000000E+00 -0.20044228543E+04  0.20044228543E+04  0.50400000000E-02 0. -1.
    8880023    1    1    2    0    0 -0.32873509174E+03  0.31796380215E+03  0.35743607577E+03  0.87791713422E+03  0.65864270000E+03 0.  1.
    8880022    1    1    2    0    0  0.32873509174E+03 -0.31796380215E+03 -0.17108487410E+04  0.17775159092E+04  0.15294330000E+03 0.  0.
<mgrwt>
<rscale>  0 0.70613911E+03</rscale>
<asrwt>0</asrwt>
<pdfrwt beam="1">  1        1 0.30837274E+00 0.80185906E+03</pdfrwt>
<pdfrwt beam="2">  1       -1 0.10015541E+00 0.80185906E+03</pdfrwt>
<totfact> 0.29310189E+00</totfact>
</mgrwt>
</event>
<event>
 4    1  0.2514307E-008  0.8439276E+03  0.7818608E-02  0.9622818E-01
         -1   -1    0    0    0  501 -0.00000000000E+00  0.00000000000E+00  0.63630545479E+03  0.63630545481E+03  0.50400000000E-02 0.  1.
          1   -1    0    0  501    0  0.00000000000E+00 -0.00000000000E+00 -0.16350914330E+04  0.16350914330E+04  0.50400000000E-02 0. -1.
    8880023    1    1    2    0    0 -0.42285555916E+03 -0.31558955547E+03  0.27222239129E+03  0.88674620271E+03  0.65864270000E+03 0.  1.
    8880022    1    1    2    0    0  0.42285555916E+03  0.31558955547E+03 -0.12710083695E+04  0.13846506851E+04  0.15294330000E+03 0.  0.
<mgrwt>
<rscale>  0 0.75804143E+03</rscale>
<asrwt>0</asrwt>
<pdfrwt beam="1">  1        1 0.25155253E+00 0.84392760E+03</pdfrwt>
<pdfrwt beam="2">  1       -1 0.97893148E-01 0.84392760E+03</pdfrwt>
<totfact> 0.54309081E+00</totfact>
</mgrwt>
</event>
<event>
 4    1  0.2514307E-008  0.8922806E+03  0.7818608E-02  0.9538539E-01
          1   -1    0    0  501    0  0.00000000000E+00  0.00000000000E+00  0.14322615505E+04  0.14322615505E+04  0.50400000000E-02 0. -1.
         -1   -1    0    0    0  501 -0.00000000000E+00 -0.00000000000E+00 -0.65909127923E+03  0.65909127925E+03  0.50400000000E-02 0.  1.
    8880023    1    1    2    0    0 -0.19132462828E+03  0.57074456434E+03 -0.22089159003E+03  0.91921584621E+03  0.65864270000E+03 0.  0.
    8880022    1    1    2    0    0  0.19132462828E+03 -0.57074456434E+03  0.99406186127E+03  0.11721369835E+04  0.15294330000E+03 0.  0.
<mgrwt>
<rscale>  0 0.81501159E+03</rscale>
<asrwt>0</asrwt>
<pdfrwt beam="1">  1        1 0.22034793E+00 0.89228060E+03</pdfrwt>
<pdfrwt beam="2">  1       -1 0.10139866E+00 0.89228060E+03</pdfrwt>
<totfact> 0.68561541E+00</totfact>
</mgrwt>
</event>
<event>
 4    1  0.2514307E-008  0.1271720E+04  0.7818608E-02  0.9090374E-01
         -1   -1    0    0    0  501 -0.00000000000E+00  0.00000000000E+00  0.16905616061E+04  0.16905616062E+04  0.50400000000E-02 0.  1.
          1   -1    0    0  501    0  0.00000000000E+00 -0.00000000000E+00 -0.10002846508E+04  0.10002846509E+04  0.50400000000E-02 0. -1.
    8880023    1    1    2    0    0 -0.10151067037E+04  0.39117836324E+03  0.91861566606E+03  0.15687979730E+04  0.65864270000E+03 0.  0.
    8880022    1    1    2    0    0  0.10151067037E+04 -0.39117836324E+03 -0.22833871074E+03  0.11220482840E+04  0.15294330000E+03 0.  0.
<mgrwt>
<rscale>  0 0.12260284E+04</rscale>
<asrwt>0</asrwt>
<pdfrwt beam="1">  1        1 0.15388995E+00 0.12717202E+04</pdfrwt>
<pdfrwt beam="2">  1       -1 0.26008640E+00 0.12717202E+04</pdfrwt>
<totfact> 0.88306632E-01</totfact>
</mgrwt>
</event>
<event>
 4    1  0.2557671E-008  0.1268437E+04  0.7818608E-02  0.9093307E-01
          1   -1    0    0  501    0  0.00000000000E+00  0.00000000000E+00  0.21535963392E+04  0.21535963392E+04  0.50400000000E-02 0. -1.
         -1   -1    0    0    0  501 -0.00000000000E+00 -0.00000000000E+00 -0.17026680962E+04  0.17026680962E+04  0.50400000000E-02 0.  1.
    8880023    1    1    2    0    0  0.10080640801E+04 -0.39865825321E+03 -0.12839520097E+04  0.18048447473E+04  0.65864270000E+03 0.  0.
    8880022    1    1    2    0    0 -0.10080640801E+04  0.39865825321E+03  0.17348802527E+04  0.20514196881E+04  0.15294330000E+03 0.  0.
<mgrwt>
<rscale>  0 0.12225932E+04</rscale>
<asrwt>0</asrwt>
<pdfrwt beam="1">  1        1 0.33132251E+00 0.12684368E+04</pdfrwt>
<pdfrwt beam="2">  1       -1 0.26194894E+00 0.12684368E+04</pdfrwt>
<totfact> 0.13297968E-01</totfact>
</mgrwt>
</event>
<event>
 4    1  0.2514307E-008  0.7847927E+03  0.7818608E-02  0.9744697E-01
          1   -1    0    0  501    0  0.00000000000E+00  0.00000000000E+00  0.14953365125E+04  0.14953365125E+04  0.50400000000E-02 0. -1.
         -1   -1    0    0    0  501 -0.00000000000E+00 -0.00000000000E+00 -0.35967848579E+03  0.35967848582E+03  0.50400000000E-02 0.  1.
    8880023    1    1    2    0    0 -0.25396184225E+03  0.34291790921E+03  0.19171287085E+03  0.80786963112E+03  0.65864270000E+03 0.  1.
    8880022    1    1    2    0    0  0.25396184225E+03 -0.34291790921E+03  0.94394515589E+03  0.10471453672E+04  0.15294330000E+03 0. -1.
<mgrwt>
<rscale>  0 0.68416783E+03</rscale>
<asrwt>0</asrwt>
<pdfrwt beam="1">  1        1 0.23005177E+00 0.78479266E+03</pdfrwt>
<pdfrwt beam="2">  1       -1 0.55335151E-01 0.78479266E+03</pdfrwt>
<totfact> 0.22398434E+01</totfact>
</mgrwt>
</event>
<event>
 4    1  0.2514307E-008  0.1543501E+04  0.7818608E-02  0.8879514E-01
         -1   -1    0    0    0  501 -0.00000000000E+00  0.00000000000E+00  0.11637997760E+04  0.11637997760E+04  0.50400000000E-02 0.  1.
          1   -1    0    0  501    0  0.00000000000E+00 -0.00000000000E+00 -0.29777147884E+04  0.29777147884E+04  0.50400000000E-02 0. -1.
    8880023    1    1    2    0    0 -0.13139046430E+04 -0.47142240298E+03  0.33024117717E+03  0.15784340133E+04  0.65864270000E+03 0.  0.
    8880022    1    1    2    0    0  0.13139046430E+04  0.47142240298E+03 -0.21441561896E+04  0.25630805511E+04  0.15294330000E+03 0.  0.
<mgrwt>
<rscale>  0 0.15074498E+04</rscale>
<asrwt>0</asrwt>
<pdfrwt beam="1">  1        1 0.45810997E+00 0.15435008E+04</pdfrwt>
<pdfrwt beam="2">  1       -1 0.17904612E+00 0.15435008E+04</pdfrwt>
<totfact> 0.12381772E-01</totfact>
</mgrwt>
</event>
<event>
 4    1  0.2514307E-008  0.9209471E+03  0.7818608E-02  0.9493208E-01
          1   -1    0    0  501    0  0.00000000000E+00  0.00000000000E+00  0.12250462137E+04  0.12250462138E+04  0.50400000000E-02 0. -1.
         -1   -1    0    0    0  501 -0.00000000000E+00 -0.00000000000E+00 -0.51187049845E+03  0.51187049848E+03  0.50400000000E-02 0.  1.
    8880023    1    1    2    0    0 -0.27307495136E+02  0.64310779467E+03  0.44819323910E+03  0.10242171258E+04  0.65864270000E+03 0.  0.
    8880022    1    1    2    0    0  0.27307495136E+02 -0.64310779467E+03  0.26498247619E+03  0.71269958647E+03  0.15294330000E+03 0.  0.
<mgrwt>
<rscale>  0 0.84786396E+03</rscale>
<asrwt>0</asrwt>
<pdfrwt beam="1">  1        1 0.18846865E+00 0.92094709E+03</pdfrwt>
<pdfrwt beam="2">  1       -1 0.78749308E-01 0.92094709E+03</pdfrwt>
<totfact> 0.16722654E+01</totfact>
</mgrwt>
</event>
<event>
 4    1  0.2514307E-008  0.1472653E+04  0.7818608E-02  0.8929192E-01
          1   -1    0    0  501    0  0.00000000000E+00  0.00000000000E+00  0.33506690834E+04  0.33506690834E+04  0.50400000000E-02 0. -1.
         -1   -1    0    0    0  501 -0.00000000000E+00 -0.00000000000E+00 -0.10109800129E+04  0.10109800129E+04  0.50400000000E-02 0.  1.
    8880023    1    1    2    0    0 -0.81451282358E+03  0.10351163717E+04 -0.21020946139E+03  0.14875803396E+04  0.65864270000E+03 0.  1.
    8880022    1    1    2    0    0  0.81451282358E+03 -0.10351163717E+04  0.25498985319E+04  0.28740687568E+04  0.15294330000E+03 0.  0.
<mgrwt>
<rscale>  0 0.14345366E+04</rscale>
<asrwt>0</asrwt>
<pdfrwt beam="1">  1        1 0.51548755E+00 0.14726531E+04</pdfrwt>
<pdfrwt beam="2">  1       -1 0.15553539E+00 0.14726531E+04</pdfrwt>
<totfact> 0.98869040E-02</totfact>
</mgrwt>
</event>
<event>
 4    1  0.2514307E-008  0.9095739E+03  0.7818608E-02  0.9510834E-01
          1   -1    0    0  501    0  0.00000000000E+00  0.00000000000E+00  0.35280747139E+04  0.35280747139E+04  0.50400000000E-02 0. -1.
         -1   -1    0    0    0  501 -0.00000000000E+00 -0.00000000000E+00 -0.29080948333E+03  0.29080948337E+03  0.50400000000E-02 0.  1.
    8880023    1    1    2    0    0 -0.13476908365E+03  0.61265953779E+03  0.56737009840E+03  0.10720230641E+04  0.65864270000E+03 0.  0.
    8880022    1    1    2    0    0  0.13476908365E+03 -0.61265953779E+03  0.26698951321E+04  0.27468611331E+04  0.15294330000E+03 0.  0.
<mgrwt>
<rscale>  0 0.83489769E+03</rscale>
<asrwt>0</asrwt>
<pdfrwt beam="1">  1        1 0.54278071E+00 0.90957387E+03</pdfrwt>
<pdfrwt beam="2">  1       -1 0.44739922E-01 0.90957387E+03</pdfrwt>
<totfact> 0.12414558E+00</totfact>
</mgrwt>
</event>
<event>
 4    1  0.2514307E-008  0.6917130E+03  0.7818608E-02  0.1003349E+00
          1   -1    0    0  501    0  0.00000000000E+00  0.00000000000E+00  0.14369867387E+04  0.14369867387E+04  0.50400000000E-02 0. -1.
         -1   -1    0    0    0  501 -0.00000000000E+00 -0.00000000000E+00 -0.13330693031E+04  0.13330693031E+04  0.50400000000E-02 0.  1.
    8880023    1    1    2    0    0  0.20992776165E+03  0.24226852686E+02 -0.12298451335E+04  0.14110229850E+04  0.65864270000E+03 0.  1.
    8880022    1    1    2    0    0 -0.20992776165E+03 -0.24226852686E+02  0.13337625692E+04  0.13590330568E+04  0.15294330000E+03 0.  0.
<mgrwt>
<rscale>  0 0.54205900E+03</rscale>
<asrwt>0</asrwt>
<pdfrwt beam="1">  1        1 0.22107488E+00 0.69171295E+03</pdfrwt>
<pdfrwt beam="2">  1       -1 0.20508759E+00 0.69171295E+03</pdfrwt>
<totfact> 0.10706833E+00</totfact>
</mgrwt>
</event>
<event>
 4    1  0.2514307E-008  0.1477134E+04  0.7818608E-02  0.8925954E-01
         -1   -1    0    0    0  501 -0.00000000000E+00  0.00000000000E+00  0.14854275378E+04  0.14854275378E+04  0.50400000000E-02 0.  1.
          1   -1    0    0  501    0  0.00000000000E+00 -0.00000000000E+00 -0.17306339532E+04  0.17306339532E+04  0.50400000000E-02 0. -1.
    8880023    1    1    2    0    0 -0.10498164785E+04 -0.80374034411E+03  0.64813841857E+03  0.16130737104E+04  0.65864270000E+03 0.  1.
    8880022    1    1    2    0    0  0.10498164785E+04  0.80374034411E+03 -0.89334483398E+03  0.16029877806E+04  0.15294330000E+03 0.  0.
<mgrwt>
<rscale>  0 0.14391551E+04</rscale>
<asrwt>0</asrwt>
<pdfrwt beam="1">  1        1 0.26625138E+00 0.14771335E+04</pdfrwt>
<pdfrwt beam="2">  1       -1 0.22852731E+00 0.14771335E+04</pdfrwt>
<totfact> 0.41541980E-01</totfact>
</mgrwt>
</event>
<event>
 4    1  0.2514307E-008  0.9405735E+03  0.7818608E-02  0.9463808E-01
         -1   -1    0    0    0  501 -0.00000000000E+00  0.00000000000E+00  0.93620519197E+03  0.93620519198E+03  0.50400000000E-02 0.  1.
          1   -1    0    0  501    0  0.00000000000E+00 -0.00000000000E+00 -0.22315248814E+04  0.22315248814E+04  0.50400000000E-02 0. -1.
    8880023    1    1    2    0    0 -0.54775022092E+03 -0.38837869444E+03  0.62390669728E+03  0.11286886586E+04  0.65864270000E+03 0.  0.
    8880022    1    1    2    0    0  0.54775022092E+03  0.38837869444E+03 -0.19192263867E+04  0.20390414148E+04  0.15294330000E+03 0.  0.
<mgrwt>
<rscale>  0 0.87005481E+03</rscale>
<asrwt>0</asrwt>
<pdfrwt beam="1">  1        1 0.34331152E+00 0.94057351E+03</pdfrwt>
<pdfrwt beam="2">  1       -1 0.14403157E+00 0.94057351E+03</pdfrwt>
<totfact> 0.82607189E-01</totfact>
</mgrwt>
</event>
<event>
 4    1  0.2514307E-008  0.9001935E+03  0.7818608E-02  0.9525721E-01
         -1   -1    0    0    0  501 -0.00000000000E+00  0.00000000000E+00  0.48341192275E+03  0.48341192278E+03  0.50400000000E-02 0.  1.
          1   -1    0    0  501    0  0.00000000000E+00 -0.00000000000E+00 -0.13539948509E+04  0.13539948509E+04  0.50400000000E-02 0. -1.
    8880023    1    1    2    0    0 -0.34322131017E+03 -0.50866226934E+03 -0.21294428367E+03  0.92503710532E+03  0.65864270000E+03 0.  0.
    8880022    1    1    2    0    0  0.34322131017E+03  0.50866226934E+03 -0.65763864446E+03  0.91236966834E+03  0.15294330000E+03 0.  0.
<mgrwt>
<rscale>  0 0.82413790E+03</rscale>
<asrwt>0</asrwt>
<pdfrwt beam="1">  1        1 0.20830690E+00 0.90019352E+03</pdfrwt>
<pdfrwt beam="2">  1       -1 0.74371066E-01 0.90019352E+03</pdfrwt>
<totfact> 0.15296978E+01</totfact>
</mgrwt>
</event>
<event>
 4    1  0.2514307E-008  0.6850589E+03  0.7818608E-02  0.1006596E+00
         -1   -1    0    0    0  501 -0.00000000000E+00  0.00000000000E+00  0.78098490809E+03  0.78098490811E+03  0.50400000000E-02 0.  1.
          1   -1    0    0  501    0  0.00000000000E+00 -0.00000000000E+00 -0.86954945451E+03  0.86954945453E+03  0.50400000000E-02 0. -1.
    8880023    1    1    2    0    0  0.61117926157E+01 -0.18830324190E+03  0.60610714111E+03  0.91469751158E+03  0.65864270000E+03 0.  1.
    8880022    1    1    2    0    0 -0.61117926157E+01  0.18830324190E+03 -0.69467168752E+03  0.73583685106E+03  0.15294330000E+03 0.  0.
<mgrwt>
<rscale>  0 0.52850422E+03</rscale>
<asrwt>0</asrwt>
<pdfrwt beam="1">  1        1 0.13377684E+00 0.68505888E+03</pdfrwt>
<pdfrwt beam="2">  1       -1 0.12015152E+00 0.68505888E+03</pdfrwt>
<totfact> 0.12373173E+01</totfact>
</mgrwt>
</event>
<event>
 4    1  0.2514307E-008  0.8563143E+03  0.7818608E-02  0.9600154E-01
          1   -1    0    0  501    0  0.00000000000E+00  0.00000000000E+00  0.37642211717E+04  0.37642211717E+04  0.50400000000E-02 0. -1.
         -1   -1    0    0    0  501 -0.00000000000E+00 -0.00000000000E+00 -0.23048956277E+03  0.23048956283E+03  0.50400000000E-02 0.  1.
    8880023    1    1    2    0    0  0.49070986038E+03 -0.24221437416E+03  0.70416617100E+03  0.11086587269E+04  0.65864270000E+03 0.  0.
    8880022    1    1    2    0    0 -0.49070986038E+03  0.24221437416E+03  0.28295654379E+04  0.28860520076E+04  0.15294330000E+03 0.  0.
<mgrwt>
<rscale>  0 0.77286020E+03</rscale>
<asrwt>0</asrwt>
<pdfrwt beam="1">  1        1 0.57911096E+00 0.85631430E+03</pdfrwt>
<pdfrwt beam="2">  1       -1 0.35459932E-01 0.85631430E+03</pdfrwt>
<totfact> 0.12411748E+00</totfact>
</mgrwt>
</event>
<event>
 4    1  0.2514307E-008  0.1169424E+04  0.7818608E-02  0.9187433E-01
          1   -1    0    0  501    0  0.00000000000E+00  0.00000000000E+00  0.13680791737E+04  0.13680791737E+04  0.50400000000E-02 0. -1.
         -1   -1    0    0    0  501 -0.00000000000E+00 -0.00000000000E+00 -0.13458308335E+04  0.13458308335E+04  0.50400000000E-02 0.  1.
    8880023    1    1    2    0    0 -0.67299361026E+03 -0.69341315731E+03 -0.81567591171E+03  0.14257908701E+04  0.65864270000E+03 0.  0.
    8880022    1    1    2    0    0  0.67299361026E+03  0.69341315731E+03  0.83792425195E+03  0.12881191370E+04  0.15294330000E+03 0.  0.
<mgrwt>
<rscale>  0 0.11184088E+04</rscale>
<asrwt>0</asrwt>
<pdfrwt beam="1">  1        1 0.21047372E+00 0.11694240E+04</pdfrwt>
<pdfrwt beam="2">  1       -1 0.20705090E+00 0.11694240E+04</pdfrwt>
<totfact> 0.10715640E+00</totfact>
</mgrwt>
</event>
<event>
 4    1  0.2514307E-008  0.1436126E+04  0.7818608E-02  0.8956108E-01
         -1   -1    0    0    0  501 -0.00000000000E+00  0.00000000000E+00  0.18577593177E+04  0.18577593177E+04  0.50400000000E-02 0.  1.
          1   -1    0    0  501    0  0.00000000000E+00 -0.00000000000E+00 -0.18595582511E+04  0.18595582511E+04  0.50400000000E-02 0. -1.
    8880023    1    1    2    0    0  0.12761388450E+04  0.10861368036E+02  0.12641470294E+04  0.19132501769E+04  0.65864270000E+03 0.  0.
    8880022    1    1    2    0    0 -0.12761388450E+04 -0.10861368036E+02 -0.12659459628E+04  0.18040673920E+04  0.15294330000E+03 0.  0.
<mgrwt>
<rscale>  0 0.13968412E+04</rscale>
<asrwt>0</asrwt>
<pdfrwt beam="1">  1        1 0.28608588E+00 0.14361262E+04</pdfrwt>
<pdfrwt beam="2">  1       -1 0.28580913E+00 0.14361262E+04</pdfrwt>
<totfact> 0.14411529E-01</totfact>
</mgrwt>
</event>
<event>
 4    1  0.2514307E-008  0.1193826E+04  0.7818608E-02  0.9163147E-01
         -1   -1    0    0    0  501 -0.00000000000E+00  0.00000000000E+00  0.11731826403E+04  0.11731826403E+04  0.50400000000E-02 0.  1.
          1   -1    0    0  501    0  0.00000000000E+00 -0.00000000000E+00 -0.18807684393E+04  0.18807684393E+04  0.50400000000E-02 0. -1.
    8880023    1    1    2    0    0 -0.26815489511E+03 -0.95890756717E+03  0.65321785351E+03  0.13608506680E+04  0.65864270000E+03 0.  0.
    8880022    1    1    2    0    0  0.26815489511E+03  0.95890756717E+03 -0.13608036525E+04  0.16931004116E+04  0.15294330000E+03 0.  0.
<mgrwt>
<rscale>  0 0.11442041E+04</rscale>
<asrwt>0</asrwt>
<pdfrwt beam="1">  1        1 0.28934899E+00 0.11938262E+04</pdfrwt>
<pdfrwt beam="2">  1       -1 0.18048964E+00 0.11938262E+04</pdfrwt>
<totfact> 0.72786244E-01</totfact>
</mgrwt>
</event>
<event>
 4    1  0.2514307E-008  0.6892927E+03  0.7818608E-02  0.1004491E+00
         -1   -1    0    0    0  501 -0.00000000000E+00  0.00000000000E+00  0.19206655679E+04  0.19206655679E+04  0.50400000000E-02 0.  1.
          1   -1    0    0  501    0  0.00000000000E+00 -0.00000000000E+00 -0.23198732851E+03  0.23198732856E+03  0.50400000000E-02 0. -1.
    8880023    1    1    2    0    0 -0.17430824453E+03 -0.10455058165E+03  0.17585856187E+04  0.18888482662E+04  0.65864270000E+03 0.  1.
    8880022    1    1    2    0    0  0.17430824453E+03  0.10455058165E+03 -0.69907379328E+02  0.26380463023E+03  0.15294330000E+03 0.  0.
<mgrwt>
<rscale>  0 0.53724290E+03</rscale>
<asrwt>0</asrwt>
<pdfrwt beam="1">  1        1 0.35690357E-01 0.68929268E+03</pdfrwt>
<pdfrwt beam="2">  1       -1 0.29548702E+00 0.68929268E+03</pdfrwt>
<totfact> 0.45664380E+00</totfact>
</mgrwt>
</event>
<event>
 4    1  0.2514307E-008  0.7231712E+03  0.7818608E-02  0.9911998E-01
         -1   -1    0    0    0  501 -0.00000000000E+00  0.00000000000E+00  0.85457834227E+03  0.85457834229E+03  0.50400000000E-02 0.  1.
          1   -1    0    0  501    0  0.00000000000E+00 -0.00000000000E+00 -0.87507510724E+03  0.87507510725E+03  0.50400000000E-02 0. -1.
    8880023    1    1    2    0    0 -0.21015439858E+03 -0.21213559286E+03  0.65482366929E+03  0.97558732317E+03  0.65864270000E+03 0.  1.
    8880022    1    1    2    0    0  0.21015439858E+03  0.21213559286E+03 -0.67532043425E+03  0.75406612637E+03  0.15294330000E+03 0.  0.
<mgrwt>
<rscale>  0 0.59683311E+03</rscale>
<asrwt>0</asrwt>
<pdfrwt beam="1">  1        1 0.13462694E+00 0.72317120E+03</pdfrwt>
<pdfrwt beam="2">  1       -1 0.13147359E+00 0.72317120E+03</pdfrwt>
<totfact> 0.97388847E+00</totfact>
</mgrwt>
</event>
<event>
 4    1  0.2514307E-008  0.1314227E+04  0.7818608E-02  0.9053370E-01
          1   -1    0    0  501    0  0.00000000000E+00  0.00000000000E+00  0.16227953009E+04  0.16227953009E+04  0.50400000000E-02 0. -1.
         -1   -1    0    0    0  501 -0.00000000000E+00 -0.00000000000E+00 -0.28406757718E+04  0.28406757718E+04  0.50400000000E-02 0.  1.
    8880023    1    1    2    0    0  0.87353941327E+03 -0.72822493578E+03 -0.24497052286E+04  0.27799727655E+04  0.65864270000E+03 0.  0.
    8880022    1    1    2    0    0 -0.87353941327E+03  0.72822493578E+03  0.12318247577E+04  0.16834983072E+04  0.15294330000E+03 0.  0.
<mgrwt>
<rscale>  0 0.12704036E+04</rscale>
<asrwt>0</asrwt>
<pdfrwt beam="1">  1        1 0.24966082E+00 0.13142271E+04</pdfrwt>
<pdfrwt beam="2">  1       -1 0.43702704E+00 0.13142271E+04</pdfrwt>
<totfact> 0.20808300E-02</totfact>
</mgrwt>
</event>
<event>
 4    1  0.2514307E-008  0.6758457E+03  0.7818608E-02  0.1011778E+00
          1   -1    0    0  501    0  0.00000000000E+00  0.00000000000E+00  0.34225079273E+03  0.34225079276E+03  0.50400000000E-02 0. -1.
         -1   -1    0    0    0  501 -0.00000000000E+00 -0.00000000000E+00 -0.99135808411E+03  0.99135808413E+03  0.50400000000E-02 0.  1.
    8880023    1    1    2    0    0  0.54724326769E+01 -0.15141733967E+03 -0.81720572098E+03  0.10604680829E+04  0.65864270000E+03 0.  1.
    8880022    1    1    2    0    0 -0.54724326769E+01  0.15141733967E+03  0.16809842959E+03  0.27314079395E+03  0.15294330000E+03 0.  0.
<mgrwt>
<rscale>  0 0.50773894E+03</rscale>
<asrwt>0</asrwt>
<pdfrwt beam="1">  1        1 0.52653969E-01 0.67584567E+03</pdfrwt>
<pdfrwt beam="2">  1       -1 0.15251663E+00 0.67584567E+03</pdfrwt>
<totfact> 0.25388468E+01</totfact>
</mgrwt>
</event>
<event>
 4    1  0.2514307E-008  0.7761816E+03  0.7818608E-02  0.9764884E-01
          1   -1    0    0  501    0  0.00000000000E+00  0.00000000000E+00  0.20174906645E+04  0.20174906645E+04  0.50400000000E-02 0. -1.
         -1   -1    0    0    0  501 -0.00000000000E+00 -0.00000000000E+00 -0.33285416600E+03  0.33285416604E+03  0.50400000000E-02 0.  1.
    8880023    1    1    2    0    0  0.38612997210E+03  0.13982589101E+03  0.19880522790E+03  0.80123739307E+03  0.65864270000E+03 0.  1.
    8880022    1    1    2    0    0 -0.38612997210E+03 -0.13982589101E+03  0.14858312706E+04  0.15491074375E+04  0.15294330000E+03 0.  0.
<mgrwt>
<rscale>  0 0.67281592E+03</rscale>
<asrwt>0</asrwt>
<pdfrwt beam="1">  1        1 0.31038318E+00 0.77618158E+03</pdfrwt>
<pdfrwt beam="2">  1       -1 0.51208333E-01 0.77618158E+03</pdfrwt>
<totfact> 0.11575698E+01</totfact>
</mgrwt>
</event>
<event>
 4    1  0.2514307E-008  0.8699715E+03  0.7818608E-02  0.9576066E-01
         -1   -1    0    0    0  501 -0.00000000000E+00  0.00000000000E+00  0.22236593840E+03  0.22236593846E+03  0.50400000000E-02 0.  1.
          1   -1    0    0  501    0  0.00000000000E+00 -0.00000000000E+00 -0.23940234365E+04  0.23940234365E+04  0.50400000000E-02 0. -1.
    8880023    1    1    2    0    0 -0.53160423951E+03  0.20108984850E+03 -0.13345598509E+04  0.15930789047E+04  0.65864270000E+03 0. -1.
    8880022    1    1    2    0    0  0.53160423951E+03 -0.20108984850E+03 -0.83709764718E+03  0.10233104703E+04  0.15294330000E+03 0.  1.
<mgrwt>
<rscale>  0 0.78900725E+03</rscale>
<asrwt>0</asrwt>
<pdfrwt beam="1">  1        1 0.36831128E+00 0.86997149E+03</pdfrwt>
<pdfrwt beam="2">  1       -1 0.34210146E-01 0.86997149E+03</pdfrwt>
<totfact> 0.13373352E+01</totfact>
</mgrwt>
</event>
<event>
 4    1  0.2514307E-008  0.7403944E+03  0.7818608E-02  0.9858800E-01
          1   -1    0    0  501    0  0.00000000000E+00  0.00000000000E+00  0.58703638330E+03  0.58703638332E+03  0.50400000000E-02 0. -1.
         -1   -1    0    0    0  501 -0.00000000000E+00 -0.00000000000E+00 -0.95119279977E+03  0.95119279978E+03  0.50400000000E-02 0.  1.
    8880023    1    1    2    0    0  0.31459191314E+03  0.12411915164E+03 -0.71370502693E+03  0.10283767341E+04  0.65864270000E+03 0.  0.
    8880022    1    1    2    0    0 -0.31459191314E+03 -0.12411915164E+03  0.34954861046E+03  0.50985244895E+03  0.15294330000E+03 0.  0.
<mgrwt>
<rscale>  0 0.62300253E+03</rscale>
<asrwt>0</asrwt>
<pdfrwt beam="1">  1        1 0.90313290E-01 0.74039438E+03</pdfrwt>
<pdfrwt beam="2">  1       -1 0.14633735E+00 0.74039438E+03</pdfrwt>
<totfact> 0.13570597E+01</totfact>
</mgrwt>
</event>
<event>
 4    1  0.2514307E-008  0.7597815E+03  0.7818608E-02  0.9805674E-01
         -1   -1    0    0    0  501 -0.00000000000E+00  0.00000000000E+00  0.23100178216E+03  0.23100178221E+03  0.50400000000E-02 0.  1.
          1   -1    0    0  501    0  0.00000000000E+00 -0.00000000000E+00 -0.24071175299E+04  0.24071175299E+04  0.50400000000E-02 0. -1.
    8880023    1    1    2    0    0 -0.15451462144E+03 -0.34580759276E+03 -0.49198665667E+03  0.90516227057E+03  0.65864270000E+03 0.  1.
    8880022    1    1    2    0    0  0.15451462144E+03  0.34580759276E+03 -0.16841290911E+04  0.17329570416E+04  0.15294330000E+03 0.  0.
<mgrwt>
<rscale>  0 0.65058953E+03</rscale>
<asrwt>0</asrwt>
<pdfrwt beam="1">  1        1 0.37032576E+00 0.75978146E+03</pdfrwt>
<pdfrwt beam="2">  1       -1 0.35538737E-01 0.75978146E+03</pdfrwt>
<totfact> 0.12436854E+01</totfact>
</mgrwt>
</event>
<event>
 4    1  0.2514307E-008  0.8219684E+03  0.7818608E-02  0.9665166E-01
         -1   -1    0    0    0  501 -0.00000000000E+00  0.00000000000E+00  0.29411933239E+03  0.29411933243E+03  0.50400000000E-02 0.  1.
          1   -1    0    0  501    0  0.00000000000E+00 -0.00000000000E+00 -0.31350073156E+04  0.31350073156E+04  0.50400000000E-02 0. -1.
    8880023    1    1    2    0    0  0.38556183393E+03  0.30522777706E+03 -0.36346385999E+03  0.89874251454E+03  0.65864270000E+03 0.  0.
    8880022    1    1    2    0    0 -0.38556183393E+03 -0.30522777706E+03 -0.24774241232E+04  0.25303841335E+04  0.15294330000E+03 0.  0.
<mgrwt>
<rscale>  0 0.73129201E+03</rscale>
<asrwt>0</asrwt>
<pdfrwt beam="1">  1        1 0.48230879E+00 0.82196845E+03</pdfrwt>
<pdfrwt beam="2">  1       -1 0.45249130E-01 0.82196845E+03</pdfrwt>
<totfact> 0.24452367E+00</totfact>
</mgrwt>
</event>
<event>
 4    1  0.2514307E-008  0.8094896E+03  0.7818608E-02  0.9690641E-01
         -1   -1    0    0    0  501 -0.00000000000E+00  0.00000000000E+00  0.35310933741E+03  0.35310933745E+03  0.50400000000E-02 0.  1.
          1   -1    0    0  501    0  0.00000000000E+00 -0.00000000000E+00 -0.18502721439E+04  0.18502721440E+04  0.50400000000E-02 0. -1.
    8880023    1    1    2    0    0  0.11269356880E+03  0.45690631106E+03 -0.22772648905E+03  0.84091187268E+03  0.65864270000E+03 0.  1.
    8880022    1    1    2    0    0 -0.11269356880E+03 -0.45690631106E+03 -0.12694363175E+04  0.13624696087E+04  0.15294330000E+03 0. -1.
<mgrwt>
<rscale>  0 0.71576763E+03</rscale>
<asrwt>0</asrwt>
<pdfrwt beam="1">  1        1 0.28465725E+00 0.80948961E+03</pdfrwt>
<pdfrwt beam="2">  1       -1 0.54324514E-01 0.80948961E+03</pdfrwt>
<totfact> 0.13312551E+01</totfact>
</mgrwt>
</event>
<event>
 4    1  0.2514307E-008  0.8088522E+03  0.7818608E-02  0.9691973E-01
          1   -1    0    0  501    0  0.00000000000E+00  0.00000000000E+00  0.77836779357E+03  0.77836779358E+03  0.50400000000E-02 0. -1.
         -1   -1    0    0    0  501 -0.00000000000E+00 -0.00000000000E+00 -0.85986235594E+03  0.85986235595E+03  0.50400000000E-02 0.  1.
    8880023    1    1    2    0    0  0.43434968026E+03  0.17824698075E+03 -0.53338038682E+03  0.96888413869E+03  0.65864270000E+03 0.  1.
    8880022    1    1    2    0    0 -0.43434968026E+03 -0.17824698075E+03  0.45188582445E+03  0.66934601085E+03  0.15294330000E+03 0.  0.
<mgrwt>
<rscale>  0 0.71496744E+03</rscale>
<asrwt>0</asrwt>
<pdfrwt beam="1">  1        1 0.11974889E+00 0.80885217E+03</pdfrwt>
<pdfrwt beam="2">  1       -1 0.13228652E+00 0.80885217E+03</pdfrwt>
<totfact> 0.11463336E+01</totfact>
</mgrwt>
</event>
<event>
 4    1  0.2514307E-008  0.1268112E+04  0.7818608E-02  0.9093598E-01
          1   -1    0    0  501    0  0.00000000000E+00  0.00000000000E+00  0.19115828939E+04  0.19115828939E+04  0.50400000000E-02 0. -1.
         -1   -1    0    0    0  501 -0.00000000000E+00 -0.00000000000E+00 -0.98167475987E+03  0.98167475989E+03  0.50400000000E-02 0.  1.
    8880023    1    1    2    0    0  0.76834126023E+03  0.76416638160E+03 -0.24070175210E+03  0.12907540783E+04  0.65864270000E+03 0.  0.
    8880022    1    1    2    0    0 -0.76834126023E+03 -0.76416638160E+03  0.11706098861E+04  0.16025035755E+04  0.15294330000E+03 0.  0.
<mgrwt>
<rscale>  0 0.12222537E+04</rscale>
<asrwt>0</asrwt>
<pdfrwt beam="1">  1        1 0.29408968E+00 0.12681123E+04</pdfrwt>
<pdfrwt beam="2">  1       -1 0.15102689E+00 0.12681123E+04</pdfrwt>
<totfact> 0.11416254E+00</totfact>
</mgrwt>
</event>
<event>
 4    1  0.2514307E-008  0.9214299E+03  0.7818608E-02  0.9492470E-01
         -1   -1    0    0    0  501 -0.00000000000E+00  0.00000000000E+00  0.18296861398E+04  0.18296861399E+04  0.50400000000E-02 0.  1.
          1   -1    0    0  501    0  0.00000000000E+00 -0.00000000000E+00 -0.95504890690E+03  0.95504890692E+03  0.50400000000E-02 0. -1.
    8880023    1    1    2    0    0 -0.59325877280E+03  0.25152909002E+03  0.15725392327E+04  0.18226115053E+04  0.65864270000E+03 0.  1.
    8880022    1    1    2    0    0  0.59325877280E+03 -0.25152909002E+03 -0.69790199980E+03  0.96212354143E+03  0.15294330000E+03 0.  0.
<mgrwt>
<rscale>  0 0.84841258E+03</rscale>
<asrwt>0</asrwt>
<pdfrwt beam="1">  1        1 0.14693060E+00 0.92142990E+03</pdfrwt>
<pdfrwt beam="2">  1       -1 0.28149017E+00 0.92142990E+03</pdfrwt>
<totfact> 0.73220070E-01</totfact>
</mgrwt>
</event>
<event>
 4    1  0.2514307E-008  0.7123503E+03  0.7818608E-02  0.9949375E-01
          1   -1    0    0  501    0  0.00000000000E+00  0.00000000000E+00  0.28507441666E+03  0.28507441671E+03  0.50400000000E-02 0. -1.
         -1   -1    0    0    0  501 -0.00000000000E+00 -0.00000000000E+00 -0.11105624853E+04  0.11105624853E+04  0.50400000000E-02 0.  1.
    8880023    1    1    2    0    0 -0.25199098061E+03  0.10066407117E+03 -0.81712545425E+03  0.10840373258E+04  0.65864270000E+03 0.  1.
    8880022    1    1    2    0    0  0.25199098061E+03 -0.10066407117E+03 -0.83626143580E+01  0.31159957616E+03  0.15294330000E+03 0.  1.
<mgrwt>
<rscale>  0 0.57926901E+03</rscale>
<asrwt>0</asrwt>
<pdfrwt beam="1">  1        1 0.43857603E-01 0.71235028E+03</pdfrwt>
<pdfrwt beam="2">  1       -1 0.17085577E+00 0.71235028E+03</pdfrwt>
<totfact> 0.23377311E+01</totfact>
</mgrwt>
</event>
<event>
 4    1  0.2514307E-008  0.7986032E+03  0.7818608E-02  0.9713824E-01
          1   -1    0    0  501    0  0.00000000000E+00  0.00000000000E+00  0.63528699333E+03  0.63528699335E+03  0.50400000000E-02 0. -1.
         -1   -1    0    0    0  501 -0.00000000000E+00 -0.00000000000E+00 -0.11003785619E+04  0.11003785620E+04  0.50400000000E-02 0.  1.
    8880023    1    1    2    0    0  0.35486072091E+03 -0.27933982967E+03 -0.81744015529E+03  0.11427928445E+04  0.65864270000E+03 0.  0.
    8880022    1    1    2    0    0 -0.35486072091E+03  0.27933982967E+03  0.35234858667E+03  0.59287271081E+03  0.15294330000E+03 0.  0.
<mgrwt>
<rscale>  0 0.70199627E+03</rscale>
<asrwt>0</asrwt>
<pdfrwt beam="1">  1        1 0.97736461E-01 0.79860320E+03</pdfrwt>
<pdfrwt beam="2">  1       -1 0.16928901E+00 0.79860320E+03</pdfrwt>
<totfact> 0.80476178E+00</totfact>
</mgrwt>
</event>
<event>
 4    1  0.2514307E-008  0.1121220E+04  0.7818608E-02  0.9237790E-01
          1   -1    0    0  501    0  0.00000000000E+00  0.00000000000E+00  0.83054120331E+03  0.83054120333E+03  0.50400000000E-02 0. -1.
         -1   -1    0    0    0  501 -0.00000000000E+00 -0.00000000000E+00 -0.15688568720E+04  0.15688568720E+04  0.50400000000E-02 0.  1.
    8880023    1    1    2    0    0 -0.47359183368E+02 -0.90613505271E+03 -0.93325957356E+03  0.14588033671E+04  0.65864270000E+03 0.  0.
    8880022    1    1    2    0    0  0.47359183368E+02  0.90613505271E+03  0.19494390490E+03  0.94059470819E+03  0.15294330000E+03 0.  0.
<mgrwt>
<rscale>  0 0.10671740E+04</rscale>
<asrwt>0</asrwt>
<pdfrwt beam="1">  1        1 0.12777557E+00 0.11212198E+04</pdfrwt>
<pdfrwt beam="2">  1       -1 0.24136260E+00 0.11212198E+04</pdfrwt>
<totfact> 0.16392238E+00</totfact>
</mgrwt>
</event>
<event>
 4    1  0.2514307E-008  0.8367300E+03  0.7818608E-02  0.9636377E-01
         -1   -1    0    0    0  501 -0.00000000000E+00  0.00000000000E+00  0.10068879697E+04  0.10068879697E+04  0.50400000000E-02 0.  1.
          1   -1    0    0  501    0  0.00000000000E+00 -0.00000000000E+00 -0.55964665416E+03  0.55964665418E+03  0.50400000000E-02 0. -1.
    8880023    1    1    2    0    0  0.51441593754E+03 -0.41025641449E+02  0.57259388415E+03  0.10138938911E+04  0.65864270000E+03 0.  1.
    8880022    1    1    2    0    0 -0.51441593754E+03  0.41025641449E+02 -0.12535256859E+03  0.55264073277E+03  0.15294330000E+03 0.  0.
<mgrwt>
<rscale>  0 0.74934581E+03</rscale>
<asrwt>0</asrwt>
<pdfrwt beam="1">  1        1 0.86099486E-01 0.83672998E+03</pdfrwt>
<pdfrwt beam="2">  1       -1 0.15490584E+00 0.83672998E+03</pdfrwt>
<totfact> 0.12326913E+01</totfact>
</mgrwt>
</event>
<event>
 4    1  0.2514307E-008  0.9589018E+03  0.7818608E-02  0.9437420E-01
         -1   -1    0    0    0  501 -0.00000000000E+00  0.00000000000E+00  0.18179150736E+04  0.18179150736E+04  0.50400000000E-02 0.  1.
          1   -1    0    0  501    0  0.00000000000E+00 -0.00000000000E+00 -0.14923435683E+04  0.14923435683E+04  0.50400000000E-02 0. -1.
    8880023    1    1    2    0    0 -0.43687403635E+03  0.54297652887E+03  0.15909519414E+04  0.18575846470E+04  0.65864270000E+03 0.  0.
    8880022    1    1    2    0    0  0.43687403635E+03 -0.54297652887E+03 -0.12653804361E+04  0.14526739949E+04  0.15294330000E+03 0.  0.
<mgrwt>
<rscale>  0 0.89059083E+03</rscale>
<asrwt>0</asrwt>
<pdfrwt beam="1">  1        1 0.22959132E+00 0.95890179E+03</pdfrwt>
<pdfrwt beam="2">  1       -1 0.27967924E+00 0.95890179E+03</pdfrwt>
<totfact> 0.30266769E-01</totfact>
</mgrwt>
</event>
<event>
 4    1  0.2514307E-008  0.1497748E+04  0.7818608E-02  0.8911228E-01
          1   -1    0    0  501    0  0.00000000000E+00  0.00000000000E+00  0.33384903551E+04  0.33384903551E+04  0.50400000000E-02 0. -1.
         -1   -1    0    0    0  501 -0.00000000000E+00 -0.00000000000E+00 -0.62316444173E+03  0.62316444175E+03  0.50400000000E-02 0.  1.
    8880023    1    1    2    0    0  0.12774467804E+04 -0.42138712058E+03  0.11254703292E+04  0.18734809981E+04  0.65864270000E+03 0.  0.
    8880022    1    1    2    0    0 -0.12774467804E+04  0.42138712058E+03  0.15898555842E+04  0.20881737988E+04  0.15294330000E+03 0.  0.
<mgrwt>
<rscale>  0 0.14603912E+04</rscale>
<asrwt>0</asrwt>
<pdfrwt beam="1">  1        1 0.51361388E+00 0.14977475E+04</pdfrwt>
<pdfrwt beam="2">  1       -1 0.95871456E-01 0.14977475E+04</pdfrwt>
<totfact> 0.33694763E-01</totfact>
</mgrwt>
</event>
<event>
 4    1  0.2514307E-008  0.1062320E+04  0.7818608E-02  0.9304216E-01
          1   -1    0    0  501    0  0.00000000000E+00  0.00000000000E+00  0.18283242609E+04  0.18283242609E+04  0.50400000000E-02 0. -1.
         -1   -1    0    0    0  501 -0.00000000000E+00 -0.00000000000E+00 -0.64190589053E+03  0.64190589055E+03  0.50400000000E-02 0.  1.
    8880023    1    1    2    0    0 -0.47947312423E+03 -0.68177628224E+03  0.12255946956E+04  0.16219142826E+04  0.65864270000E+03 0. -1.
    8880022    1    1    2    0    0  0.47947312423E+03  0.68177628224E+03 -0.39176325228E+02  0.84831586886E+03  0.15294330000E+03 0.  0.
<mgrwt>
<rscale>  0 0.10039567E+04</rscale>
<asrwt>0</asrwt>
<pdfrwt beam="1">  1        1 0.28128065E+00 0.10623199E+04</pdfrwt>
<pdfrwt beam="2">  1       -1 0.98754754E-01 0.10623199E+04</pdfrwt>
<totfact> 0.38265360E+00</totfact>
</mgrwt>
</event>
<event>
 4    1  0.2514307E-008  0.7305950E+03  0.7818608E-02  0.9888242E-01
          1   -1    0    0  501    0  0.00000000000E+00  0.00000000000E+00  0.86107102497E+03  0.86107102498E+03  0.50400000000E-02 0. -1.
         -1   -1    0    0    0  501 -0.00000000000E+00 -0.00000000000E+00 -0.44087727047E+03  0.44087727050E+03  0.50400000000E-02 0.  1.
    8880023    1    1    2    0    0 -0.30617057544E+03 -0.78857453647E+02 -0.29700412753E+02  0.73119849565E+03  0.65864270000E+03 0.  1.
    8880022    1    1    2    0    0  0.30617057544E+03  0.78857453647E+02  0.44989416725E+03  0.57074979983E+03  0.15294330000E+03 0.  0.
<mgrwt>
<rscale>  0 0.60834535E+03</rscale>
<asrwt>0</asrwt>
<pdfrwt beam="1">  1        1 0.13247246E+00 0.73059505E+03</pdfrwt>
<pdfrwt beam="2">  1       -1 0.67827273E-01 0.73059505E+03</pdfrwt>
<totfact> 0.44259672E+01</totfact>
</mgrwt>
</event>
<event>
 4    1  0.2514307E-008  0.8752512E+03  0.7818608E-02  0.9566990E-01
          1   -1    0    0  501    0  0.00000000000E+00  0.00000000000E+00  0.25204194361E+04  0.25204194361E+04  0.50400000000E-02 0. -1.
         -1   -1    0    0    0  501 -0.00000000000E+00 -0.00000000000E+00 -0.32892871740E+03  0.32892871744E+03  0.50400000000E-02 0.  1.
    8880023    1    1    2    0    0 -0.50860123399E+03 -0.27125488862E+03  0.40210009933E+03  0.96319734528E+03  0.65864270000E+03 0.  1.
    8880022    1    1    2    0    0  0.50860123399E+03  0.27125488862E+03  0.17893906194E+04  0.18861508082E+04  0.15294330000E+03 0.  0.
<mgrwt>
<rscale>  0 0.79520076E+03</rscale>
<asrwt>0</asrwt>
<pdfrwt beam="1">  1        1 0.38775684E+00 0.87525118E+03</pdfrwt>
<pdfrwt beam="2">  1       -1 0.50604418E-01 0.87525118E+03</pdfrwt>
<totfact> 0.53331941E+00</totfact>
</mgrwt>
</event>
<event>
 4    1  0.2514307E-008  0.7782163E+03  0.7818608E-02  0.9760044E-01
         -1   -1    0    0    0  501 -0.00000000000E+00  0.00000000000E+00  0.84836209240E+03  0.84836209242E+03  0.50400000000E-02 0.  1.
          1   -1    0    0  501    0  0.00000000000E+00 -0.00000000000E+00 -0.19655536854E+04  0.19655536854E+04  0.50400000000E-02 0. -1.
    8880023    1    1    2    0    0  0.32154053941E+02  0.41325114635E+03  0.63653973134E+03  0.10053872035E+04  0.65864270000E+03 0.  1.
    8880022    1    1    2    0    0 -0.32154053941E+02 -0.41325114635E+03 -0.17537313243E+04  0.18085285743E+04  0.15294330000E+03 0.  0.
<mgrwt>
<rscale>  0 0.67551623E+03</rscale>
<asrwt>0</asrwt>
<pdfrwt beam="1">  1        1 0.30239287E+00 0.77821629E+03</pdfrwt>
<pdfrwt beam="2">  1       -1 0.13051725E+00 0.77821629E+03</pdfrwt>
<totfact> 0.16565042E+00</totfact>
</mgrwt>
</event>
<event>
 4    1  0.2514307E-008  0.7599692E+03  0.7818608E-02  0.9805187E-01
         -1   -1    0    0    0  501 -0.00000000000E+00  0.00000000000E+00  0.78506667603E+03  0.78506667604E+03  0.50400000000E-02 0.  1.
          1   -1    0    0  501    0  0.00000000000E+00 -0.00000000000E+00 -0.18485916460E+04  0.18485916460E+04  0.50400000000E-02 0. -1.
    8880023    1    1    2    0    0  0.60350910698E+01  0.37908640298E+03  0.56985815186E+03  0.94989022669E+03  0.65864270000E+03 0.  1.
    8880022    1    1    2    0    0 -0.60350910698E+01 -0.37908640298E+03 -0.16333831218E+04  0.16837680953E+04  0.15294330000E+03 0.  0.
<mgrwt>
<rscale>  0 0.65084904E+03</rscale>
<asrwt>0</asrwt>
<pdfrwt beam="1">  1        1 0.28439871E+00 0.75996916E+03</pdfrwt>
<pdfrwt beam="2">  1       -1 0.12077949E+00 0.75996916E+03</pdfrwt>
<totfact> 0.24133741E+00</totfact>
</mgrwt>
</event>
<event>
 4    1  0.2514307E-008  0.7202982E+03  0.7818608E-02  0.9921578E-01
          1   -1    0    0  501    0  0.00000000000E+00  0.00000000000E+00  0.46971939684E+04  0.46971939684E+04  0.50400000000E-02 0. -1.
         -1   -1    0    0    0  501 -0.00000000000E+00 -0.00000000000E+00 -0.34279631503E+03  0.34279631507E+03  0.50400000000E-02 0.  1.
    8880023    1    1    2    0    0 -0.21981906382E+03  0.19156967859E+03  0.48937735477E+02  0.72195877361E+03  0.65864270000E+03 0.  1.
    8880022    1    1    2    0    0  0.21981906382E+03 -0.19156967859E+03  0.43054599179E+04  0.43180315099E+04  0.15294330000E+03 0.  0.
<mgrwt>
<rscale>  0 0.59226824E+03</rscale>
<asrwt>0</asrwt>
<pdfrwt beam="1">  1        1 0.72264519E+00 0.72029825E+03</pdfrwt>
<pdfrwt beam="2">  1       -1 0.52737897E-01 0.72029825E+03</pdfrwt>
<totfact> 0.83626742E-02</totfact>
</mgrwt>
</event>
<event>
 4    1  0.2514307E-008  0.1099119E+04  0.7818608E-02  0.9262038E-01
         -1   -1    0    0    0  501 -0.00000000000E+00  0.00000000000E+00  0.57995753085E+03  0.57995753087E+03  0.50400000000E-02 0.  1.
          1   -1    0    0  501    0  0.00000000000E+00 -0.00000000000E+00 -0.26496959418E+04  0.26496959418E+04  0.50400000000E-02 0. -1.
    8880023    1    1    2    0    0  0.86131223717E+03 -0.17998169662E+03 -0.14608541404E+03  0.11087846209E+04  0.65864270000E+03 0.  0.
    8880022    1    1    2    0    0 -0.86131223717E+03  0.17998169662E+03 -0.19236529969E+04  0.21208688518E+04  0.15294330000E+03 0.  0.
<mgrwt>
<rscale>  0 0.10435413E+04</rscale>
<asrwt>0</asrwt>
<pdfrwt beam="1">  1        1 0.40764552E+00 0.10991189E+04</pdfrwt>
<pdfrwt beam="2">  1       -1 0.89224237E-01 0.10991189E+04</pdfrwt>
<totfact> 0.13194165E+00</totfact>
</mgrwt>
</event>
<event>
 4    1  0.2514307E-008  0.8940276E+03  0.7818608E-02  0.9535688E-01
          1   -1    0    0  501    0  0.00000000000E+00  0.00000000000E+00  0.68415459147E+03  0.68415459148E+03  0.50400000000E-02 0. -1.
         -1   -1    0    0    0  501 -0.00000000000E+00 -0.00000000000E+00 -0.16936815650E+04  0.16936815650E+04  0.50400000000E-02 0.  1.
    8880023    1    1    2    0    0  0.34152693608E+03 -0.49883321398E+03 -0.13860636938E+04  0.16493810939E+04  0.65864270000E+03 0.  1.
    8880022    1    1    2    0    0 -0.34152693608E+03  0.49883321398E+03  0.37653672028E+03  0.72845506256E+03  0.15294330000E+03 0.  0.
<mgrwt>
<rscale>  0 0.81703061E+03</rscale>
<asrwt>0</asrwt>
<pdfrwt beam="1">  1        1 0.10525455E+00 0.89402764E+03</pdfrwt>
<pdfrwt beam="2">  1       -1 0.26056639E+00 0.89402764E+03</pdfrwt>
<totfact> 0.17185488E+00</totfact>
</mgrwt>
</event>
<event>
 4    1  0.2514307E-008  0.1289476E+04  0.7818608E-02  0.9074702E-01
         -1   -1    0    0    0  501 -0.00000000000E+00  0.00000000000E+00  0.12111741579E+04  0.12111741579E+04  0.50400000000E-02 0.  1.
          1   -1    0    0  501    0  0.00000000000E+00 -0.00000000000E+00 -0.14308405084E+04  0.14308405084E+04  0.50400000000E-02 0. -1.
    8880023    1    1    2    0    0  0.76747213833E+03  0.79995264513E+03  0.41610459848E+03  0.13549505381E+04  0.65864270000E+03 0.  0.
    8880022    1    1    2    0    0 -0.76747213833E+03 -0.79995264513E+03 -0.63577094897E+03  0.12870641282E+04  0.15294330000E+03 0.  0.
<mgrwt>
<rscale>  0 0.12445855E+04</rscale>
<asrwt>0</asrwt>
<pdfrwt beam="1">  1        1 0.22012931E+00 0.12894758E+04</pdfrwt>
<pdfrwt beam="2">  1       -1 0.18633449E+00 0.12894758E+04</pdfrwt>
<totfact> 0.13295244E+00</totfact>
</mgrwt>
</event>
<event>
 4    1  0.2514307E-008  0.7183693E+03  0.7818608E-02  0.9928143E-01
         -1   -1    0    0    0  501 -0.00000000000E+00  0.00000000000E+00  0.28558790108E+03  0.28558790112E+03  0.50400000000E-02 0.  1.
          1   -1    0    0  501    0  0.00000000000E+00 -0.00000000000E+00 -0.25707850398E+04  0.25707850398E+04  0.50400000000E-02 0. -1.
    8880023    1    1    2    0    0  0.27920686623E+03 -0.65480795500E+02 -0.19957327044E+03  0.74557622365E+03  0.65864270000E+03 0.  1.
    8880022    1    1    2    0    0 -0.27920686623E+03  0.65480795500E+02 -0.20856238683E+04  0.21107967173E+04  0.15294330000E+03 0.  0.
<mgrwt>
<rscale>  0 0.58916540E+03</rscale>
<asrwt>0</asrwt>
<pdfrwt beam="1">  1        1 0.39550538E+00 0.71836927E+03</pdfrwt>
<pdfrwt beam="2">  1       -1 0.43936602E-01 0.71836927E+03</pdfrwt>
<totfact> 0.65892588E+00</totfact>
</mgrwt>
</event>
<event>
 4    1  0.2514307E-008  0.7016212E+03  0.7818608E-02  0.9990541E-01
          1   -1    0    0  501    0  0.00000000000E+00  0.00000000000E+00  0.50770884852E+03  0.50770884855E+03  0.50400000000E-02 0. -1.
         -1   -1    0    0    0  501 -0.00000000000E+00 -0.00000000000E+00 -0.26243211004E+04  0.26243211004E+04  0.50400000000E-02 0.  1.
    8880023    1    1    2    0    0 -0.20842485389E+03  0.12256099365E+03 -0.25321319983E+04  0.26275396819E+04  0.65864270000E+03 0.  0.
    8880022    1    1    2    0    0  0.20842485389E+03 -0.12256099365E+03  0.41551974642E+03  0.50449026706E+03  0.15294330000E+03 0.  0.
<mgrwt>
<rscale>  0 0.56066942E+03</rscale>
<asrwt>0</asrwt>
<pdfrwt beam="1">  1        1 0.78109055E-01 0.70162121E+03</pdfrwt>
<pdfrwt beam="2">  1       -1 0.40374170E+00 0.70162121E+03</pdfrwt>
<totfact> 0.31771425E-01</totfact>
</mgrwt>
</event>
<event>
 4    1  0.4828078E-008  0.1118022E+04  0.7818608E-02  0.9241252E-01
          1   -1    0    0  501    0  0.00000000000E+00  0.00000000000E+00  0.17844312632E+04  0.17844312632E+04  0.50400000000E-02 0. -1.
         -1   -1    0    0    0  501 -0.00000000000E+00 -0.00000000000E+00 -0.35756585178E+04  0.35756585178E+04  0.50400000000E-02 0.  1.
    8880023    1    1    2    0    0  0.85330235069E+03 -0.29671147382E+03 -0.33612181861E+04  0.35422818213E+04  0.65864270000E+03 0.  1.
    8880022    1    1    2    0    0 -0.85330235069E+03  0.29671147382E+03  0.15699909315E+04  0.18178079597E+04  0.15294330000E+03 0.  0.
<mgrwt>
<rscale>  0 0.10637604E+04</rscale>
<asrwt>0</asrwt>
<pdfrwt beam="1">  1        1 0.27452789E+00 0.11180218E+04</pdfrwt>
<pdfrwt beam="2">  1       -1 0.55010131E+00 0.11180218E+04</pdfrwt>
<totfact> 0.30788702E-03</totfact>
</mgrwt>
</event>
<event>
 4    1  0.2514307E-008  0.6822925E+03  0.7818608E-02  0.1008055E+00
         -1   -1    0    0    0  501 -0.00000000000E+00  0.00000000000E+00  0.12127499659E+04  0.12127499659E+04  0.50400000000E-02 0.  1.
          1   -1    0    0  501    0  0.00000000000E+00 -0.00000000000E+00 -0.25626423936E+03  0.25626423941E+03  0.50400000000E-02 0. -1.
    8880023    1    1    2    0    0 -0.13723926284E+03  0.11348259472E+03  0.10187789877E+04  0.12261458913E+04  0.65864270000E+03 0.  1.
    8880022    1    1    2    0    0  0.13723926284E+03 -0.11348259472E+03 -0.62293261187E+02  0.24286831406E+03  0.15294330000E+03 0.  0.
<mgrwt>
<rscale>  0 0.52254828E+03</rscale>
<asrwt>0</asrwt>
<pdfrwt beam="1">  1        1 0.39425268E-01 0.68229255E+03</pdfrwt>
<pdfrwt beam="2">  1       -1 0.18657692E+00 0.68229255E+03</pdfrwt>
<totfact> 0.20779020E+01</totfact>
</mgrwt>
</event>
<event>
 4    1  0.2514307E-008  0.1263977E+04  0.7818608E-02  0.9097309E-01
         -1   -1    0    0    0  501 -0.00000000000E+00  0.00000000000E+00  0.88117630617E+03  0.88117630618E+03  0.50400000000E-02 0.  1.
          1   -1    0    0  501    0  0.00000000000E+00 -0.00000000000E+00 -0.16858075107E+04  0.16858075107E+04  0.50400000000E-02 0. -1.
    8880023    1    1    2    0    0 -0.84010828698E+03 -0.67679164996E+03 -0.96842545028E+02  0.12676819617E+04  0.65864270000E+03 0.  0.
    8880022    1    1    2    0    0  0.84010828698E+03  0.67679164996E+03 -0.70778865953E+03  0.12993018552E+04  0.15294330000E+03 0.  0.
<mgrwt>
<rscale>  0 0.12179261E+04</rscale>
<asrwt>0</asrwt>
<pdfrwt beam="1">  1        1 0.25935500E+00 0.12639775E+04</pdfrwt>
<pdfrwt beam="2">  1       -1 0.13556559E+00 0.12639775E+04</pdfrwt>
<totfact> 0.21657866E+00</totfact>
</mgrwt>
</event>
<event>
 4    1  0.2514307E-008  0.1640465E+04  0.7818608E-02  0.8816332E-01
         -1   -1    0    0    0  501 -0.00000000000E+00  0.00000000000E+00  0.12370011310E+04  0.12370011310E+04  0.50400000000E-02 0.  1.
          1   -1    0    0  501    0  0.00000000000E+00 -0.00000000000E+00 -0.28583224026E+04  0.28583224026E+04  0.50400000000E-02 0. -1.
    8880023    1    1    2    0    0  0.23457139987E+02 -0.15022530086E+04  0.28317335448E+03  0.16647257114E+04  0.65864270000E+03 0.  1.
    8880022    1    1    2    0    0 -0.23457139987E+02  0.15022530086E+04 -0.19044946261E+04  0.24305978222E+04  0.15294330000E+03 0.  0.
<mgrwt>
<rscale>  0 0.16068814E+04</rscale>
<asrwt>0</asrwt>
<pdfrwt beam="1">  1        1 0.43974191E+00 0.16404647E+04</pdfrwt>
<pdfrwt beam="2">  1       -1 0.19030787E+00 0.16404647E+04</pdfrwt>
<totfact> 0.12395975E-01</totfact>
</mgrwt>
</event>
<event>
 4    1  0.2514307E-008  0.1063596E+04  0.7818608E-02  0.9302712E-01
         -1   -1    0    0    0  501 -0.00000000000E+00  0.00000000000E+00  0.79074498306E+03  0.79074498307E+03  0.50400000000E-02 0.  1.
          1   -1    0    0  501    0  0.00000000000E+00 -0.00000000000E+00 -0.14821742021E+04  0.14821742021E+04  0.50400000000E-02 0. -1.
    8880023    1    1    2    0    0 -0.14538036658E+03 -0.82236959843E+03 -0.90605354499E+03  0.13972009305E+04  0.65864270000E+03 0.  0.
    8880022    1    1    2    0    0  0.14538036658E+03  0.82236959843E+03  0.21462432593E+03  0.87571825475E+03  0.15294330000E+03 0.  0.
<mgrwt>
<rscale>  0 0.10053353E+04</rscale>
<asrwt>0</asrwt>
<pdfrwt beam="1">  1        1 0.22802680E+00 0.10635965E+04</pdfrwt>
<pdfrwt beam="2">  1       -1 0.12165307E+00 0.10635965E+04</pdfrwt>
<totfact> 0.40190092E+00</totfact>
</mgrwt>
</event>
<event>
 4    1  0.2514307E-008  0.8573460E+03  0.7818608E-02  0.9598302E-01
          1   -1    0    0  501    0  0.00000000000E+00  0.00000000000E+00  0.11633641611E+04  0.11633641611E+04  0.50400000000E-02 0. -1.
         -1   -1    0    0    0  501 -0.00000000000E+00 -0.00000000000E+00 -0.47983833600E+03  0.47983833603E+03  0.50400000000E-02 0.  1.
    8880023    1    1    2    0    0  0.31945406190E+03 -0.44629702334E+03  0.16554039670E+03  0.87318140149E+03  0.65864270000E+03 0.  0.
    8880022    1    1    2    0    0 -0.31945406190E+03  0.44629702334E+03  0.51798542841E+03  0.77002109566E+03  0.15294330000E+03 0.  0.
<mgrwt>
<rscale>  0 0.77408668E+03</rscale>
<asrwt>0</asrwt>
<pdfrwt beam="1">  1        1 0.17897910E+00 0.85734598E+03</pdfrwt>
<pdfrwt beam="2">  1       -1 0.73821283E-01 0.85734598E+03</pdfrwt>
<totfact> 0.21385750E+01</totfact>
</mgrwt>
</event>
<event>
 4    1  0.2514307E-008  0.8595752E+03  0.7818608E-02  0.9594320E-01
          1   -1    0    0  501    0  0.00000000000E+00  0.00000000000E+00  0.30743986769E+04  0.30743986769E+04  0.50400000000E-02 0. -1.
         -1   -1    0    0    0  501 -0.00000000000E+00 -0.00000000000E+00 -0.26657587231E+03  0.26657587236E+03  0.50400000000E-02 0.  1.
    8880023    1    1    2    0    0  0.13788407031E+03 -0.53483389429E+03  0.57110939975E+03  0.10320055543E+04  0.65864270000E+03 0.  0.
    8880022    1    1    2    0    0 -0.13788407031E+03  0.53483389429E+03  0.22367134048E+04  0.23089689950E+04  0.15294330000E+03 0.  0.
<mgrwt>
<rscale>  0 0.77673294E+03</rscale>
<asrwt>0</asrwt>
<pdfrwt beam="1">  1        1 0.47298443E+00 0.85957520E+03</pdfrwt>
<pdfrwt beam="2">  1       -1 0.41011671E-01 0.85957520E+03</pdfrwt>
<totfact> 0.32242716E+00</totfact>
</mgrwt>
</event>
<event>
 4    1  0.2514307E-008  0.7705406E+03  0.7818608E-02  0.9778546E-01
          1   -1    0    0  501    0  0.00000000000E+00  0.00000000000E+00  0.98639280940E+03  0.98639280942E+03  0.50400000000E-02 0. -1.
         -1   -1    0    0    0  501 -0.00000000000E+00 -0.00000000000E+00 -0.14146516006E+04  0.14146516006E+04  0.50400000000E-02 0.  1.
    8880023    1    1    2    0    0  0.22786257656E+03 -0.32863538748E+03 -0.12534740111E+04  0.14713700672E+04  0.65864270000E+03 0.  1.
    8880022    1    1    2    0    0 -0.22786257656E+03  0.32863538748E+03  0.82521521989E+03  0.92967434291E+03  0.15294330000E+03 0.  0.
<mgrwt>
<rscale>  0 0.66526727E+03</rscale>
<asrwt>0</asrwt>
<pdfrwt beam="1">  1        1 0.15175274E+00 0.77054058E+03</pdfrwt>
<pdfrwt beam="2">  1       -1 0.21763871E+00 0.77054058E+03</pdfrwt>
<totfact> 0.18433392E+00</totfact>
</mgrwt>
</event>
<event>
 4    1  0.2514307E-008  0.8722129E+03  0.7818608E-02  0.9572198E-01
          1   -1    0    0  501    0  0.00000000000E+00  0.00000000000E+00  0.73385074082E+03  0.73385074083E+03  0.50400000000E-02 0. -1.
         -1   -1    0    0    0  501 -0.00000000000E+00 -0.00000000000E+00 -0.80247287102E+03  0.80247287104E+03  0.50400000000E-02 0.  1.
    8880023    1    1    2    0    0 -0.28812658975E+03 -0.49389088440E+03 -0.26684754690E+03  0.91212003430E+03  0.65864270000E+03 0.  1.
    8880022    1    1    2    0    0  0.28812658975E+03  0.49389088440E+03  0.19822541670E+03  0.62420357757E+03  0.15294330000E+03 0.  0.
<mgrwt>
<rscale>  0 0.79163976E+03</rscale>
<asrwt>0</asrwt>
<pdfrwt beam="1">  1        1 0.11290011E+00 0.87221290E+03</pdfrwt>
<pdfrwt beam="2">  1       -1 0.12345736E+00 0.87221290E+03</pdfrwt>
<totfact> 0.14837749E+01</totfact>
</mgrwt>
</event>
<event>
 4    1  0.2514307E-008  0.1238195E+04  0.7818608E-02  0.9120860E-01
         -1   -1    0    0    0  501 -0.00000000000E+00  0.00000000000E+00  0.12389499624E+04  0.12389499625E+04  0.50400000000E-02 0.  1.
          1   -1    0    0  501    0  0.00000000000E+00 -0.00000000000E+00 -0.15001596396E+04  0.15001596396E+04  0.50400000000E-02 0. -1.
    8880023    1    1    2    0    0 -0.62731225137E+03  0.84011660777E+03  0.59791068649E+03  0.13749996257E+04  0.65864270000E+03 0.  1.
    8880022    1    1    2    0    0  0.62731225137E+03 -0.84011660777E+03 -0.85912036365E+03  0.13641099764E+04  0.15294330000E+03 0.  0.
<mgrwt>
<rscale>  0 0.11908996E+04</rscale>
<asrwt>0</asrwt>
<pdfrwt beam="1">  1        1 0.23079379E+00 0.12381950E+04</pdfrwt>
<pdfrwt beam="2">  1       -1 0.19060769E+00 0.12381950E+04</pdfrwt>
<totfact> 0.11161282E+00</totfact>
</mgrwt>
</event>
<event>
 4    1  0.2514307E-008  0.1350236E+04  0.7818608E-02  0.9023348E-01
         -1   -1    0    0    0  501 -0.00000000000E+00  0.00000000000E+00  0.16178813858E+04  0.16178813858E+04  0.50400000000E-02 0.  1.
          1   -1    0    0  501    0  0.00000000000E+00 -0.00000000000E+00 -0.15783726846E+04  0.15783726846E+04  0.50400000000E-02 0. -1.
    8880023    1    1    2    0    0  0.10363310084E+04 -0.56155565061E+03  0.99006261509E+03  0.16743240116E+04  0.65864270000E+03 0.  1.
    8880022    1    1    2    0    0 -0.10363310084E+04  0.56155565061E+03 -0.95055391389E+03  0.15219300588E+04  0.15294330000E+03 0.  0.
<mgrwt>
<rscale>  0 0.13078688E+04</rscale>
<asrwt>0</asrwt>
<pdfrwt beam="1">  1        1 0.24282657E+00 0.13502359E+04</pdfrwt>
<pdfrwt beam="2">  1       -1 0.24890483E+00 0.13502359E+04</pdfrwt>
<totfact> 0.39371555E-01</totfact>
</mgrwt>
</event>
<event>
 4    1  0.2514307E-008  0.1213729E+04  0.7818608E-02  0.9143891E-01
         -1   -1    0    0    0  501 -0.00000000000E+00  0.00000000000E+00  0.92720729307E+03  0.92720729308E+03  0.50400000000E-02 0.  1.
          1   -1    0    0  501    0  0.00000000000E+00 -0.00000000000E+00 -0.23153638018E+04  0.23153638018E+04  0.50400000000E-02 0. -1.
    8880023    1    1    2    0    0  0.97724797882E+03 -0.29036901283E+03  0.31299938939E+03  0.12534379122E+04  0.65864270000E+03 0.  0.
    8880022    1    1    2    0    0 -0.97724797882E+03  0.29036901283E+03 -0.17011558981E+04  0.19891331827E+04  0.15294330000E+03 0.  0.
<mgrwt>
<rscale>  0 0.11651816E+04</rscale>
<asrwt>0</asrwt>
<pdfrwt beam="1">  1        1 0.35620981E+00 0.12137290E+04</pdfrwt>
<pdfrwt beam="2">  1       -1 0.14264728E+00 0.12137290E+04</pdfrwt>
<totfact> 0.71299475E-01</totfact>
</mgrwt>
</event>
<event>
 4    1  0.2514307E-008  0.8262871E+03  0.7818608E-02  0.9656600E-01
         -1   -1    0    0    0  501 -0.00000000000E+00  0.00000000000E+00  0.75025552523E+03  0.75025552525E+03  0.50400000000E-02 0.  1.
          1   -1    0    0  501    0  0.00000000000E+00 -0.00000000000E+00 -0.13612721234E+04  0.13612721234E+04  0.50400000000E-02 0. -1.
    8880023    1    1    2    0    0  0.83795838313E+01  0.49886861204E+03  0.44142649049E+03  0.93680716387E+03  0.65864270000E+03 0.  1.
    8880022    1    1    2    0    0 -0.83795838313E+01 -0.49886861204E+03 -0.10524430886E+04  0.11747204847E+04  0.15294330000E+03 0.  0.
<mgrwt>
<rscale>  0 0.73660643E+03</rscale>
<asrwt>0</asrwt>
<pdfrwt beam="1">  1        1 0.20942648E+00 0.82628707E+03</pdfrwt>
<pdfrwt beam="2">  1       -1 0.11542393E+00 0.82628707E+03</pdfrwt>
<totfact> 0.57187605E+00</totfact>
</mgrwt>
</event>
<event>
 4    1  0.2514307E-008  0.7041223E+03  0.7818608E-02  0.9980512E-01
         -1   -1    0    0    0  501 -0.00000000000E+00  0.00000000000E+00  0.11287873709E+04  0.11287873709E+04  0.50400000000E-02 0.  1.
          1   -1    0    0  501    0  0.00000000000E+00 -0.00000000000E+00 -0.42013466050E+03  0.42013466053E+03  0.50400000000E-02 0. -1.
    8880023    1    1    2    0    0  0.36391613521E+02 -0.24627951693E+03  0.94124260885E+03  0.11754683343E+04  0.65864270000E+03 0.  1.
    8880022    1    1    2    0    0 -0.36391613521E+02  0.24627951693E+03 -0.23258989847E+03  0.37345369710E+03  0.15294330000E+03 0.  0.
<mgrwt>
<rscale>  0 0.56513078E+03</rscale>
<asrwt>0</asrwt>
<pdfrwt beam="1">  1        1 0.64636102E-01 0.70412226E+03</pdfrwt>
<pdfrwt beam="2">  1       -1 0.17365960E+00 0.70412226E+03</pdfrwt>
<totfact> 0.13441690E+01</totfact>
</mgrwt>
</event>
<event>
 4    1  0.2514307E-008  0.9132186E+03  0.7818608E-02  0.9505136E-01
         -1   -1    0    0    0  501 -0.00000000000E+00  0.00000000000E+00  0.44614406281E+03  0.44614406283E+03  0.50400000000E-02 0.  1.
          1   -1    0    0  501    0  0.00000000000E+00 -0.00000000000E+00 -0.17398535663E+04  0.17398535663E+04  0.50400000000E-02 0. -1.
    8880023    1    1    2    0    0  0.44557948883E+03  0.44901778835E+03 -0.23453227890E+03  0.94285399253E+03  0.65864270000E+03 0.  0.
    8880022    1    1    2    0    0 -0.44557948883E+03 -0.44901778835E+03 -0.10591772246E+04  0.12431436366E+04  0.15294330000E+03 0.  0.
<mgrwt>
<rscale>  0 0.83906213E+03</rscale>
<asrwt>0</asrwt>
<pdfrwt beam="1">  1        1 0.26766978E+00 0.91321863E+03</pdfrwt>
<pdfrwt beam="2">  1       -1 0.68637549E-01 0.91321863E+03</pdfrwt>
<totfact> 0.97966979E+00</totfact>
</mgrwt>
</event>
<event>
 4    1  0.2514307E-008  0.7134089E+03  0.7818608E-02  0.9945554E-01
         -1   -1    0    0    0  501 -0.00000000000E+00  0.00000000000E+00  0.55896414126E+03  0.55896414129E+03  0.50400000000E-02 0.  1.
          1   -1    0    0  501    0  0.00000000000E+00 -0.00000000000E+00 -0.59997761909E+03  0.59997761911E+03  0.50400000000E-02 0. -1.
    8880023    1    1    2    0    0  0.17031762425E+03  0.21478828707E+03  0.22440379543E+03  0.74786988912E+03  0.65864270000E+03 0.  1.
    8880022    1    1    2    0    0 -0.17031762425E+03 -0.21478828707E+03 -0.26541727325E+03  0.41107187127E+03  0.15294330000E+03 0.  0.
<mgrwt>
<rscale>  0 0.58103466E+03</rscale>
<asrwt>0</asrwt>
<pdfrwt beam="1">  1        1 0.92304249E-01 0.71340893E+03</pdfrwt>
<pdfrwt beam="2">  1       -1 0.85994484E-01 0.71340893E+03</pdfrwt>
<totfact> 0.46888828E+01</totfact>
</mgrwt>
</event>
<event>
 4    1  0.2514307E-008  0.1343976E+04  0.7818608E-02  0.9028485E-01
          1   -1    0    0  501    0  0.00000000000E+00  0.00000000000E+00  0.58513600325E+03  0.58513600327E+03  0.50400000000E-02 0. -1.
         -1   -1    0    0    0  501 -0.00000000000E+00 -0.00000000000E+00 -0.52619522328E+04  0.52619522329E+04  0.50400000000E-02 0.  1.
    8880023    1    1    2    0    0 -0.11091611046E+04 -0.37712519274E+03 -0.44441636156E+04  0.46429368093E+04  0.65864270000E+03 0.  1.
    8880022    1    1    2    0    0  0.11091611046E+04  0.37712519274E+03 -0.23265261402E+03  0.12041514268E+04  0.15294330000E+03 0.  0.
<mgrwt>
<rscale>  0 0.13013636E+04</rscale>
<asrwt>0</asrwt>
<pdfrwt beam="1">  1        1 0.90020927E-01 0.13439762E+04</pdfrwt>
<pdfrwt beam="2">  1       -1 0.80953108E+00 0.13439762E+04</pdfrwt>
<totfact> 0.21829664E-03</totfact>
</mgrwt>
</event>
<event>
 4    1  0.2514307E-008  0.1119641E+04  0.7818608E-02  0.9239497E-01
          1   -1    0    0  501    0  0.00000000000E+00  0.00000000000E+00  0.81215844330E+03  0.81215844331E+03  0.50400000000E-02 0. -1.
         -1   -1    0    0    0  501 -0.00000000000E+00 -0.00000000000E+00 -0.17766933913E+04  0.17766933913E+04  0.50400000000E-02 0.  1.
    8880023    1    1    2    0    0 -0.16730497808E+03 -0.88982881824E+03 -0.11996704337E+04  0.16409770374E+04  0.65864270000E+03 0.  0.
    8880022    1    1    2    0    0  0.16730497808E+03  0.88982881824E+03  0.23513548576E+03  0.94787479718E+03  0.15294330000E+03 0.  0.
<mgrwt>
<rscale>  0 0.10654892E+04</rscale>
<asrwt>0</asrwt>
<pdfrwt beam="1">  1        1 0.12494745E+00 0.11196412E+04</pdfrwt>
<pdfrwt beam="2">  1       -1 0.27333744E+00 0.11196412E+04</pdfrwt>
<totfact> 0.10549748E+00</totfact>
</mgrwt>
</event>
<event>
 4    1  0.2514307E-008  0.8494173E+03  0.7818608E-02  0.9612673E-01
          1   -1    0    0  501    0  0.00000000000E+00  0.00000000000E+00  0.26292073295E+04  0.26292073295E+04  0.50400000000E-02 0. -1.
         -1   -1    0    0    0  501 -0.00000000000E+00 -0.00000000000E+00 -0.32541434452E+03  0.32541434456E+03  0.50400000000E-02 0.  1.
    8880023    1    1    2    0    0  0.43933525495E+03  0.30770771640E+03  0.34302110248E+03  0.91606396501E+03  0.65864270000E+03 0.  0.
    8880022    1    1    2    0    0 -0.43933525495E+03 -0.30770771640E+03  0.19607718825E+04  0.20385577091E+04  0.15294330000E+03 0.  0.
<mgrwt>
<rscale>  0 0.76463078E+03</rscale>
<asrwt>0</asrwt>
<pdfrwt beam="1">  1        1 0.40449344E+00 0.84941728E+03</pdfrwt>
<pdfrwt beam="2">  1       -1 0.50063744E-01 0.84941728E+03</pdfrwt>
<totfact> 0.45992225E+00</totfact>
</mgrwt>
</event>
<event>
 4    1  0.3775116E-008  0.1209870E+04  0.7818608E-02  0.9147588E-01
          1   -1    0    0  501    0  0.00000000000E+00  0.00000000000E+00  0.18660474549E+04  0.18660474549E+04  0.50400000000E-02 0. -1.
         -1   -1    0    0    0  501 -0.00000000000E+00 -0.00000000000E+00 -0.27820667575E+04  0.27820667575E+04  0.50400000000E-02 0.  1.
    8880023    1    1    2    0    0 -0.83791348351E+03 -0.57260386874E+03 -0.24904057110E+04  0.27687370782E+04  0.65864270000E+03 0.  1.
    8880022    1    1    2    0    0  0.83791348351E+03  0.57260386874E+03  0.15743864084E+04  0.18793771342E+04  0.15294330000E+03 0.  0.
<mgrwt>
<rscale>  0 0.11611179E+04</rscale>
<asrwt>0</asrwt>
<pdfrwt beam="1">  1        1 0.28708422E+00 0.12098696E+04</pdfrwt>
<pdfrwt beam="2">  1       -1 0.42801027E+00 0.12098696E+04</pdfrwt>
<totfact> 0.16705344E-02</totfact>
</mgrwt>
</event>
<event>
 4    1  0.2514307E-008  0.8287556E+03  0.7818608E-02  0.9651758E-01
         -1   -1    0    0    0  501 -0.00000000000E+00  0.00000000000E+00  0.52969855244E+03  0.52969855247E+03  0.50400000000E-02 0.  1.
          1   -1    0    0  501    0  0.00000000000E+00 -0.00000000000E+00 -0.11253004808E+04  0.11253004808E+04  0.50400000000E-02 0. -1.
    8880023    1    1    2    0    0 -0.60706483127E+02  0.49933992462E+03  0.40501429281E+02  0.82974466521E+03  0.65864270000E+03 0.  0.
    8880022    1    1    2    0    0  0.60706483127E+02 -0.49933992462E+03 -0.63610335766E+03  0.82525436809E+03  0.15294330000E+03 0.  0.
<mgrwt>
<rscale>  0 0.73963168E+03</rscale>
<asrwt>0</asrwt>
<pdfrwt beam="1">  1        1 0.17312315E+00 0.82875560E+03</pdfrwt>
<pdfrwt beam="2">  1       -1 0.81492085E-01 0.82875560E+03</pdfrwt>
<totfact> 0.18580683E+01</totfact>
</mgrwt>
</event>
<event>
 4    1  0.2514307E-008  0.6684722E+03  0.7818608E-02  0.1016783E+00
          1   -1    0    0  501    0  0.00000000000E+00  0.00000000000E+00  0.21789498892E+04  0.21789498892E+04  0.50400000000E-02 0. -1.
         -1   -1    0    0    0  501 -0.00000000000E+00 -0.00000000000E+00 -0.90394279533E+03  0.90394279535E+03  0.50400000000E-02 0.  1.
    8880023    1    1    2    0    0  0.10634409100E+03 -0.41662759018E+02 -0.77531552753E+03  0.10237036801E+04  0.65864270000E+03 0.  1.
    8880022    1    1    2    0    0 -0.10634409100E+03  0.41662759018E+02  0.20503226214E+04  0.20591890044E+04  0.15294330000E+03 0.  0.
<mgrwt>
<rscale>  0 0.48865753E+03</rscale>
<asrwt>0</asrwt>
<pdfrwt beam="1">  1        1 0.33522306E+00 0.66847218E+03</pdfrwt>
<pdfrwt beam="2">  1       -1 0.13906812E+00 0.66847218E+03</pdfrwt>
<totfact> 0.10388685E+00</totfact>
</mgrwt>
</event>
<event>
 4    1  0.2514307E-008  0.6653490E+03  0.7818608E-02  0.1019242E+00
          1   -1    0    0  501    0  0.00000000000E+00  0.00000000000E+00  0.15963736236E+04  0.15963736237E+04  0.50400000000E-02 0. -1.
         -1   -1    0    0    0  501 -0.00000000000E+00 -0.00000000000E+00 -0.88022235182E+03  0.88022235184E+03  0.50400000000E-02 0.  1.
    8880023    1    1    2    0    0 -0.78481569520E+02 -0.52150870222E+02 -0.74821240956E+03  0.10012547558E+04  0.65864270000E+03 0.  1.
    8880022    1    1    2    0    0  0.78481569520E+02  0.52150870222E+02  0.14643636814E+04  0.14753412196E+04  0.15294330000E+03 0.  0.
<mgrwt>
<rscale>  0 0.47960998E+03</rscale>
<asrwt>0</asrwt>
<pdfrwt beam="1">  1        1 0.24559594E+00 0.66534899E+03</pdfrwt>
<pdfrwt beam="2">  1       -1 0.13541882E+00 0.66534899E+03</pdfrwt>
<totfact> 0.27292202E+00</totfact>
</mgrwt>
</event>
<event>
 4    1  0.2514307E-008  0.7667054E+03  0.7818608E-02  0.9788047E-01
          1   -1    0    0  501    0  0.00000000000E+00  0.00000000000E+00  0.20370505376E+04  0.20370505376E+04  0.50400000000E-02 0. -1.
         -1   -1    0    0    0  501 -0.00000000000E+00 -0.00000000000E+00 -0.20933731695E+04  0.20933731695E+04  0.50400000000E-02 0.  1.
    8880023    1    1    2    0    0  0.35917312643E+03 -0.15818244905E+03 -0.19998463066E+04  0.21417802124E+04  0.65864270000E+03 0.  1.
    8880022    1    1    2    0    0 -0.35917312643E+03  0.15818244905E+03  0.19435236747E+04  0.19886434947E+04  0.15294330000E+03 0.  0.
<mgrwt>
<rscale>  0 0.66007962E+03</rscale>
<asrwt>0</asrwt>
<pdfrwt beam="1">  1        1 0.31339239E+00 0.76670544E+03</pdfrwt>
<pdfrwt beam="2">  1       -1 0.32205741E+00 0.76670544E+03</pdfrwt>
<totfact> 0.72450880E-02</totfact>
</mgrwt>
</event>
<event>
 4    1  0.2514307E-008  0.8065069E+03  0.7818608E-02  0.9696899E-01
          1   -1    0    0  501    0  0.00000000000E+00  0.00000000000E+00  0.15572344145E+04  0.15572344145E+04  0.50400000000E-02 0. -1.
         -1   -1    0    0    0  501 -0.00000000000E+00 -0.00000000000E+00 -0.58894349186E+03  0.58894349188E+03  0.50400000000E-02 0.  1.
    8880023    1    1    2    0    0  0.28581030953E+03  0.36736303355E+03 -0.24072395905E+03  0.84166582571E+03  0.65864270000E+03 0.  1.
    8880022    1    1    2    0    0 -0.28581030953E+03 -0.36736303355E+03  0.12090148817E+04  0.13045120807E+04  0.15294330000E+03 0.  0.
<mgrwt>
<rscale>  0 0.71201694E+03</rscale>
<asrwt>0</asrwt>
<pdfrwt beam="1">  1        1 0.23957453E+00 0.80650687E+03</pdfrwt>
<pdfrwt beam="2">  1       -1 0.90606691E-01 0.80650687E+03</pdfrwt>
<totfact> 0.73337583E+00</totfact>
</mgrwt>
</event>
<event>
 4    1  0.2514307E-008  0.1017228E+04  0.7818608E-02  0.9359357E-01
         -1   -1    0    0    0  501 -0.00000000000E+00  0.00000000000E+00  0.20943067396E+04  0.20943067396E+04  0.50400000000E-02 0.  1.
          1   -1    0    0  501    0  0.00000000000E+00 -0.00000000000E+00 -0.53969674091E+03  0.53969674093E+03  0.50400000000E-02 0. -1.
    8880023    1    1    2    0    0  0.41531310797E+03 -0.65456656397E+03  0.15376538249E+04  0.18436734678E+04  0.65864270000E+03 0.  0.
    8880022    1    1    2    0    0 -0.41531310797E+03  0.65456656397E+03  0.16956173877E+02  0.79033001282E+03  0.15294330000E+03 0.  0.
<mgrwt>
<rscale>  0 0.95497239E+03</rscale>
<asrwt>0</asrwt>
<pdfrwt beam="1">  1        1 0.83030270E-01 0.10172279E+04</pdfrwt>
<pdfrwt beam="2">  1       -1 0.32220103E+00 0.10172279E+04</pdfrwt>
<totfact> 0.95727264E-01</totfact>
</mgrwt>
</event>
<event>
 4    1  0.2514307E-008  0.7540622E+03  0.7818608E-02  0.9820730E-01
          1   -1    0    0  501    0  0.00000000000E+00  0.00000000000E+00  0.15703171754E+04  0.15703171754E+04  0.50400000000E-02 0. -1.
         -1   -1    0    0    0  501 -0.00000000000E+00 -0.00000000000E+00 -0.58925721970E+03  0.58925721973E+03  0.50400000000E-02 0.  1.
    8880023    1    1    2    0    0 -0.33492474712E+03 -0.15041607036E+03 -0.30500526545E+03  0.81341133424E+03  0.65864270000E+03 0.  1.
    8880022    1    1    2    0    0  0.33492474712E+03  0.15041607036E+03  0.12860652211E+04  0.13461630609E+04  0.15294330000E+03 0.  0.
<mgrwt>
<rscale>  0 0.64261843E+03</rscale>
<asrwt>0</asrwt>
<pdfrwt beam="1">  1        1 0.24158726E+00 0.75406219E+03</pdfrwt>
<pdfrwt beam="2">  1       -1 0.90654957E-01 0.75406219E+03</pdfrwt>
<totfact> 0.72336722E+00</totfact>
</mgrwt>
</event>
<event>
 4    1  0.2514307E-008  0.8483302E+03  0.7818608E-02  0.9614669E-01
          1   -1    0    0  501    0  0.00000000000E+00  0.00000000000E+00  0.20350857441E+04  0.20350857441E+04  0.50400000000E-02 0. -1.
         -1   -1    0    0    0  501 -0.00000000000E+00 -0.00000000000E+00 -0.11350512457E+04  0.11350512458E+04  0.50400000000E-02 0.  1.
    8880023    1    1    2    0    0  0.16281419692E+03 -0.50925979489E+03 -0.92922220592E+03  0.12582202175E+04  0.65864270000E+03 0.  1.
    8880022    1    1    2    0    0 -0.16281419692E+03  0.50925979489E+03  0.18292567042E+04  0.19119167724E+04  0.15294330000E+03 0.  0.
<mgrwt>
<rscale>  0 0.76332883E+03</rscale>
<asrwt>0</asrwt>
<pdfrwt beam="1">  1        1 0.31309011E+00 0.84833025E+03</pdfrwt>
<pdfrwt beam="2">  1       -1 0.17462327E+00 0.84833025E+03</pdfrwt>
<totfact> 0.66789053E-01</totfact>
</mgrwt>
</event>
<event>
 4    1  0.2514307E-008  0.8681054E+03  0.7818608E-02  0.9579305E-01
          1   -1    0    0  501    0  0.00000000000E+00  0.00000000000E+00  0.13319190909E+04  0.13319190909E+04  0.50400000000E-02 0. -1.
         -1   -1    0    0    0  501 -0.00000000000E+00 -0.00000000000E+00 -0.66635327099E+03  0.66635327101E+03  0.50400000000E-02 0.  1.
    8880023    1    1    2    0    0 -0.54583703874E+03 -0.14784691888E+03  0.99957743222E+03  0.13239191945E+04  0.65864270000E+03 0.  0.
    8880022    1    1    2    0    0  0.54583703874E+03  0.14784691888E+03 -0.33401161229E+03  0.67435316745E+03  0.15294330000E+03 0.  0.
<mgrwt>
<rscale>  0 0.78681191E+03</rscale>
<asrwt>0</asrwt>
<pdfrwt beam="1">  1        1 0.20491063E+00 0.86810540E+03</pdfrwt>
<pdfrwt beam="2">  1       -1 0.10251589E+00 0.86810540E+03</pdfrwt>
<totfact> 0.78824969E+00</totfact>
</mgrwt>
</event>
<event>
 4    1  0.2514307E-008  0.1229294E+04  0.7818608E-02  0.9129160E-01
          1   -1    0    0  501    0  0.00000000000E+00  0.00000000000E+00  0.39625608969E+04  0.39625608969E+04  0.50400000000E-02 0. -1.
         -1   -1    0    0    0  501 -0.00000000000E+00 -0.00000000000E+00 -0.14828984539E+04  0.14828984539E+04  0.50400000000E-02 0.  1.
    8880023    1    1    2    0    0  0.10147994055E+04  0.21802602835E+03  0.36631310089E+04  0.38638959843E+04  0.65864270000E+03 0. -1.
    8880022    1    1    2    0    0 -0.10147994055E+04 -0.21802602835E+03 -0.11834685660E+04  0.15815633664E+04  0.15294330000E+03 0.  0.
<mgrwt>
<rscale>  0 0.11815514E+04</rscale>
<asrwt>0</asrwt>
<pdfrwt beam="1">  1        1 0.60962474E+00 0.12292939E+04</pdfrwt>
<pdfrwt beam="2">  1       -1 0.22813823E+00 0.12292939E+04</pdfrwt>
<totfact> 0.10088048E-02</totfact>
</mgrwt>
</event>
<event>
 4    1  0.2514307E-008  0.7610920E+03  0.7818608E-02  0.9802289E-01
         -1   -1    0    0    0  501 -0.00000000000E+00  0.00000000000E+00  0.94334253503E+03  0.94334253504E+03  0.50400000000E-02 0.  1.
          1   -1    0    0  501    0  0.00000000000E+00 -0.00000000000E+00 -0.24213807326E+04  0.24213807327E+04  0.50400000000E-02 0. -1.
    8880023    1    1    2    0    0  0.36587196707E+03  0.10764976549E+03  0.76809761876E+03  0.10813116695E+04  0.65864270000E+03 0.  1.
    8880022    1    1    2    0    0 -0.36587196707E+03 -0.10764976549E+03 -0.22461358164E+04  0.22834115982E+04  0.15294330000E+03 0.  0.
<mgrwt>
<rscale>  0 0.65239864E+03</rscale>
<asrwt>0</asrwt>
<pdfrwt beam="1">  1        1 0.37252011E+00 0.76109196E+03</pdfrwt>
<pdfrwt beam="2">  1       -1 0.14512962E+00 0.76109196E+03</pdfrwt>
<totfact> 0.62401751E-01</totfact>
</mgrwt>
</event>
<event>
 4    1  0.2514307E-008  0.8449525E+03  0.7818608E-02  0.9620912E-01
          1   -1    0    0  501    0  0.00000000000E+00  0.00000000000E+00  0.32350493897E+04  0.32350493897E+04  0.50400000000E-02 0. -1.
         -1   -1    0    0    0  501 -0.00000000000E+00 -0.00000000000E+00 -0.50356914213E+03  0.50356914216E+03  0.50400000000E-02 0.  1.
    8880023    1    1    2    0    0 -0.38618683116E+03 -0.36193134854E+03 -0.10289625675E+03  0.85119469895E+03  0.65864270000E+03 0.  1.
    8880022    1    1    2    0    0  0.38618683116E+03  0.36193134854E+03  0.28343765043E+04  0.28874238329E+04  0.15294330000E+03 0.  0.
<mgrwt>
<rscale>  0 0.75927440E+03</rscale>
<asrwt>0</asrwt>
<pdfrwt beam="1">  1        1 0.49769993E+00 0.84495253E+03</pdfrwt>
<pdfrwt beam="2">  1       -1 0.77472172E-01 0.84495253E+03</pdfrwt>
<totfact> 0.71072683E-01</totfact>
</mgrwt>
</event>
<event>
 4    1  0.2514307E-008  0.8531341E+03  0.7818608E-02  0.9605895E-01
          1   -1    0    0  501    0  0.00000000000E+00  0.00000000000E+00  0.12683660303E+04  0.12683660303E+04  0.50400000000E-02 0. -1.
         -1   -1    0    0    0  501 -0.00000000000E+00 -0.00000000000E+00 -0.74075611249E+03  0.74075611250E+03  0.50400000000E-02 0.  1.
    8880023    1    1    2    0    0  0.49887976723E+03  0.21247713533E+03 -0.38549951977E+03  0.93618782367E+03  0.65864270000E+03 0.  1.
    8880022    1    1    2    0    0 -0.49887976723E+03 -0.21247713533E+03  0.91310943760E+03  0.10729343192E+04  0.15294330000E+03 0.  0.
<mgrwt>
<rscale>  0 0.76907221E+03</rscale>
<asrwt>0</asrwt>
<pdfrwt beam="1">  1        1 0.19513323E+00 0.85313408E+03</pdfrwt>
<pdfrwt beam="2">  1       -1 0.11396248E+00 0.85313408E+03</pdfrwt>
<totfact> 0.68335045E+00</totfact>
</mgrwt>
</event>
<event>
 4    1  0.2514307E-008  0.1571825E+04  0.7818608E-02  0.8860515E-01
         -1   -1    0    0    0  501 -0.00000000000E+00  0.00000000000E+00  0.17306783569E+04  0.17306783569E+04  0.50400000000E-02 0.  1.
          1   -1    0    0  501    0  0.00000000000E+00 -0.00000000000E+00 -0.25769446051E+04  0.25769446051E+04  0.50400000000E-02 0. -1.
    8880023    1    1    2    0    0  0.11254167307E+04  0.87764513153E+03  0.10787501064E+04  0.19063933993E+04  0.65864270000E+03 0.  0.
    8880022    1    1    2    0    0 -0.11254167307E+04 -0.87764513153E+03 -0.19250163546E+04  0.24012295627E+04  0.15294330000E+03 0.  0.
<mgrwt>
<rscale>  0 0.15365342E+04</rscale>
<asrwt>0</asrwt>
<pdfrwt beam="1">  1        1 0.39645302E+00 0.15718251E+04</pdfrwt>
<pdfrwt beam="2">  1       -1 0.26625821E+00 0.15718251E+04</pdfrwt>
<totfact> 0.61144235E-02</totfact>
</mgrwt>
</event>
<event>
 4    1  0.2514307E-008  0.1286591E+04  0.7818608E-02  0.9077226E-01
         -1   -1    0    0    0  501 -0.00000000000E+00  0.00000000000E+00  0.13380831627E+04  0.13380831627E+04  0.50400000000E-02 0.  1.
          1   -1    0    0  501    0  0.00000000000E+00 -0.00000000000E+00 -0.16190390389E+04  0.16190390389E+04  0.50400000000E-02 0. -1.
    8880023    1    1    2    0    0 -0.84627536450E+03  0.71086204276E+03  0.70593958345E+03  0.14675379852E+04  0.65864270000E+03 0.  0.
    8880022    1    1    2    0    0  0.84627536450E+03 -0.71086204276E+03 -0.98689545963E+03  0.14895842164E+04  0.15294330000E+03 0.  0.
<mgrwt>
<rscale>  0 0.12415728E+04</rscale>
<asrwt>0</asrwt>
<pdfrwt beam="1">  1        1 0.24908293E+00 0.12865912E+04</pdfrwt>
<pdfrwt beam="2">  1       -1 0.20585895E+00 0.12865912E+04</pdfrwt>
<totfact> 0.72008854E-01</totfact>
</mgrwt>
</event>
<event>
 4    1  0.2514307E-008  0.9605161E+03  0.7818608E-02  0.9435142E-01
          1   -1    0    0  501    0  0.00000000000E+00  0.00000000000E+00  0.12017834840E+04  0.12017834841E+04  0.50400000000E-02 0. -1.
         -1   -1    0    0    0  501 -0.00000000000E+00 -0.00000000000E+00 -0.85903427944E+03  0.85903427945E+03  0.50400000000E-02 0.  1.
    8880023    1    1    2    0    0  0.58495443328E+03  0.38289585359E+03 -0.38990084750E+03  0.10366358092E+04  0.65864270000E+03 0.  0.
    8880022    1    1    2    0    0 -0.58495443328E+03 -0.38289585359E+03  0.73265005211E+03  0.10241819543E+04  0.15294330000E+03 0.  0.
<mgrwt>
<rscale>  0 0.89239169E+03</rscale>
<asrwt>0</asrwt>
<pdfrwt beam="1">  1        1 0.18488977E+00 0.96051607E+03</pdfrwt>
<pdfrwt beam="2">  1       -1 0.13215912E+00 0.96051607E+03</pdfrwt>
<totfact> 0.52234571E+00</totfact>
</mgrwt>
</event>
<event>
 4    1  0.2514307E-008  0.1107294E+04  0.7818608E-02  0.9252978E-01
          1   -1    0    0  501    0  0.00000000000E+00  0.00000000000E+00  0.26149820079E+04  0.26149820079E+04  0.50400000000E-02 0. -1.
         -1   -1    0    0    0  501 -0.00000000000E+00 -0.00000000000E+00 -0.70115874309E+03  0.70115874311E+03  0.50400000000E-02 0.  1.
    8880023    1    1    2    0    0  0.57728809474E+03 -0.67751692422E+03 -0.97270959356E+02  0.11115586232E+04  0.65864270000E+03 0.  0.
    8880022    1    1    2    0    0 -0.57728809474E+03  0.67751692422E+03  0.20110942241E+04  0.22045821278E+04  0.15294330000E+03 0.  0.
<mgrwt>
<rscale>  0 0.10522949E+04</rscale>
<asrwt>0</asrwt>
<pdfrwt beam="1">  1        1 0.40230492E+00 0.11072944E+04</pdfrwt>
<pdfrwt beam="2">  1       -1 0.10787058E+00 0.11072944E+04</pdfrwt>
<totfact> 0.90352111E-01</totfact>
</mgrwt>
</event>
<event>
 4    1  0.2514307E-008  0.1310477E+04  0.7818608E-02  0.9056565E-01
          1   -1    0    0  501    0  0.00000000000E+00  0.00000000000E+00  0.11079447041E+04  0.11079447041E+04  0.50400000000E-02 0. -1.
         -1   -1    0    0    0  501 -0.00000000000E+00 -0.00000000000E+00 -0.17481016078E+04  0.17481016078E+04  0.50400000000E-02 0.  1.
    8880023    1    1    2    0    0  0.93598827971E+03 -0.63832986631E+03 -0.10099734870E+04  0.16545076998E+04  0.65864270000E+03 0.  1.
    8880022    1    1    2    0    0 -0.93598827971E+03  0.63832986631E+03  0.36981658328E+03  0.12015386121E+04  0.15294330000E+03 0.  0.
<mgrwt>
<rscale>  0 0.12664952E+04</rscale>
<asrwt>0</asrwt>
<pdfrwt beam="1">  1        1 0.17045303E+00 0.13104767E+04</pdfrwt>
<pdfrwt beam="2">  1       -1 0.26893871E+00 0.13104767E+04</pdfrwt>
<totfact> 0.63642784E-01</totfact>
</mgrwt>
</event>
<event>
 4    1  0.2514307E-008  0.7910585E+03  0.7818608E-02  0.9730474E-01
         -1   -1    0    0    0  501 -0.00000000000E+00  0.00000000000E+00  0.12614680678E+04  0.12614680678E+04  0.50400000000E-02 0.  1.
          1   -1    0    0  501    0  0.00000000000E+00 -0.00000000000E+00 -0.16756630402E+04  0.16756630402E+04  0.50400000000E-02 0. -1.
    8880023    1    1    2    0    0  0.24975744626E+03  0.35997863856E+03  0.10991586228E+04  0.13542242379E+04  0.65864270000E+03 0.  1.
    8880022    1    1    2    0    0 -0.24975744626E+03 -0.35997863856E+03 -0.15133535952E+04  0.15829068701E+04  0.15294330000E+03 0.  0.
<mgrwt>
<rscale>  0 0.69231039E+03</rscale>
<asrwt>0</asrwt>
<pdfrwt beam="1">  1        1 0.25779431E+00 0.79105854E+03</pdfrwt>
<pdfrwt beam="2">  1       -1 0.19407201E+00 0.79105854E+03</pdfrwt>
<totfact> 0.85781146E-01</totfact>
</mgrwt>
</event>
<event>
 4    1  0.2514307E-008  0.7864388E+03  0.7818608E-02  0.9740924E-01
          1   -1    0    0  501    0  0.00000000000E+00  0.00000000000E+00  0.30807441096E+03  0.30807441100E+03  0.50400000000E-02 0. -1.
         -1   -1    0    0    0  501 -0.00000000000E+00 -0.00000000000E+00 -0.19755565634E+04  0.19755565634E+04  0.50400000000E-02 0.  1.
    8880023    1    1    2    0    0  0.39073928593E+03  0.17888152217E+03 -0.16492073682E+04  0.18271209424E+04  0.65864270000E+03 0.  0.
    8880022    1    1    2    0    0 -0.39073928593E+03 -0.17888152217E+03 -0.18274784196E+02  0.45651003197E+03  0.15294330000E+03 0.  0.
<mgrwt>
<rscale>  0 0.68631615E+03</rscale>
<asrwt>0</asrwt>
<pdfrwt beam="1">  1        1 0.47396065E-01 0.78643881E+03</pdfrwt>
<pdfrwt beam="2">  1       -1 0.30393177E+00 0.78643881E+03</pdfrwt>
<totfact> 0.27526034E+00</totfact>
</mgrwt>
</event>
<event>
 4    1  0.2514307E-008  0.7847878E+03  0.7818608E-02  0.9744708E-01
         -1   -1    0    0    0  501 -0.00000000000E+00  0.00000000000E+00  0.25668857535E+04  0.25668857535E+04  0.50400000000E-02 0.  1.
          1   -1    0    0  501    0  0.00000000000E+00 -0.00000000000E+00 -0.23617956157E+03  0.23617956163E+03  0.50400000000E-02 0. -1.
    8880023    1    1    2    0    0 -0.38331505821E+03 -0.18748687536E+03  0.21931918655E+04  0.23293738488E+04  0.65864270000E+03 0.  0.
    8880022    1    1    2    0    0  0.38331505821E+03  0.18748687536E+03  0.13751432642E+03  0.47369146633E+03  0.15294330000E+03 0.  0.
<mgrwt>
<rscale>  0 0.68416154E+03</rscale>
<asrwt>0</asrwt>
<pdfrwt beam="1">  1        1 0.36335319E-01 0.78478785E+03</pdfrwt>
<pdfrwt beam="2">  1       -1 0.39490549E+00 0.78478785E+03</pdfrwt>
<totfact> 0.98308551E-01</totfact>
</mgrwt>
</event>
<event>
 4    1  0.2514307E-008  0.1046846E+04  0.7818608E-02  0.9322683E-01
          1   -1    0    0  501    0  0.00000000000E+00  0.00000000000E+00  0.20648210736E+04  0.20648210736E+04  0.50400000000E-02 0. -1.
         -1   -1    0    0    0  501 -0.00000000000E+00 -0.00000000000E+00 -0.83362579825E+03  0.83362579827E+03  0.50400000000E-02 0.  1.
    8880023    1    1    2    0    0  0.38063119942E+02 -0.81278936096E+03 -0.35812424493E+03  0.11064079390E+04  0.65864270000E+03 0.  0.
    8880022    1    1    2    0    0 -0.38063119942E+02  0.81278936096E+03  0.15893195203E+04  0.17920389329E+04  0.15294330000E+03 0.  0.
<mgrwt>
<rscale>  0 0.98721164E+03</rscale>
<asrwt>0</asrwt>
<pdfrwt beam="1">  1        1 0.31766478E+00 0.10468455E+04</pdfrwt>
<pdfrwt beam="2">  1       -1 0.12825012E+00 0.10468455E+04</pdfrwt>
<totfact> 0.14198377E+00</totfact>
</mgrwt>
</event>
<event>
 4    1  0.2514307E-008  0.1042420E+04  0.7818608E-02  0.9328050E-01
         -1   -1    0    0    0  501 -0.00000000000E+00  0.00000000000E+00  0.42791928765E+03  0.42791928768E+03  0.50400000000E-02 0.  1.
          1   -1    0    0  501    0  0.00000000000E+00 -0.00000000000E+00 -0.29869289830E+04  0.29869289830E+04  0.50400000000E-02 0. -1.
    8880023    1    1    2    0    0  0.80509621963E+03 -0.68179371989E+02 -0.42113508039E+03  0.11242745714E+04  0.65864270000E+03 0.  0.
    8880022    1    1    2    0    0 -0.80509621963E+03  0.68179371989E+02 -0.21378746150E+04  0.22905736993E+04  0.15294330000E+03 0.  0.
<mgrwt>
<rscale>  0 0.98241032E+03</rscale>
<asrwt>0</asrwt>
<pdfrwt beam="1">  1        1 0.45952752E+00 0.10424196E+04</pdfrwt>
<pdfrwt beam="2">  1       -1 0.65833739E-01 0.10424196E+04</pdfrwt>
<totfact> 0.14591974E+00</totfact>
</mgrwt>
</event>
<event>
 4    1  0.2514307E-008  0.1149315E+04  0.7818608E-02  0.9208039E-01
          1   -1    0    0  501    0  0.00000000000E+00  0.00000000000E+00  0.24567950857E+04  0.24567950857E+04  0.50400000000E-02 0. -1.
         -1   -1    0    0    0  501 -0.00000000000E+00 -0.00000000000E+00 -0.47397623633E+03  0.47397623636E+03  0.50400000000E-02 0.  1.
    8880023    1    1    2    0    0 -0.92567148371E+03 -0.17391911315E+03  0.14052059999E+04  0.18153593755E+04  0.65864270000E+03 0.  0.
    8880022    1    1    2    0    0  0.92567148371E+03  0.17391911315E+03  0.57761284942E+03  0.11154119466E+04  0.15294330000E+03 0.  0.
<mgrwt>
<rscale>  0 0.10970839E+04</rscale>
<asrwt>0</asrwt>
<pdfrwt beam="1">  1        1 0.37796848E+00 0.11493153E+04</pdfrwt>
<pdfrwt beam="2">  1       -1 0.72919421E-01 0.11493153E+04</pdfrwt>
<totfact> 0.27473524E+00</totfact>
</mgrwt>
</event>
<event>
 4    1  0.2514307E-008  0.6885229E+03  0.7818608E-02  0.1004863E+00
         -1   -1    0    0    0  501 -0.00000000000E+00  0.00000000000E+00  0.11883917047E+04  0.11883917047E+04  0.50400000000E-02 0.  1.
          1   -1    0    0  501    0  0.00000000000E+00 -0.00000000000E+00 -0.18672523572E+03  0.18672523579E+03  0.50400000000E-02 0. -1.
    8880023    1    1    2    0    0  0.20050359706E+03  0.72017537556E+01  0.70006429799E+03  0.98191332880E+03  0.65864270000E+03 0. -1.
    8880022    1    1    2    0    0 -0.20050359706E+03 -0.72017537556E+01  0.30160217100E+03  0.39320361170E+03  0.15294330000E+03 0. -1.
<mgrwt>
<rscale>  0 0.53568502E+03</rscale>
<asrwt>0</asrwt>
<pdfrwt beam="1">  1        1 0.28726959E-01 0.68852289E+03</pdfrwt>
<pdfrwt beam="2">  1       -1 0.18282949E+00 0.68852289E+03</pdfrwt>
<totfact> 0.33238283E+01</totfact>
</mgrwt>
</event>
<event>
 4    1  0.2514307E-008  0.6605404E+03  0.7818608E-02  0.1023609E+00
          1   -1    0    0  501    0  0.00000000000E+00  0.00000000000E+00  0.10667393945E+04  0.10667393945E+04  0.50400000000E-02 0. -1.
         -1   -1    0    0    0  501 -0.00000000000E+00 -0.00000000000E+00 -0.17027349547E+03  0.17027349554E+03  0.50400000000E-02 0.  1.
    8880023    1    1    2    0    0  0.45776218782E+02  0.20197865676E+02  0.56768958914E+03  0.87096790519E+03  0.65864270000E+03 0.  1.
    8880022    1    1    2    0    0 -0.45776218782E+02 -0.20197865676E+02  0.32877630986E+03  0.36604498484E+03  0.15294330000E+03 0.  0.
<mgrwt>
<rscale>  0 0.46406271E+03</rscale>
<asrwt>0</asrwt>
<pdfrwt beam="1">  1        1 0.16411375E+00 0.66054040E+03</pdfrwt>
<pdfrwt beam="2">  1       -1 0.26195922E-01 0.66054040E+03</pdfrwt>
<totfact> 0.17736745E+02</totfact>
</mgrwt>
</event>
<event>
 4    1  0.2514307E-008  0.1106558E+04  0.7818608E-02  0.9253790E-01
         -1   -1    0    0    0  501 -0.00000000000E+00  0.00000000000E+00  0.91572836354E+03  0.91572836355E+03  0.50400000000E-02 0.  1.
          1   -1    0    0  501    0  0.00000000000E+00 -0.00000000000E+00 -0.30174855082E+04  0.30174855082E+04  0.50400000000E-02 0. -1.
    8880023    1    1    2    0    0 -0.28920668404E+03  0.84084423439E+03  0.47415043952E+03  0.12038639367E+04  0.65864270000E+03 0.  0.
    8880022    1    1    2    0    0  0.28920668404E+03 -0.84084423439E+03 -0.25759075841E+04  0.27293499350E+04  0.15294330000E+03 0.  0.
<mgrwt>
<rscale>  0 0.10515066E+04</rscale>
<asrwt>0</asrwt>
<pdfrwt beam="1">  1        1 0.46422854E+00 0.11065576E+04</pdfrwt>
<pdfrwt beam="2">  1       -1 0.14088129E+00 0.11065576E+04</pdfrwt>
<totfact> 0.24139361E-01</totfact>
</mgrwt>
</event>
<event>
 4    1  0.2514307E-008  0.7712409E+03  0.7818608E-02  0.9776830E-01
         -1   -1    0    0    0  501 -0.00000000000E+00  0.00000000000E+00  0.24550612291E+03  0.24550612296E+03  0.50400000000E-02 0.  1.
          1   -1    0    0  501    0  0.00000000000E+00 -0.00000000000E+00 -0.17390262435E+04  0.17390262435E+04  0.50400000000E-02 0. -1.
    8880023    1    1    2    0    0 -0.31565076187E+03  0.24772347553E+03 -0.54810599713E+03  0.94616738168E+03  0.65864270000E+03 0.  1.
    8880022    1    1    2    0    0  0.31565076187E+03 -0.24772347553E+03 -0.94541412341E+03  0.10383649847E+04  0.15294330000E+03 0.  0.
<mgrwt>
<rscale>  0 0.66620959E+03</rscale>
<asrwt>0</asrwt>
<pdfrwt beam="1">  1        1 0.26754249E+00 0.77124090E+03</pdfrwt>
<pdfrwt beam="2">  1       -1 0.37770174E-01 0.77124090E+03</pdfrwt>
<totfact> 0.31268099E+01</totfact>
</mgrwt>
</event>
<event>
 4    1  0.2514307E-008  0.7488307E+03  0.7818608E-02  0.9834932E-01
          1   -1    0    0  501    0  0.00000000000E+00  0.00000000000E+00  0.92478535634E+03  0.92478535636E+03  0.50400000000E-02 0. -1.
         -1   -1    0    0    0  501 -0.00000000000E+00 -0.00000000000E+00 -0.80536970440E+03  0.80536970442E+03  0.50400000000E-02 0.  1.
    8880023    1    1    2    0    0 -0.26421563673E+03 -0.23901315387E+03 -0.56871565659E+03  0.94031106275E+03  0.65864270000E+03 0.  1.
    8880022    1    1    2    0    0  0.26421563673E+03  0.23901315387E+03  0.68813130853E+03  0.78984399802E+03  0.15294330000E+03 0.  0.
<mgrwt>
<rscale>  0 0.63521101E+03</rscale>
<asrwt>0</asrwt>
<pdfrwt beam="1">  1        1 0.14227467E+00 0.74883069E+03</pdfrwt>
<pdfrwt beam="2">  1       -1 0.12390303E+00 0.74883069E+03</pdfrwt>
<totfact> 0.10253461E+01</totfact>
</mgrwt>
</event>
<event>
 4    1  0.2514307E-008  0.1214015E+04  0.7818608E-02  0.9143618E-01
          1   -1    0    0  501    0  0.00000000000E+00  0.00000000000E+00  0.25804888089E+04  0.25804888089E+04  0.50400000000E-02 0. -1.
         -1   -1    0    0    0  501 -0.00000000000E+00 -0.00000000000E+00 -0.99288491966E+03  0.99288491967E+03  0.50400000000E-02 0.  1.
    8880023    1    1    2    0    0  0.77397107173E+03 -0.66407134670E+03 -0.44592205906E+03  0.12933207887E+04  0.65864270000E+03 0.  0.
    8880022    1    1    2    0    0 -0.77397107173E+03  0.66407134670E+03  0.20335259483E+04  0.22800529400E+04  0.15294330000E+03 0.  0.
<mgrwt>
<rscale>  0 0.11654826E+04</rscale>
<asrwt>0</asrwt>
<pdfrwt beam="1">  1        1 0.39699827E+00 0.12140149E+04</pdfrwt>
<pdfrwt beam="2">  1       -1 0.15275153E+00 0.12140149E+04</pdfrwt>
<totfact> 0.38972786E-01</totfact>
</mgrwt>
</event>
<event>
 4    1  0.2514307E-008  0.6875603E+03  0.7818608E-02  0.1005334E+00
         -1   -1    0    0    0  501 -0.00000000000E+00  0.00000000000E+00  0.99718195065E+03  0.99718195066E+03  0.50400000000E-02 0.  1.
          1   -1    0    0  501    0  0.00000000000E+00 -0.00000000000E+00 -0.12791921984E+04  0.12791921984E+04  0.50400000000E-02 0. -1.
    8880023    1    1    2    0    0  0.32914485133E+02  0.19453939522E+03  0.86360157004E+03  0.11038780810E+04  0.65864270000E+03 0.  1.
    8880022    1    1    2    0    0 -0.32914485133E+02 -0.19453939522E+03 -0.11456118178E+04  0.11724960681E+04  0.15294330000E+03 0.  0.
<mgrwt>
<rscale>  0 0.53371823E+03</rscale>
<asrwt>0</asrwt>
<pdfrwt beam="1">  1        1 0.19679880E+00 0.68756029E+03</pdfrwt>
<pdfrwt beam="2">  1       -1 0.15341261E+00 0.68756029E+03</pdfrwt>
<totfact> 0.32378045E+00</totfact>
</mgrwt>
</event>
<event>
 4    1  0.2514307E-008  0.7228012E+03  0.7818608E-02  0.9913219E-01
          1   -1    0    0  501    0  0.00000000000E+00  0.00000000000E+00  0.12453769202E+04  0.12453769202E+04  0.50400000000E-02 0. -1.
         -1   -1    0    0    0  501 -0.00000000000E+00 -0.00000000000E+00 -0.96954628405E+03  0.96954628406E+03  0.50400000000E-02 0.  1.
    8880023    1    1    2    0    0 -0.26250648333E+03  0.14043394274E+03 -0.80592674660E+03  0.10825707705E+04  0.65864270000E+03 0.  0.
    8880022    1    1    2    0    0  0.26250648333E+03 -0.14043394274E+03  0.10817573827E+04  0.11323524337E+04  0.15294330000E+03 0.  0.
<mgrwt>
<rscale>  0 0.59624883E+03</rscale>
<asrwt>0</asrwt>
<pdfrwt beam="1">  1        1 0.19159645E+00 0.72280118E+03</pdfrwt>
<pdfrwt beam="2">  1       -1 0.14916097E+00 0.72280118E+03</pdfrwt>
<totfact> 0.36672647E+00</totfact>
</mgrwt>
</event>
<event>
 4    1  0.2514307E-008  0.9262850E+03  0.7818608E-02  0.9485089E-01
         -1   -1    0    0    0  501 -0.00000000000E+00  0.00000000000E+00  0.53533447150E+03  0.53533447152E+03  0.50400000000E-02 0.  1.
          1   -1    0    0  501    0  0.00000000000E+00 -0.00000000000E+00 -0.21362661780E+04  0.21362661780E+04  0.50400000000E-02 0. -1.
    8880023    1    1    2    0    0 -0.51349655917E+03 -0.40064311439E+03  0.10996869243E+02  0.92635023549E+03  0.65864270000E+03 0.  1.
    8880022    1    1    2    0    0  0.51349655917E+03  0.40064311439E+03 -0.16119285758E+04  0.17452504141E+04  0.15294330000E+03 0.  0.
<mgrwt>
<rscale>  0 0.85392147E+03</rscale>
<asrwt>0</asrwt>
<pdfrwt beam="1">  1        1 0.32865633E+00 0.92628496E+03</pdfrwt>
<pdfrwt beam="2">  1       -1 0.82359151E-01 0.92628496E+03</pdfrwt>
<totfact> 0.36130715E+00</totfact>
</mgrwt>
</event>
<event>
 4    1  0.2514307E-008  0.1209454E+04  0.7818608E-02  0.9147986E-01
          1   -1    0    0  501    0  0.00000000000E+00  0.00000000000E+00  0.26717266445E+04  0.26717266445E+04  0.50400000000E-02 0. -1.
         -1   -1    0    0    0  501 -0.00000000000E+00 -0.00000000000E+00 -0.66751035864E+03  0.66751035866E+03  0.50400000000E-02 0.  1.
    8880023    1    1    2    0    0  0.97565331435E+03 -0.27761512104E+03  0.14808534412E+03  0.12184863646E+04  0.65864270000E+03 0.  0.
    8880022    1    1    2    0    0 -0.97565331435E+03  0.27761512104E+03  0.18561309418E+04  0.21207506386E+04  0.15294330000E+03 0.  0.
<mgrwt>
<rscale>  0 0.11606805E+04</rscale>
<asrwt>0</asrwt>
<pdfrwt beam="1">  1        1 0.41103487E+00 0.12094543E+04</pdfrwt>
<pdfrwt beam="2">  1       -1 0.10269390E+00 0.12094543E+04</pdfrwt>
<totfact> 0.91239728E-01</totfact>
</mgrwt>
</event>
<event>
 4    1  0.2514307E-008  0.1397978E+04  0.7818608E-02  0.8985255E-01
         -1   -1    0    0    0  501 -0.00000000000E+00  0.00000000000E+00  0.13523418300E+04  0.13523418300E+04  0.50400000000E-02 0.  1.
          1   -1    0    0  501    0  0.00000000000E+00 -0.00000000000E+00 -0.28045645006E+04  0.28045645006E+04  0.50400000000E-02 0. -1.
    8880023    1    1    2    0    0  0.69102019387E+03  0.10212851869E+04  0.78095543018E+03  0.16013225570E+04  0.65864270000E+03 0.  0.
    8880022    1    1    2    0    0 -0.69102019387E+03 -0.10212851869E+04 -0.22331781007E+04  0.25555837736E+04  0.15294330000E+03 0.  0.
<mgrwt>
<rscale>  0 0.13573864E+04</rscale>
<asrwt>0</asrwt>
<pdfrwt beam="1">  1        1 0.43147146E+00 0.13979780E+04</pdfrwt>
<pdfrwt beam="2">  1       -1 0.20805259E+00 0.13979780E+04</pdfrwt>
<totfact> 0.10518542E-01</totfact>
</mgrwt>
</event>
<event>
 4    1  0.2514307E-008  0.1553853E+04  0.7818608E-02  0.8872516E-01
         -1   -1    0    0    0  501 -0.00000000000E+00  0.00000000000E+00  0.12481764229E+04  0.12481764229E+04  0.50400000000E-02 0.  1.
          1   -1    0    0  501    0  0.00000000000E+00 -0.00000000000E+00 -0.24302123091E+04  0.24302123091E+04  0.50400000000E-02 0. -1.
    8880023    1    1    2    0    0 -0.14042409302E+04  0.93578070726E+02  0.34964160627E+03  0.15927049019E+04  0.65864270000E+03 0.  0.
    8880022    1    1    2    0    0  0.14042409302E+04 -0.93578070726E+02 -0.15316774925E+04  0.20856838302E+04  0.15294330000E+03 0.  0.
<mgrwt>
<rscale>  0 0.15180840E+04</rscale>
<asrwt>0</asrwt>
<pdfrwt beam="1">  1        1 0.37387882E+00 0.15538532E+04</pdfrwt>
<pdfrwt beam="2">  1       -1 0.19202714E+00 0.15538532E+04</pdfrwt>
<totfact> 0.24339664E-01</totfact>
</mgrwt>
</event>
<event>
 4    1  0.2514307E-008  0.8468512E+03  0.7818608E-02  0.9617395E-01
         -1   -1    0    0    0  501 -0.00000000000E+00  0.00000000000E+00  0.37455817343E+03  0.37455817347E+03  0.50400000000E-02 0.  1.
          1   -1    0    0  501    0  0.00000000000E+00 -0.00000000000E+00 -0.20776765163E+04  0.20776765163E+04  0.50400000000E-02 0. -1.
    8880023    1    1    2    0    0 -0.52083630029E+03  0.10989205778E+03 -0.16990260042E+04  0.18983799107E+04  0.65864270000E+03 0.  0.
    8880022    1    1    2    0    0  0.52083630029E+03 -0.10989205778E+03 -0.40923386537E+01  0.55385477908E+03  0.15294330000E+03 0.  0.
<mgrwt>
<rscale>  0 0.76155511E+03</rscale>
<asrwt>0</asrwt>
<pdfrwt beam="1">  1        1 0.31964254E+00 0.84685118E+03</pdfrwt>
<pdfrwt beam="2">  1       -1 0.57624335E-01 0.84685118E+03</pdfrwt>
<totfact> 0.83138775E+00</totfact>
</mgrwt>
</event>
<event>
 4    1  0.2514307E-008  0.9924651E+03  0.7818608E-02  0.9391483E-01
          1   -1    0    0  501    0  0.00000000000E+00  0.00000000000E+00  0.23545228313E+04  0.23545228314E+04  0.50400000000E-02 0. -1.
         -1   -1    0    0    0  501 -0.00000000000E+00 -0.00000000000E+00 -0.13834900570E+04  0.13834900570E+04  0.50400000000E-02 0.  1.
    8880023    1    1    2    0    0 -0.67374453991E+03  0.31184133750E+03 -0.11302775598E+04  0.15041656469E+04  0.65864270000E+03 0.  0.
    8880022    1    1    2    0    0  0.67374453991E+03 -0.31184133750E+03  0.21013103341E+04  0.22338472415E+04  0.15294330000E+03 0.  0.
<mgrwt>
<rscale>  0 0.92779951E+03</rscale>
<asrwt>0</asrwt>
<pdfrwt beam="1">  1        1 0.36223428E+00 0.99246508E+03</pdfrwt>
<pdfrwt beam="2">  1       -1 0.21284463E+00 0.99246508E+03</pdfrwt>
<totfact> 0.21420251E-01</totfact>
</mgrwt>
</event>
<event>
 4    1  0.2514307E-008  0.1117466E+04  0.7818608E-02  0.9241855E-01
          1   -1    0    0  501    0  0.00000000000E+00  0.00000000000E+00  0.86113785654E+03  0.86113785655E+03  0.50400000000E-02 0. -1.
         -1   -1    0    0    0  501 -0.00000000000E+00 -0.00000000000E+00 -0.26870155885E+04  0.26870155885E+04  0.50400000000E-02 0.  1.
    8880023    1    1    2    0    0 -0.27940002697E+02 -0.90229680597E+03 -0.22702895497E+04  0.25304041210E+04  0.65864270000E+03 0.  0.
    8880022    1    1    2    0    0  0.27940002697E+02  0.90229680597E+03  0.44441181776E+03  0.10177493240E+04  0.15294330000E+03 0.  0.
<mgrwt>
<rscale>  0 0.10631669E+04</rscale>
<asrwt>0</asrwt>
<pdfrwt beam="1">  1        1 0.13248275E+00 0.11174661E+04</pdfrwt>
<pdfrwt beam="2">  1       -1 0.41338701E+00 0.11174661E+04</pdfrwt>
<totfact> 0.11418381E-01</totfact>
</mgrwt>
</event>
<event>
 4    1  0.2514307E-008  0.1232156E+04  0.7818608E-02  0.9126481E-01
          1   -1    0    0  501    0  0.00000000000E+00  0.00000000000E+00  0.19950606430E+04  0.19950606430E+04  0.50400000000E-02 0. -1.
         -1   -1    0    0    0  501 -0.00000000000E+00 -0.00000000000E+00 -0.10035118569E+04  0.10035118569E+04  0.50400000000E-02 0.  1.
    8880023    1    1    2    0    0  0.85699799630E+03 -0.59156835086E+03 -0.36174878858E+03  0.12841616221E+04  0.65864270000E+03 0.  0.
    8880022    1    1    2    0    0 -0.85699799630E+03  0.59156835086E+03  0.13532975746E+04  0.17144108778E+04  0.15294330000E+03 0.  0.
<mgrwt>
<rscale>  0 0.11845585E+04</rscale>
<asrwt>0</asrwt>
<pdfrwt beam="1">  1        1 0.30693240E+00 0.12321562E+04</pdfrwt>
<pdfrwt beam="2">  1       -1 0.15438644E+00 0.12321562E+04</pdfrwt>
<totfact> 0.94808405E-01</totfact>
</mgrwt>
</event>
<event>
 4    1  0.2514307E-008  0.7497712E+03  0.7818608E-02  0.9832347E-01
          1   -1    0    0  501    0  0.00000000000E+00  0.00000000000E+00  0.86273421582E+03  0.86273421583E+03  0.50400000000E-02 0. -1.
         -1   -1    0    0    0  501 -0.00000000000E+00 -0.00000000000E+00 -0.50079819681E+03  0.50079819683E+03  0.50400000000E-02 0.  1.
    8880023    1    1    2    0    0 -0.12354085194E+03  0.33628018054E+03  0.55107540575E+03  0.93050578236E+03  0.65864270000E+03 0.  0.
    8880022    1    1    2    0    0  0.12354085194E+03 -0.33628018054E+03 -0.18913938675E+03  0.43302663030E+03  0.15294330000E+03 0.  0.
<mgrwt>
<rscale>  0 0.63655144E+03</rscale>
<asrwt>0</asrwt>
<pdfrwt beam="1">  1        1 0.13272834E+00 0.74977124E+03</pdfrwt>
<pdfrwt beam="2">  1       -1 0.77045877E-01 0.74977124E+03</pdfrwt>
<totfact> 0.33850324E+01</totfact>
</mgrwt>
</event>
<event>
 4    1  0.2514307E-008  0.6927608E+03  0.7818608E-02  0.1002867E+00
         -1   -1    0    0    0  501 -0.00000000000E+00  0.00000000000E+00  0.79823782326E+03  0.79823782328E+03  0.50400000000E-02 0.  1.
          1   -1    0    0  501    0  0.00000000000E+00 -0.00000000000E+00 -0.24918870935E+04  0.24918870935E+04  0.50400000000E-02 0. -1.
    8880023    1    1    2    0    0  0.12231292433E+03  0.17648478424E+03  0.63909680476E+03  0.94252971446E+03  0.65864270000E+03 0.  1.
    8880022    1    1    2    0    0 -0.12231292433E+03 -0.17648478424E+03 -0.23327460750E+04  0.23475952023E+04  0.15294330000E+03 0.  0.
<mgrwt>
<rscale>  0 0.54410760E+03</rscale>
<asrwt>0</asrwt>
<pdfrwt beam="1">  1        1 0.38336724E+00 0.69276081E+03</pdfrwt>
<pdfrwt beam="2">  1       -1 0.12280582E+00 0.69276081E+03</pdfrwt>
<totfact> 0.86896534E-01</totfact>
</mgrwt>
</event>
<event>
 4    1  0.2514307E-008  0.9921396E+03  0.7818608E-02  0.9391914E-01
          1   -1    0    0  501    0  0.00000000000E+00  0.00000000000E+00  0.12691792800E+04  0.12691792800E+04  0.50400000000E-02 0. -1.
         -1   -1    0    0    0  501 -0.00000000000E+00 -0.00000000000E+00 -0.86397937476E+03  0.86397937478E+03  0.50400000000E-02 0.  1.
    8880023    1    1    2    0    0 -0.19145920238E+03 -0.71685015774E+03 -0.36089848519E+03  0.10557408288E+04  0.65864270000E+03 0. -1.
    8880022    1    1    2    0    0  0.19145920238E+03  0.71685015774E+03  0.76609839043E+03  0.10774178259E+04  0.15294330000E+03 0.  0.
<mgrwt>
<rscale>  0 0.92744088E+03</rscale>
<asrwt>0</asrwt>
<pdfrwt beam="1">  1        1 0.19525835E+00 0.99213960E+03</pdfrwt>
<pdfrwt beam="2">  1       -1 0.13291990E+00 0.99213960E+03</pdfrwt>
<totfact> 0.45836018E+00</totfact>
</mgrwt>
</event>
<event>
 4    1  0.2514307E-008  0.9082448E+03  0.7818608E-02  0.9512924E-01
          1   -1    0    0  501    0  0.00000000000E+00  0.00000000000E+00  0.38974177371E+03  0.38974177374E+03  0.50400000000E-02 0. -1.
         -1   -1    0    0    0  501 -0.00000000000E+00 -0.00000000000E+00 -0.16857426329E+04  0.16857426329E+04  0.50400000000E-02 0.  1.
    8880023    1    1    2    0    0  0.55086258413E+03 -0.29605545515E+03 -0.10448545918E+04  0.13844239753E+04  0.65864270000E+03 0.  0.
    8880022    1    1    2    0    0 -0.55086258413E+03  0.29605545515E+03 -0.25114626736E+03  0.69106043133E+03  0.15294330000E+03 0.  0.
<mgrwt>
<rscale>  0 0.83337690E+03</rscale>
<asrwt>0</asrwt>
<pdfrwt beam="1">  1        1 0.59960274E-01 0.90824480E+03</pdfrwt>
<pdfrwt beam="2">  1       -1 0.25934502E+00 0.90824480E+03</pdfrwt>
<totfact> 0.38404020E+00</totfact>
</mgrwt>
</event>
<event>
 4    1  0.2514307E-008  0.7831530E+03  0.7818608E-02  0.9748482E-01
         -1   -1    0    0    0  501 -0.00000000000E+00  0.00000000000E+00  0.39030376240E+03  0.39030376243E+03  0.50400000000E-02 0.  1.
          1   -1    0    0  501    0  0.00000000000E+00 -0.00000000000E+00 -0.22873256564E+04  0.22873256564E+04  0.50400000000E-02 0. -1.
    8880023    1    1    2    0    0 -0.37719788489E+03 -0.19297724150E+03 -0.59176233523E+02  0.78538556963E+03  0.65864270000E+03 0.  1.
    8880022    1    1    2    0    0  0.37719788489E+03  0.19297724150E+03 -0.18378456604E+04  0.18922438492E+04  0.15294330000E+03 0.  0.
<mgrwt>
<rscale>  0 0.68202130E+03</rscale>
<asrwt>0</asrwt>
<pdfrwt beam="1">  1        1 0.35189625E+00 0.78315303E+03</pdfrwt>
<pdfrwt beam="2">  1       -1 0.60046734E-01 0.78315303E+03</pdfrwt>
<totfact> 0.55972868E+00</totfact>
</mgrwt>
</event>
<event>
 4    1  0.2514307E-008  0.1545552E+04  0.7818608E-02  0.8878122E-01
         -1   -1    0    0    0  501 -0.00000000000E+00  0.00000000000E+00  0.19773530928E+04  0.19773530928E+04  0.50400000000E-02 0.  1.
          1   -1    0    0  501    0  0.00000000000E+00 -0.00000000000E+00 -0.13161166805E+04  0.13161166805E+04  0.50400000000E-02 0. -1.
    8880023    1    1    2    0    0  0.16398640644E+03 -0.13885347361E+04 -0.32021153664E+03  0.15783744452E+04  0.65864270000E+03 0.  0.
    8880022    1    1    2    0    0 -0.16398640644E+03  0.13885347361E+04  0.98144794895E+03  0.17150953281E+04  0.15294330000E+03 0.  0.
<mgrwt>
<rscale>  0 0.15095570E+04</rscale>
<asrwt>0</asrwt>
<pdfrwt beam="1">  1        1 0.20247949E+00 0.15455518E+04</pdfrwt>
<pdfrwt beam="2">  1       -1 0.30420817E+00 0.15455518E+04</pdfrwt>
<totfact> 0.25749767E-01</totfact>
</mgrwt>
</event>
<event>
 4    1  0.2514307E-008  0.1456751E+04  0.7818608E-02  0.8940795E-01
         -1   -1    0    0    0  501 -0.00000000000E+00  0.00000000000E+00  0.24555774237E+04  0.24555774237E+04  0.50400000000E-02 0.  1.
          1   -1    0    0  501    0  0.00000000000E+00 -0.00000000000E+00 -0.13116545386E+04  0.13116545386E+04  0.50400000000E-02 0. -1.
    8880023    1    1    2    0    0 -0.10951148740E+04  0.69931112805E+03  0.17901809261E+04  0.23080014288E+04  0.65864270000E+03 0.  0.
    8880022    1    1    2    0    0  0.10951148740E+04 -0.69931112805E+03 -0.64625804103E+03  0.14592305334E+04  0.15294330000E+03 0.  0.
<mgrwt>
<rscale>  0 0.14181349E+04</rscale>
<asrwt>0</asrwt>
<pdfrwt beam="1">  1        1 0.20179301E+00 0.14567508E+04</pdfrwt>
<pdfrwt beam="2">  1       -1 0.37778114E+00 0.14567508E+04</pdfrwt>
<totfact> 0.85727165E-02</totfact>
</mgrwt>
</event>
<event>
 4    1  0.2514307E-008  0.8653007E+03  0.7818608E-02  0.9584203E-01
          1   -1    0    0  501    0  0.00000000000E+00  0.00000000000E+00  0.18098230004E+04  0.18098230004E+04  0.50400000000E-02 0. -1.
         -1   -1    0    0    0  501 -0.00000000000E+00 -0.00000000000E+00 -0.79471093515E+03  0.79471093516E+03  0.50400000000E-02 0.  1.
    8880023    1    1    2    0    0 -0.10489136748E+03 -0.55130109492E+03 -0.48756535220E+03  0.99320958270E+03  0.65864270000E+03 0.  0.
    8880022    1    1    2    0    0  0.10489136748E+03  0.55130109492E+03  0.15026774175E+04  0.16113243529E+04  0.15294330000E+03 0.  0.
<mgrwt>
<rscale>  0 0.78350601E+03</rscale>
<asrwt>0</asrwt>
<pdfrwt beam="1">  1        1 0.27843430E+00 0.86530070E+03</pdfrwt>
<pdfrwt beam="2">  1       -1 0.12226322E+00 0.86530070E+03</pdfrwt>
<totfact> 0.24411189E+00</totfact>
</mgrwt>
</event>
<event>
 4    1  0.2514307E-008  0.1015313E+04  0.7818608E-02  0.9361792E-01
          1   -1    0    0  501    0  0.00000000000E+00  0.00000000000E+00  0.32497001770E+04  0.32497001770E+04  0.50400000000E-02 0. -1.
         -1   -1    0    0    0  501 -0.00000000000E+00 -0.00000000000E+00 -0.62211742534E+03  0.62211742536E+03  0.50400000000E-02 0.  1.
    8880023    1    1    2    0    0 -0.62888801028E+03 -0.44894398690E+03 -0.11178928829E+03  0.10214489141E+04  0.65864270000E+03 0.  0.
    8880022    1    1    2    0    0  0.62888801028E+03  0.44894398690E+03  0.27393720400E+04  0.28503686883E+04  0.15294330000E+03 0.  0.
<mgrwt>
<rscale>  0 0.95287896E+03</rscale>
<asrwt>0</asrwt>
<pdfrwt beam="1">  1        1 0.49995386E+00 0.10153133E+04</pdfrwt>
<pdfrwt beam="2">  1       -1 0.95710375E-01 0.10153133E+04</pdfrwt>
<totfact> 0.42319898E-01</totfact>
</mgrwt>
</event>
<event>
 4    1  0.2514307E-008  0.7082394E+03  0.7818608E-02  0.9964598E-01
          1   -1    0    0  501    0  0.00000000000E+00  0.00000000000E+00  0.38263266326E+03  0.38263266329E+03  0.50400000000E-02 0. -1.
         -1   -1    0    0    0  501 -0.00000000000E+00 -0.00000000000E+00 -0.87496046209E+03  0.87496046210E+03  0.50400000000E-02 0.  1.
    8880023    1    1    2    0    0 -0.68929226696E+02 -0.25108079607E+03 -0.60880353944E+03  0.93394044796E+03  0.65864270000E+03 0.  1.
    8880022    1    1    2    0    0  0.68929226696E+02  0.25108079607E+03  0.11647574061E+03  0.32365267744E+03  0.15294330000E+03 0.  0.
<mgrwt>
<rscale>  0 0.57230185E+03</rscale>
<asrwt>0</asrwt>
<pdfrwt beam="1">  1        1 0.58866564E-01 0.70823937E+03</pdfrwt>
<pdfrwt beam="2">  1       -1 0.13460930E+00 0.70823937E+03</pdfrwt>
<totfact> 0.30347453E+01</totfact>
</mgrwt>
</event>
<event>
 4    1  0.2514307E-008  0.1232341E+04  0.7818608E-02  0.9126308E-01
         -1   -1    0    0    0  501 -0.00000000000E+00  0.00000000000E+00  0.63199822197E+03  0.63199822199E+03  0.50400000000E-02 0.  1.
          1   -1    0    0  501    0  0.00000000000E+00 -0.00000000000E+00 -0.25731439069E+04  0.25731439069E+04  0.50400000000E-02 0. -1.
    8880023    1    1    2    0    0  0.10372717491E+04  0.94459429564E+02 -0.32176495689E+03  0.12736554319E+04  0.65864270000E+03 0.  0.
    8880022    1    1    2    0    0 -0.10372717491E+04 -0.94459429564E+02 -0.16193807280E+04  0.19314866970E+04  0.15294330000E+03 0.  0.
<mgrwt>
<rscale>  0 0.11847531E+04</rscale>
<asrwt>0</asrwt>
<pdfrwt beam="1">  1        1 0.39586829E+00 0.12323415E+04</pdfrwt>
<pdfrwt beam="2">  1       -1 0.97230497E-01 0.12323415E+04</pdfrwt>
<totfact> 0.12083704E+00</totfact>
</mgrwt>
</event>
<event>
 4    1  0.2514307E-008  0.6777205E+03  0.7818608E-02  0.1010644E+00
          1   -1    0    0  501    0  0.00000000000E+00  0.00000000000E+00  0.20748026616E+03  0.20748026622E+03  0.50400000000E-02 0. -1.
         -1   -1    0    0    0  501 -0.00000000000E+00 -0.00000000000E+00 -0.14196502535E+04  0.14196502535E+04  0.50400000000E-02 0.  1.
    8880023    1    1    2    0    0 -0.14855764714E+03  0.58528088702E+02 -0.12309989054E+04  0.14052271784E+04  0.65864270000E+03 0.  1.
    8880022    1    1    2    0    0  0.14855764714E+03 -0.58528088702E+02  0.18828918071E+02  0.22190334126E+03  0.15294330000E+03 0.  0.
<mgrwt>
<rscale>  0 0.51219658E+03</rscale>
<asrwt>0</asrwt>
<pdfrwt beam="1">  1        1 0.31920042E-01 0.67772053E+03</pdfrwt>
<pdfrwt beam="2">  1       -1 0.21840773E+00 0.67772053E+03</pdfrwt>
<totfact> 0.16586908E+01</totfact>
</mgrwt>
</event>
<event>
 4    1  0.2514307E-008  0.7685491E+03  0.7818608E-02  0.9783457E-01
         -1   -1    0    0    0  501 -0.00000000000E+00  0.00000000000E+00  0.51145134014E+03  0.51145134016E+03  0.50400000000E-02 0.  1.
          1   -1    0    0  501    0  0.00000000000E+00 -0.00000000000E+00 -0.12616166789E+04  0.12616166789E+04  0.50400000000E-02 0. -1.
    8880023    1    1    2    0    0 -0.31811676597E+03  0.23592204167E+03  0.14520013284E+03  0.78214498105E+03  0.65864270000E+03 0.  1.
    8880022    1    1    2    0    0  0.31811676597E+03 -0.23592204167E+03 -0.89536547163E+03  0.99092303805E+03  0.15294330000E+03 0.  0.
<mgrwt>
<rscale>  0 0.66257929E+03</rscale>
<asrwt>0</asrwt>
<pdfrwt beam="1">  1        1 0.19409487E+00 0.76854908E+03</pdfrwt>
<pdfrwt beam="2">  1       -1 0.78684822E-01 0.76854908E+03</pdfrwt>
<totfact> 0.16049881E+01</totfact>
</mgrwt>
</event>
<event>
 4    1  0.2514307E-008  0.7466045E+03  0.7818608E-02  0.9841110E-01
          1   -1    0    0  501    0  0.00000000000E+00  0.00000000000E+00  0.10965109627E+04  0.10965109627E+04  0.50400000000E-02 0. -1.
         -1   -1    0    0    0  501 -0.00000000000E+00 -0.00000000000E+00 -0.59547245801E+03  0.59547245804E+03  0.50400000000E-02 0.  1.
    8880023    1    1    2    0    0  0.25605310331E+03 -0.24092490084E+03 -0.29944587412E+03  0.80441658197E+03  0.65864270000E+03 0.  1.
    8880022    1    1    2    0    0 -0.25605310331E+03  0.24092490084E+03  0.80048437876E+03  0.88756683873E+03  0.15294330000E+03 0.  0.
<mgrwt>
<rscale>  0 0.63202240E+03</rscale>
<asrwt>0</asrwt>
<pdfrwt beam="1">  1        1 0.16869399E+00 0.74660445E+03</pdfrwt>
<pdfrwt beam="2">  1       -1 0.91611148E-01 0.74660445E+03</pdfrwt>
<totfact> 0.15286125E+01</totfact>
</mgrwt>
</event>
<event>
 4    1  0.2514307E-008  0.8235876E+03  0.7818608E-02  0.9661940E-01
         -1   -1    0    0    0  501 -0.00000000000E+00  0.00000000000E+00  0.14057665355E+04  0.14057665356E+04  0.50400000000E-02 0.  1.
          1   -1    0    0  501    0  0.00000000000E+00 -0.00000000000E+00 -0.11302879460E+04  0.11302879460E+04  0.50400000000E-02 0. -1.
    8880023    1    1    2    0    0 -0.13699130796E+03 -0.47509969918E+03  0.12124020090E+04  0.14656790850E+04  0.65864270000E+03 0.  1.
    8880022    1    1    2    0    0  0.13699130796E+03  0.47509969918E+03 -0.93692341943E+03  0.10703753965E+04  0.15294330000E+03 0.  0.
<mgrwt>
<rscale>  0 0.73328784E+03</rscale>
<asrwt>0</asrwt>
<pdfrwt beam="1">  1        1 0.17389045E+00 0.82358761E+03</pdfrwt>
<pdfrwt beam="2">  1       -1 0.21627177E+00 0.82358761E+03</pdfrwt>
<totfact> 0.14501801E+00</totfact>
</mgrwt>
</event>
<event>
 4    1  0.2514307E-008  0.8924872E+03  0.7818608E-02  0.9538201E-01
          1   -1    0    0  501    0  0.00000000000E+00  0.00000000000E+00  0.14103221749E+04  0.14103221750E+04  0.50400000000E-02 0. -1.
         -1   -1    0    0    0  501 -0.00000000000E+00 -0.00000000000E+00 -0.16867267984E+04  0.16867267984E+04  0.50400000000E-02 0.  1.
    8880023    1    1    2    0    0  0.18552653773E+03 -0.57297739244E+03 -0.14881563490E+04  0.17352644507E+04  0.65864270000E+03 0.  0.
    8880022    1    1    2    0    0 -0.18552653773E+03  0.57297739244E+03  0.12117517256E+04  0.13617845226E+04  0.15294330000E+03 0.  0.
<mgrwt>
<rscale>  0 0.81525047E+03</rscale>
<asrwt>0</asrwt>
<pdfrwt beam="1">  1        1 0.21697264E+00 0.89248720E+03</pdfrwt>
<pdfrwt beam="2">  1       -1 0.25949643E+00 0.89248720E+03</pdfrwt>
<totfact> 0.47085916E-01</totfact>
</mgrwt>
</event>
<event>
 4    1  0.2514307E-008  0.1644449E+04  0.7818608E-02  0.8813844E-01
          1   -1    0    0  501    0  0.00000000000E+00  0.00000000000E+00  0.16248881144E+04  0.16248881144E+04  0.50400000000E-02 0. -1.
         -1   -1    0    0    0  501 -0.00000000000E+00 -0.00000000000E+00 -0.19737849419E+04  0.19737849419E+04  0.50400000000E-02 0.  1.
    8880023    1    1    2    0    0  0.13167906321E+04 -0.73243660789E+03  0.66744405448E+03  0.17747373680E+04  0.65864270000E+03 0.  0.
    8880022    1    1    2    0    0 -0.13167906321E+04  0.73243660789E+03 -0.10163408820E+04  0.18239356883E+04  0.15294330000E+03 0.  0.
<mgrwt>
<rscale>  0 0.16109590E+04</rscale>
<asrwt>0</asrwt>
<pdfrwt beam="1">  1        1 0.24998279E+00 0.16444486E+04</pdfrwt>
<pdfrwt beam="2">  1       -1 0.30365922E+00 0.16444486E+04</pdfrwt>
<totfact> 0.15587746E-01</totfact>
</mgrwt>
</event>
<event>
 4    1  0.2514307E-008  0.7820434E+03  0.7818608E-02  0.9751059E-01
          1   -1    0    0  501    0  0.00000000000E+00  0.00000000000E+00  0.56666825609E+03  0.56666825611E+03  0.50400000000E-02 0. -1.
         -1   -1    0    0    0  501 -0.00000000000E+00 -0.00000000000E+00 -0.79010003255E+03  0.79010003257E+03  0.50400000000E-02 0.  1.
    8880023    1    1    2    0    0 -0.24372013503E+03 -0.34406708467E+03 -0.39551085882E+03  0.87636790715E+03  0.65864270000E+03 0.  1.
    8880022    1    1    2    0    0  0.24372013503E+03  0.34406708467E+03  0.17207908236E+03  0.48040038153E+03  0.15294330000E+03 0.  0.
<mgrwt>
<rscale>  0 0.68056473E+03</rscale>
<asrwt>0</asrwt>
<pdfrwt beam="1">  1        1 0.87179731E-01 0.78204339E+03</pdfrwt>
<pdfrwt beam="2">  1       -1 0.12155385E+00 0.78204339E+03</pdfrwt>
<totfact> 0.22794788E+01</totfact>
</mgrwt>
</event>
<event>
 4    1  0.2514307E-008  0.7257518E+03  0.7818608E-02  0.9903584E-01
          1   -1    0    0  501    0  0.00000000000E+00  0.00000000000E+00  0.14038600372E+04  0.14038600372E+04  0.50400000000E-02 0. -1.
         -1   -1    0    0    0  501 -0.00000000000E+00 -0.00000000000E+00 -0.63623051604E+03  0.63623051606E+03  0.50400000000E-02 0.  1.
    8880023    1    1    2    0    0  0.10072442529E+03  0.28768036269E+03 -0.39652742946E+03  0.82701246031E+03  0.65864270000E+03 0.  0.
    8880022    1    1    2    0    0 -0.10072442529E+03 -0.28768036269E+03  0.11641569506E+04  0.12130780929E+04  0.15294330000E+03 0. -1.
<mgrwt>
<rscale>  0 0.60087918E+03</rscale>
<asrwt>0</asrwt>
<pdfrwt beam="1">  1        1 0.21597846E+00 0.72575175E+03</pdfrwt>
<pdfrwt beam="2">  1       -1 0.97881620E-01 0.72575175E+03</pdfrwt>
<totfact> 0.79636581E+00</totfact>
</mgrwt>
</event>
<event>
 4    1  0.2514307E-008  0.8332968E+03  0.7818608E-02  0.9642952E-01
         -1   -1    0    0    0  501 -0.00000000000E+00  0.00000000000E+00  0.32218596147E+03  0.32218596151E+03  0.50400000000E-02 0.  1.
          1   -1    0    0  501    0  0.00000000000E+00 -0.00000000000E+00 -0.37387148486E+04  0.37387148486E+04  0.50400000000E-02 0. -1.
    8880023    1    1    2    0    0  0.26266274307E+03  0.43770032320E+03 -0.34280666057E+04  0.35278923097E+04  0.65864270000E+03 0. -1.
    8880022    1    1    2    0    0 -0.26266274307E+03 -0.43770032320E+03  0.11537718587E+02  0.53300850040E+03  0.15294330000E+03 0.  0.
<mgrwt>
<rscale>  0 0.74517429E+03</rscale>
<asrwt>0</asrwt>
<pdfrwt beam="1">  1        1 0.57518687E+00 0.83329676E+03</pdfrwt>
<pdfrwt beam="2">  1       -1 0.49567074E-01 0.83329676E+03</pdfrwt>
<totfact> 0.70656738E-01</totfact>
</mgrwt>
</event>
<event>
 4    1  0.2514307E-008  0.1055189E+04  0.7818608E-02  0.9312669E-01
          1   -1    0    0  501    0  0.00000000000E+00  0.00000000000E+00  0.19324762419E+04  0.19324762419E+04  0.50400000000E-02 0. -1.
         -1   -1    0    0    0  501 -0.00000000000E+00 -0.00000000000E+00 -0.96111745405E+03  0.96111745406E+03  0.50400000000E-02 0.  1.
    8880023    1    1    2    0    0  0.42503149772E+03 -0.70637289699E+03 -0.52481814278E+03  0.11784985078E+04  0.65864270000E+03 0.  1.
    8880022    1    1    2    0    0 -0.42503149772E+03  0.70637289699E+03  0.14961769306E+04  0.17150951882E+04  0.15294330000E+03 0.  0.
<mgrwt>
<rscale>  0 0.99624854E+03</rscale>
<asrwt>0</asrwt>
<pdfrwt beam="1">  1        1 0.29730403E+00 0.10551894E+04</pdfrwt>
<pdfrwt beam="2">  1       -1 0.14786423E+00 0.10551894E+04</pdfrwt>
<totfact> 0.12031469E+00</totfact>
</mgrwt>
</event>
<event>
 4    1  0.2514307E-008  0.1580514E+04  0.7818608E-02  0.8854779E-01
         -1   -1    0    0    0  501 -0.00000000000E+00  0.00000000000E+00  0.17159975054E+04  0.17159975054E+04  0.50400000000E-02 0.  1.
          1   -1    0    0  501    0  0.00000000000E+00 -0.00000000000E+00 -0.15765046088E+04  0.15765046088E+04  0.50400000000E-02 0. -1.
    8880023    1    1    2    0    0  0.32386355271E+02  0.14363724986E+04  0.71822644556E+03  0.17360513426E+04  0.65864270000E+03 0.  0.
    8880022    1    1    2    0    0 -0.32386355271E+02 -0.14363724986E+04 -0.57873354895E+03  0.15564507716E+04  0.15294330000E+03 0.  0.
<mgrwt>
<rscale>  0 0.15454497E+04</rscale>
<asrwt>0</asrwt>
<pdfrwt beam="1">  1        1 0.24253917E+00 0.15805142E+04</pdfrwt>
<pdfrwt beam="2">  1       -1 0.26399962E+00 0.15805142E+04</pdfrwt>
<totfact> 0.30662540E-01</totfact>
</mgrwt>
</event>
<event>
 4    1  0.2514307E-008  0.6609286E+03  0.7818608E-02  0.1023225E+00
         -1   -1    0    0    0  501 -0.00000000000E+00  0.00000000000E+00  0.81453931269E+03  0.81453931270E+03  0.50400000000E-02 0.  1.
          1   -1    0    0  501    0  0.00000000000E+00 -0.00000000000E+00 -0.29174151037E+03  0.29174151041E+03  0.50400000000E-02 0. -1.
    8880023    1    1    2    0    0  0.39131706061E+02  0.38537037126E+02  0.62880010328E+03  0.91225882829E+03  0.65864270000E+03 0.  1.
    8880022    1    1    2    0    0 -0.39131706061E+02 -0.38537037126E+02 -0.10600230096E+03  0.19402199482E+03  0.15294330000E+03 0.  0.
<mgrwt>
<rscale>  0 0.46540703E+03</rscale>
<asrwt>0</asrwt>
<pdfrwt beam="1">  1        1 0.44883311E-01 0.66092859E+03</pdfrwt>
<pdfrwt beam="2">  1       -1 0.12531374E+00 0.66092859E+03</pdfrwt>
<totfact> 0.51949088E+01</totfact>
</mgrwt>
</event>
<event>
 4    1  0.2514307E-008  0.8308475E+03  0.7818608E-02  0.9647686E-01
          1   -1    0    0  501    0  0.00000000000E+00  0.00000000000E+00  0.10144631383E+04  0.10144631383E+04  0.50400000000E-02 0. -1.
         -1   -1    0    0    0  501 -0.00000000000E+00 -0.00000000000E+00 -0.17016889191E+04  0.17016889191E+04  0.50400000000E-02 0.  1.
    8880023    1    1    2    0    0 -0.44172702879E+03 -0.24773899867E+03 -0.15184230049E+04  0.17308714590E+04  0.65864270000E+03 0.  0.
    8880022    1    1    2    0    0  0.44172702879E+03  0.24773899867E+03  0.83119722407E+03  0.98528059848E+03  0.15294330000E+03 0.  0.
<mgrwt>
<rscale>  0 0.74218851E+03</rscale>
<asrwt>0</asrwt>
<pdfrwt beam="1">  1        1 0.15607125E+00 0.83084751E+03</pdfrwt>
<pdfrwt beam="2">  1       -1 0.26179829E+00 0.83084751E+03</pdfrwt>
<totfact> 0.89372631E-01</totfact>
</mgrwt>
</event>
<event>
 4    1  0.2514307E-008  0.6852799E+03  0.7818608E-02  0.1006482E+00
         -1   -1    0    0    0  501 -0.00000000000E+00  0.00000000000E+00  0.46914038996E+03  0.46914038998E+03  0.50400000000E-02 0.  1.
          1   -1    0    0  501    0  0.00000000000E+00 -0.00000000000E+00 -0.19931993073E+04  0.19931993073E+04  0.50400000000E-02 0. -1.
    8880023    1    1    2    0    0 -0.27324742640E+02 -0.18722088861E+03  0.20575377566E+03  0.71550200919E+03  0.65864270000E+03 0.  1.
    8880022    1    1    2    0    0  0.27324742640E+02  0.18722088861E+03 -0.17298126930E+04  0.17468376881E+04  0.15294330000E+03 0.  0.
<mgrwt>
<rscale>  0 0.52897115E+03</rscale>
<asrwt>0</asrwt>
<pdfrwt beam="1">  1        1 0.30664604E+00 0.68527988E+03</pdfrwt>
<pdfrwt beam="2">  1       -1 0.72175446E-01 0.68527988E+03</pdfrwt>
<totfact> 0.61883234E+00</totfact>
</mgrwt>
</event>
<event>
 4    1  0.2514307E-008  0.6822691E+03  0.7818608E-02  0.1008068E+00
          1   -1    0    0  501    0  0.00000000000E+00  0.00000000000E+00  0.51458440635E+03  0.51458440637E+03  0.50400000000E-02 0. -1.
         -1   -1    0    0    0  501 -0.00000000000E+00 -0.00000000000E+00 -0.40871242496E+03  0.40871242499E+03  0.50400000000E-02 0.  1.
    8880023    1    1    2    0    0 -0.23586271335E+02  0.17642149682E+03  0.88397845010E+02  0.68797183227E+03  0.65864270000E+03 0.  0.
    8880022    1    1    2    0    0  0.23586271335E+02 -0.17642149682E+03  0.17474136381E+02  0.23532499908E+03  0.15294330000E+03 0.  1.
<mgrwt>
<rscale>  0 0.52249677E+03</rscale>
<asrwt>0</asrwt>
<pdfrwt beam="1">  1        1 0.79166832E-01 0.68226905E+03</pdfrwt>
<pdfrwt beam="2">  1       -1 0.62878834E-01 0.68226905E+03</pdfrwt>
<totfact> 0.11164436E+02</totfact>
</mgrwt>
</event>
<event>
 4    1  0.2514307E-008  0.7442834E+03  0.7818608E-02  0.9847641E-01
         -1   -1    0    0    0  501 -0.00000000000E+00  0.00000000000E+00  0.22303498997E+03  0.22303499003E+03  0.50400000000E-02 0.  1.
          1   -1    0    0  501    0  0.00000000000E+00 -0.00000000000E+00 -0.29663047741E+04  0.29663047741E+04  0.50400000000E-02 0. -1.
    8880023    1    1    2    0    0 -0.33010491776E+03 -0.10572732154E+03 -0.46024085904E+03  0.87508821146E+03  0.65864270000E+03 0.  1.
    8880022    1    1    2    0    0  0.33010491776E+03  0.10572732154E+03 -0.22830289251E+04  0.23142515527E+04  0.15294330000E+03 0.  0.
<mgrwt>
<rscale>  0 0.62867334E+03</rscale>
<asrwt>0</asrwt>
<pdfrwt beam="1">  1        1 0.45635455E+00 0.74428337E+03</pdfrwt>
<pdfrwt beam="2">  1       -1 0.34313077E-01 0.74428337E+03</pdfrwt>
<totfact> 0.54290414E+00</totfact>
</mgrwt>
</event>
<event>
 4    1  0.2514307E-008  0.6761983E+03  0.7818608E-02  0.1011561E+00
          1   -1    0    0  501    0  0.00000000000E+00  0.00000000000E+00  0.42532347470E+03  0.42532347473E+03  0.50400000000E-02 0. -1.
         -1   -1    0    0    0  501 -0.00000000000E+00 -0.00000000000E+00 -0.58831508826E+03  0.58831508828E+03  0.50400000000E-02 0.  1.
    8880023    1    1    2    0    0  0.10704434049E+03 -0.10943235540E+03 -0.31821382892E+03  0.74733137123E+03  0.65864270000E+03 0.  1.
    8880022    1    1    2    0    0 -0.10704434049E+03  0.10943235540E+03  0.15522221536E+03  0.26630719178E+03  0.15294330000E+03 0.  0.
<mgrwt>
<rscale>  0 0.50858782E+03</rscale>
<asrwt>0</asrwt>
<pdfrwt beam="1">  1        1 0.65434381E-01 0.67619830E+03</pdfrwt>
<pdfrwt beam="2">  1       -1 0.90510014E-01 0.67619830E+03</pdfrwt>
<totfact> 0.67594240E+01</totfact>
</mgrwt>
</event>
<event>
 4    1  0.2514307E-008  0.1131283E+04  0.7818608E-02  0.9227001E-01
          1   -1    0    0  501    0  0.00000000000E+00  0.00000000000E+00  0.68334110677E+03  0.68334110679E+03  0.50400000000E-02 0. -1.
         -1   -1    0    0    0  501 -0.00000000000E+00 -0.00000000000E+00 -0.18723013332E+04  0.18723013332E+04  0.50400000000E-02 0.  1.
    8880023    1    1    2    0    0 -0.91977414678E+03  0.24756174482E+01 -0.11636040877E+04  0.16228910280E+04  0.65864270000E+03 0.  1.
    8880022    1    1    2    0    0  0.91977414678E+03 -0.24756174482E+01 -0.25356138794E+02  0.93275141198E+03  0.15294330000E+03 0.  0.
<mgrwt>
<rscale>  0 0.10779031E+04</rscale>
<asrwt>0</asrwt>
<pdfrwt beam="1">  1        1 0.10512940E+00 0.11312828E+04</pdfrwt>
<pdfrwt beam="2">  1       -1 0.28804636E+00 0.11312828E+04</pdfrwt>
<totfact> 0.11103352E+00</totfact>
</mgrwt>
</event>
<event>
 4    1  0.3297908E-008  0.9546214E+03  0.7818608E-02  0.9443496E-01
         -1   -1    0    0    0  501 -0.00000000000E+00  0.00000000000E+00  0.20308453094E+04  0.20308453094E+04  0.50400000000E-02 0.  1.
          1   -1    0    0  501    0  0.00000000000E+00 -0.00000000000E+00 -0.25638919781E+04  0.25638919781E+04  0.50400000000E-02 0. -1.
    8880023    1    1    2    0    0  0.48999322759E+03  0.48723542306E+03  0.18646297283E+04  0.20947901925E+04  0.65864270000E+03 0.  0.
    8880022    1    1    2    0    0 -0.48999322759E+03 -0.48723542306E+03 -0.23976763969E+04  0.24999470950E+04  0.15294330000E+03 0.  0.
<mgrwt>
<rscale>  0 0.88580971E+03</rscale>
<asrwt>0</asrwt>
<pdfrwt beam="1">  1        1 0.39444492E+00 0.95462135E+03</pdfrwt>
<pdfrwt beam="2">  1       -1 0.31243774E+00 0.95462135E+03</pdfrwt>
<totfact> 0.35001460E-02</totfact>
</mgrwt>
</event>
<event>
 4    1  0.2514307E-008  0.6693661E+03  0.7818608E-02  0.1016121E+00
          1   -1    0    0  501    0  0.00000000000E+00  0.00000000000E+00  0.10000371399E+04  0.10000371399E+04  0.50400000000E-02 0. -1.
         -1   -1    0    0    0  501 -0.00000000000E+00 -0.00000000000E+00 -0.22098642509E+03  0.22098642514E+03  0.50400000000E-02 0.  1.
    8880023    1    1    2    0    0  0.60254657494E+02 -0.10300560687E+03  0.36181425300E+03  0.76089456479E+03  0.65864270000E+03 0.  0.
    8880022    1    1    2    0    0 -0.60254657494E+02  0.10300560687E+03  0.41723646177E+03  0.46012900022E+03  0.15294330000E+03 0.  0.
<mgrwt>
<rscale>  0 0.49112617E+03</rscale>
<asrwt>0</asrwt>
<pdfrwt beam="1">  1        1 0.15385187E+00 0.66936611E+03</pdfrwt>
<pdfrwt beam="2">  1       -1 0.33997911E-01 0.66936611E+03</pdfrwt>
<totfact> 0.12662277E+02</totfact>
</mgrwt>
</event>
<event>
 4    1  0.2514307E-008  0.1137222E+04  0.7818608E-02  0.9220703E-01
          1   -1    0    0  501    0  0.00000000000E+00  0.00000000000E+00  0.17148599058E+04  0.17148599058E+04  0.50400000000E-02 0. -1.
         -1   -1    0    0    0  501 -0.00000000000E+00 -0.00000000000E+00 -0.12997128867E+04  0.12997128867E+04  0.50400000000E-02 0.  1.
    8880023    1    1    2    0    0  0.58325129637E+03 -0.72061172015E+03 -0.86343949829E+03  0.14278659949E+04  0.65864270000E+03 0.  0.
    8880022    1    1    2    0    0 -0.58325129637E+03  0.72061172015E+03  0.12785865174E+04  0.15867067976E+04  0.15294330000E+03 0.  0.
<mgrwt>
<rscale>  0 0.10842266E+04</rscale>
<asrwt>0</asrwt>
<pdfrwt beam="1">  1        1 0.26382460E+00 0.11372218E+04</pdfrwt>
<pdfrwt beam="2">  1       -1 0.19995583E+00 0.11372218E+04</pdfrwt>
<totfact> 0.69336930E-01</totfact>
</mgrwt>
</event>
<event>
 4    1  0.2514307E-008  0.7398790E+03  0.7818608E-02  0.9860300E-01
         -1   -1    0    0    0  501 -0.00000000000E+00  0.00000000000E+00  0.54007723949E+03  0.54007723951E+03  0.50400000000E-02 0.  1.
          1   -1    0    0  501    0  0.00000000000E+00 -0.00000000000E+00 -0.15579331222E+04  0.15579331222E+04  0.50400000000E-02 0. -1.
    8880023    1    1    2    0    0 -0.33584730412E+03  0.28589267991E+02  0.24707069730E+03  0.78004159739E+03  0.65864270000E+03 0.  1.
    8880022    1    1    2    0    0  0.33584730412E+03 -0.28589267991E+02 -0.12649265800E+04  0.13179687644E+04  0.15294330000E+03 0.  0.
<mgrwt>
<rscale>  0 0.62224521E+03</rscale>
<asrwt>0</asrwt>
<pdfrwt beam="1">  1        1 0.23968202E+00 0.73987902E+03</pdfrwt>
<pdfrwt beam="2">  1       -1 0.83088807E-01 0.73987902E+03</pdfrwt>
<totfact> 0.89343430E+00</totfact>
</mgrwt>
</event>
<event>
 4    1  0.2514307E-008  0.9419081E+03  0.7818608E-02  0.9461853E-01
          1   -1    0    0  501    0  0.00000000000E+00  0.00000000000E+00  0.69676331624E+03  0.69676331626E+03  0.50400000000E-02 0. -1.
         -1   -1    0    0    0  501 -0.00000000000E+00 -0.00000000000E+00 -0.11892701058E+04  0.11892701058E+04  0.50400000000E-02 0.  1.
    8880023    1    1    2    0    0  0.58412319886E+03  0.33493386545E+03 -0.69029741318E+03  0.11677762331E+04  0.65864270000E+03 0.  1.
    8880022    1    1    2    0    0 -0.58412319886E+03 -0.33493386545E+03  0.19779062364E+03  0.71825718895E+03  0.15294330000E+03 0.  0.
<mgrwt>
<rscale>  0 0.87155593E+03</rscale>
<asrwt>0</asrwt>
<pdfrwt beam="1">  1        1 0.10719436E+00 0.94190807E+03</pdfrwt>
<pdfrwt beam="2">  1       -1 0.18296463E+00 0.94190807E+03</pdfrwt>
<totfact> 0.54905078E+00</totfact>
</mgrwt>
</event>
<event>
 4    1  0.2514307E-008  0.7326278E+03  0.7818608E-02  0.9881967E-01
         -1   -1    0    0    0  501 -0.00000000000E+00  0.00000000000E+00  0.19968422787E+03  0.19968422794E+03  0.50400000000E-02 0.  1.
          1   -1    0    0  501    0  0.00000000000E+00 -0.00000000000E+00 -0.19357472751E+04  0.19357472751E+04  0.50400000000E-02 0. -1.
    8880023    1    1    2    0    0 -0.23190299891E+03  0.22170762747E+03 -0.60595244930E+03  0.95074804762E+03  0.65864270000E+03 0.  0.
    8880022    1    1    2    0    0  0.23190299891E+03 -0.22170762747E+03 -0.11301105979E+04  0.11846834554E+04  0.15294330000E+03 0.  0.
<mgrwt>
<rscale>  0 0.61143272E+03</rscale>
<asrwt>0</asrwt>
<pdfrwt beam="1">  1        1 0.29780726E+00 0.73262779E+03</pdfrwt>
<pdfrwt beam="2">  1       -1 0.30720652E-01 0.73262779E+03</pdfrwt>
<totfact> 0.33471944E+01</totfact>
</mgrwt>
</event>
<event>
 4    1  0.2514307E-008  0.7675150E+03  0.7818608E-02  0.9786027E-01
         -1   -1    0    0    0  501 -0.00000000000E+00  0.00000000000E+00  0.80100374210E+03  0.80100374211E+03  0.50400000000E-02 0.  1.
          1   -1    0    0  501    0  0.00000000000E+00 -0.00000000000E+00 -0.18721354196E+04  0.18721354196E+04  0.50400000000E-02 0. -1.
    8880023    1    1    2    0    0 -0.11788915521E+03 -0.37599358516E+03  0.58428767179E+03  0.96460941249E+03  0.65864270000E+03 0.  1.
    8880022    1    1    2    0    0  0.11788915521E+03  0.37599358516E+03 -0.16554193493E+04  0.17085297492E+04  0.15294330000E+03 0.  0.
<mgrwt>
<rscale>  0 0.66117857E+03</rscale>
<asrwt>0</asrwt>
<pdfrwt beam="1">  1        1 0.28802083E+00 0.76751497E+03</pdfrwt>
<pdfrwt beam="2">  1       -1 0.12323135E+00 0.76751497E+03</pdfrwt>
<totfact> 0.22120893E+00</totfact>
</mgrwt>
</event>
<event>
 4    1  0.2514307E-008  0.1031711E+04  0.7818608E-02  0.9341197E-01
          1   -1    0    0  501    0  0.00000000000E+00  0.00000000000E+00  0.10434705914E+04  0.10434705914E+04  0.50400000000E-02 0. -1.
         -1   -1    0    0    0  501 -0.00000000000E+00 -0.00000000000E+00 -0.12800568342E+04  0.12800568342E+04  0.50400000000E-02 0.  1.
    8880023    1    1    2    0    0  0.56773692307E+03  0.55524154058E+03 -0.82697885902E+03  0.13222415141E+04  0.65864270000E+03 0.  1.
    8880022    1    1    2    0    0 -0.56773692307E+03 -0.55524154058E+03  0.59039261625E+03  0.10012859115E+04  0.15294330000E+03 0.  0.
<mgrwt>
<rscale>  0 0.97077090E+03</rscale>
<asrwt>0</asrwt>
<pdfrwt beam="1">  1        1 0.16053394E+00 0.10317115E+04</pdfrwt>
<pdfrwt beam="2">  1       -1 0.19693182E+00 0.10317115E+04</pdfrwt>
<totfact> 0.22130423E+00</totfact>
</mgrwt>
</event>
<event>
 4    1  0.2514307E-008  0.9868739E+03  0.7818608E-02  0.9398936E-01
         -1   -1    0    0    0  501 -0.00000000000E+00  0.00000000000E+00  0.11391891779E+04  0.11391891779E+04  0.50400000000E-02 0.  1.
          1   -1    0    0  501    0  0.00000000000E+00 -0.00000000000E+00 -0.70505837457E+03  0.70505837459E+03  0.50400000000E-02 0. -1.
    8880023    1    1    2    0    0  0.67425126564E+02  0.73182225039E+03  0.46925636649E+03  0.10927587555E+04  0.65864270000E+03 0.  0.
    8880022    1    1    2    0    0 -0.67425126564E+02 -0.73182225039E+03 -0.35125563179E+02  0.75148879703E+03  0.15294330000E+03 0.  0.
<mgrwt>
<rscale>  0 0.92163329E+03</rscale>
<asrwt>0</asrwt>
<pdfrwt beam="1">  1        1 0.10847052E+00 0.98687393E+03</pdfrwt>
<pdfrwt beam="2">  1       -1 0.17525987E+00 0.98687393E+03</pdfrwt>
<totfact> 0.60951767E+00</totfact>
</mgrwt>
</event>
<event>
 4    1  0.2514307E-008  0.8491077E+03  0.7818608E-02  0.9613240E-01
          1   -1    0    0  501    0  0.00000000000E+00  0.00000000000E+00  0.30289859033E+04  0.30289859033E+04  0.50400000000E-02 0. -1.
         -1   -1    0    0    0  501 -0.00000000000E+00 -0.00000000000E+00 -0.20125360511E+03  0.20125360517E+03  0.50400000000E-02 0.  1.
    8880023    1    1    2    0    0  0.99453306817E+02  0.52657648774E+03  0.96236369600E+03  0.12834047870E+04  0.65864270000E+03 0.  0.
    8880022    1    1    2    0    0 -0.99453306817E+02 -0.52657648774E+03  0.18653686022E+04  0.19468347215E+04  0.15294330000E+03 0.  0.
<mgrwt>
<rscale>  0 0.76426019E+03</rscale>
<asrwt>0</asrwt>
<pdfrwt beam="1">  1        1 0.46599777E+00 0.84910775E+03</pdfrwt>
<pdfrwt beam="2">  1       -1 0.30962097E-01 0.84910775E+03</pdfrwt>
<totfact> 0.57641266E+00</totfact>
</mgrwt>
</event>
<event>
 4    1  0.2514307E-008  0.1140444E+04  0.7818608E-02  0.9217309E-01
         -1   -1    0    0    0  501 -0.00000000000E+00  0.00000000000E+00  0.94987644682E+03  0.94987644683E+03  0.50400000000E-02 0.  1.
          1   -1    0    0  501    0  0.00000000000E+00 -0.00000000000E+00 -0.20323158085E+04  0.20323158085E+04  0.50400000000E-02 0. -1.
    8880023    1    1    2    0    0 -0.91150927485E+03  0.18961140501E+03  0.41390132322E+03  0.12132296381E+04  0.65864270000E+03 0.  1.
    8880022    1    1    2    0    0  0.91150927485E+03 -0.18961140501E+03 -0.14963406849E+04  0.17689626173E+04  0.15294330000E+03 0.  0.
<mgrwt>
<rscale>  0 0.10876544E+04</rscale>
<asrwt>0</asrwt>
<pdfrwt beam="1">  1        1 0.31266397E+00 0.11404437E+04</pdfrwt>
<pdfrwt beam="2">  1       -1 0.14613484E+00 0.11404437E+04</pdfrwt>
<totfact> 0.10507385E+00</totfact>
</mgrwt>
</event>
<event>
 4    1  0.2514307E-008  0.7094514E+03  0.7818608E-02  0.9960044E-01
          1   -1    0    0  501    0  0.00000000000E+00  0.00000000000E+00  0.67247125756E+03  0.67247125758E+03  0.50400000000E-02 0. -1.
         -1   -1    0    0    0  501 -0.00000000000E+00 -0.00000000000E+00 -0.92999160893E+03  0.92999160895E+03  0.50400000000E-02 0.  1.
    8880023    1    1    2    0    0  0.26163333243E+03  0.32544593012E+02 -0.74422240353E+03  0.10281966462E+04  0.65864270000E+03 0.  1.
    8880022    1    1    2    0    0 -0.26163333243E+03 -0.32544593012E+02  0.48670205215E+03  0.57426622028E+03  0.15294330000E+03 0.  0.
<mgrwt>
<rscale>  0 0.57437511E+03</rscale>
<asrwt>0</asrwt>
<pdfrwt beam="1">  1        1 0.10345712E+00 0.70945145E+03</pdfrwt>
<pdfrwt beam="2">  1       -1 0.14307563E+00 0.70945145E+03</pdfrwt>
<totfact> 0.11861066E+01</totfact>
</mgrwt>
</event>
<event>
 4    1  0.2514307E-008  0.8530200E+03  0.7818608E-02  0.9606102E-01
          1   -1    0    0  501    0  0.00000000000E+00  0.00000000000E+00  0.10527779187E+04  0.10527779187E+04  0.50400000000E-02 0. -1.
         -1   -1    0    0    0  501 -0.00000000000E+00 -0.00000000000E+00 -0.74196162411E+03  0.74196162413E+03  0.50400000000E-02 0.  1.
    8880023    1    1    2    0    0 -0.38970080612E+03 -0.37678395665E+03 -0.35387600172E+03  0.92351031350E+03  0.65864270000E+03 0.  1.
    8880022    1    1    2    0    0  0.38970080612E+03  0.37678395665E+03  0.66469229630E+03  0.87122922934E+03  0.15294330000E+03 0.  0.
<mgrwt>
<rscale>  0 0.76893609E+03</rscale>
<asrwt>0</asrwt>
<pdfrwt beam="1">  1        1 0.16196583E+00 0.85301997E+03</pdfrwt>
<pdfrwt beam="2">  1       -1 0.11414794E+00 0.85301997E+03</pdfrwt>
<totfact> 0.98090596E+00</totfact>
</mgrwt>
</event>
<event>
 4    1  0.2514307E-008  0.9493361E+03  0.7818608E-02  0.9451070E-01
          1   -1    0    0  501    0  0.00000000000E+00  0.00000000000E+00  0.33468263592E+04  0.33468263592E+04  0.50400000000E-02 0. -1.
         -1   -1    0    0    0  501 -0.00000000000E+00 -0.00000000000E+00 -0.10668101171E+04  0.10668101171E+04  0.50400000000E-02 0.  1.
    8880023    1    1    2    0    0 -0.52903297127E+02 -0.68163781681E+03 -0.80831343110E+03  0.12468398780E+04  0.65864270000E+03 0.  0.
    8880022    1    1    2    0    0  0.52903297127E+02  0.68163781681E+03  0.30883296732E+04  0.31667965984E+04  0.15294330000E+03 0.  0.
<mgrwt>
<rscale>  0 0.87989398E+03</rscale>
<asrwt>0</asrwt>
<pdfrwt beam="1">  1        1 0.51489636E+00 0.94933613E+03</pdfrwt>
<pdfrwt beam="2">  1       -1 0.16412463E+00 0.94933613E+03</pdfrwt>
<totfact> 0.93701229E-02</totfact>
</mgrwt>
</event>
<event>
 4    1  0.2514307E-008  0.1586979E+04  0.7818608E-02  0.8850539E-01
          1   -1    0    0  501    0  0.00000000000E+00  0.00000000000E+00  0.23222528212E+04  0.23222528212E+04  0.50400000000E-02 0. -1.
         -1   -1    0    0    0  501 -0.00000000000E+00 -0.00000000000E+00 -0.12225434832E+04  0.12225434832E+04  0.50400000000E-02 0.  1.
    8880023    1    1    2    0    0 -0.13731465733E+04  0.44627592585E+03 -0.19568396605E+03  0.15989984786E+04  0.65864270000E+03 0.  0.
    8880022    1    1    2    0    0  0.13731465733E+04 -0.44627592585E+03  0.12953933040E+04  0.19457978258E+04  0.15294330000E+03 0.  0.
<mgrwt>
<rscale>  0 0.15520815E+04</rscale>
<asrwt>0</asrwt>
<pdfrwt beam="1">  1        1 0.35726966E+00 0.15869795E+04</pdfrwt>
<pdfrwt beam="2">  1       -1 0.18808361E+00 0.15869795E+04</pdfrwt>
<totfact> 0.30684762E-01</totfact>
</mgrwt>
</event>
<event>
 4    1  0.2514307E-008  0.9601571E+03  0.7818608E-02  0.9435648E-01
         -1   -1    0    0    0  501 -0.00000000000E+00  0.00000000000E+00  0.77105333187E+03  0.77105333189E+03  0.50400000000E-02 0.  1.
          1   -1    0    0  501    0  0.00000000000E+00 -0.00000000000E+00 -0.10441331991E+04  0.10441331991E+04  0.50400000000E-02 0. -1.
    8880023    1    1    2    0    0 -0.47646326364E+02 -0.69700874315E+03  0.16826395261E+03  0.97478937441E+03  0.65864270000E+03 0.  1.
    8880022    1    1    2    0    0  0.47646326364E+02  0.69700874315E+03 -0.44134381979E+03  0.84039715654E+03  0.15294330000E+03 0.  0.
<mgrwt>
<rscale>  0 0.89199128E+03</rscale>
<asrwt>0</asrwt>
<pdfrwt beam="1">  1        1 0.16063588E+00 0.96015705E+03</pdfrwt>
<pdfrwt beam="2">  1       -1 0.11862359E+00 0.96015705E+03</pdfrwt>
<totfact> 0.89667189E+00</totfact>
</mgrwt>
</event>
<event>
 4    1  0.2514307E-008  0.8190701E+03  0.7818608E-02  0.9670985E-01
          1   -1    0    0  501    0  0.00000000000E+00  0.00000000000E+00  0.30671215317E+03  0.30671215321E+03  0.50400000000E-02 0. -1.
         -1   -1    0    0    0  501 -0.00000000000E+00 -0.00000000000E+00 -0.16874898396E+04  0.16874898396E+04  0.50400000000E-02 0.  1.
    8880023    1    1    2    0    0  0.50581182984E+02  0.48425938497E+03 -0.11997857165E+04  0.14527083602E+04  0.65864270000E+03 0.  0.
    8880022    1    1    2    0    0 -0.50581182984E+02 -0.48425938497E+03 -0.18099196998E+03  0.54149363267E+03  0.15294330000E+03 0.  0.
<mgrwt>
<rscale>  0 0.72770919E+03</rscale>
<asrwt>0</asrwt>
<pdfrwt beam="1">  1        1 0.47186486E-01 0.81907009E+03</pdfrwt>
<pdfrwt beam="2">  1       -1 0.25961382E+00 0.81907009E+03</pdfrwt>
<totfact> 0.52975925E+00</totfact>
</mgrwt>
</event>
<event>
 4    1  0.2514307E-008  0.8410429E+03  0.7818608E-02  0.9628217E-01
         -1   -1    0    0    0  501 -0.00000000000E+00  0.00000000000E+00  0.35376484538E+03  0.35376484541E+03  0.50400000000E-02 0.  1.
          1   -1    0    0  501    0  0.00000000000E+00 -0.00000000000E+00 -0.24255825597E+04  0.24255825597E+04  0.50400000000E-02 0. -1.
    8880023    1    1    2    0    0 -0.20880771079E+03  0.47952301385E+03 -0.24945307229E+03  0.87725710168E+03  0.65864270000E+03 0.  1.
    8880022    1    1    2    0    0  0.20880771079E+03 -0.47952301385E+03 -0.18223646420E+04  0.19020903034E+04  0.15294330000E+03 0.  0.
<mgrwt>
<rscale>  0 0.75456425E+03</rscale>
<asrwt>0</asrwt>
<pdfrwt beam="1">  1        1 0.37316654E+00 0.84104292E+03</pdfrwt>
<pdfrwt beam="2">  1       -1 0.54425362E-01 0.84104292E+03</pdfrwt>
<totfact> 0.54137951E+00</totfact>
</mgrwt>
</event>
<event>
 4    1  0.2514307E-008  0.1032641E+04  0.7818608E-02  0.9340046E-01
          1   -1    0    0  501    0  0.00000000000E+00  0.00000000000E+00  0.14025499496E+04  0.14025499496E+04  0.50400000000E-02 0. -1.
         -1   -1    0    0    0  501 -0.00000000000E+00 -0.00000000000E+00 -0.76126787067E+03  0.76126787069E+03  0.50400000000E-02 0.  1.
    8880023    1    1    2    0    0 -0.76847166441E+03  0.20491295680E+03 -0.13565822115E+03  0.10415139836E+04  0.65864270000E+03 0.  0.
    8880022    1    1    2    0    0  0.76847166441E+03 -0.20491295680E+03  0.77694030004E+03  0.11223038366E+04  0.15294330000E+03 0.  0.
<mgrwt>
<rscale>  0 0.97178301E+03</rscale>
<asrwt>0</asrwt>
<pdfrwt beam="1">  1        1 0.21577692E+00 0.10326414E+04</pdfrwt>
<pdfrwt beam="2">  1       -1 0.11711813E+00 0.10326414E+04</pdfrwt>
<totfact> 0.50295940E+00</totfact>
</mgrwt>
</event>
<event>
 4    1  0.2514307E-008  0.9964992E+03  0.7818608E-02  0.9386152E-01
         -1   -1    0    0    0  501 -0.00000000000E+00  0.00000000000E+00  0.53650928961E+03  0.53650928963E+03  0.50400000000E-02 0.  1.
          1   -1    0    0  501    0  0.00000000000E+00 -0.00000000000E+00 -0.20305965852E+04  0.20305965852E+04  0.50400000000E-02 0. -1.
    8880023    1    1    2    0    0  0.73227634975E+03  0.15156431811E+03 -0.13128129147E+03  0.10051096352E+04  0.65864270000E+03 0.  0.
    8880022    1    1    2    0    0 -0.73227634975E+03 -0.15156431811E+03 -0.13628060041E+04  0.15619962397E+04  0.15294330000E+03 0.  0.
<mgrwt>
<rscale>  0 0.93224116E+03</rscale>
<asrwt>0</asrwt>
<pdfrwt beam="1">  1        1 0.31239947E+00 0.99649917E+03</pdfrwt>
<pdfrwt beam="2">  1       -1 0.82539892E-01 0.99649917E+03</pdfrwt>
<totfact> 0.41949615E+00</totfact>
</mgrwt>
</event>
<event>
 4    1  0.2514307E-008  0.1163655E+04  0.7818608E-02  0.9193288E-01
         -1   -1    0    0    0  501 -0.00000000000E+00  0.00000000000E+00  0.13465912179E+04  0.13465912179E+04  0.50400000000E-02 0.  1.
          1   -1    0    0  501    0  0.00000000000E+00 -0.00000000000E+00 -0.88145269018E+03  0.88145269020E+03  0.50400000000E-02 0. -1.
    8880023    1    1    2    0    0  0.77098381696E+03 -0.57084713654E+03  0.47421714579E+03  0.12565725633E+04  0.65864270000E+03 0.  1.
    8880022    1    1    2    0    0 -0.77098381696E+03  0.57084713654E+03 -0.90786181070E+01  0.97147134473E+03  0.15294330000E+03 0.  0.
<mgrwt>
<rscale>  0 0.11122974E+04</rscale>
<asrwt>0</asrwt>
<pdfrwt beam="1">  1        1 0.13560811E+00 0.11636549E+04</pdfrwt>
<pdfrwt beam="2">  1       -1 0.20716788E+00 0.11636549E+04</pdfrwt>
<totfact> 0.24970974E+00</totfact>
</mgrwt>
</event>
<event>
 4    1  0.2514307E-008  0.6838754E+03  0.7818608E-02  0.1007211E+00
         -1   -1    0    0    0  501 -0.00000000000E+00  0.00000000000E+00  0.16517226014E+03  0.16517226021E+03  0.50400000000E-02 0.  1.
          1   -1    0    0  501    0  0.00000000000E+00 -0.00000000000E+00 -0.24156393867E+04  0.24156393867E+04  0.50400000000E-02 0. -1.
    8880023    1    1    2    0    0  0.25000788860E+02 -0.18234655975E+03 -0.59005807124E+03  0.90324638997E+03  0.65864270000E+03 0.  0.
    8880022    1    1    2    0    0 -0.25000788860E+02  0.18234655975E+03 -0.16604090553E+04  0.16775652569E+04  0.15294330000E+03 0.  0.
<mgrwt>
<rscale>  0 0.52598182E+03</rscale>
<asrwt>0</asrwt>
<pdfrwt beam="1">  1        1 0.37163680E+00 0.68387536E+03</pdfrwt>
<pdfrwt beam="2">  1       -1 0.25411119E-01 0.68387536E+03</pdfrwt>
<totfact> 0.22288972E+01</totfact>
</mgrwt>
</event>
<event>
 4    1  0.2514307E-008  0.7625759E+03  0.7818608E-02  0.9798484E-01
         -1   -1    0    0    0  501 -0.00000000000E+00  0.00000000000E+00  0.10402465943E+04  0.10402465943E+04  0.50400000000E-02 0.  1.
          1   -1    0    0  501    0  0.00000000000E+00 -0.00000000000E+00 -0.12078346840E+04  0.12078346840E+04  0.50400000000E-02 0. -1.
    8880023    1    1    2    0    0  0.28047328861E+03  0.26276710254E+03  0.85460246996E+03  0.11453678028E+04  0.65864270000E+03 0.  1.
    8880022    1    1    2    0    0 -0.28047328861E+03 -0.26276710254E+03 -0.10221905597E+04  0.11027134755E+04  0.15294330000E+03 0.  0.
<mgrwt>
<rscale>  0 0.65443974E+03</rscale>
<asrwt>0</asrwt>
<pdfrwt beam="1">  1        1 0.18582072E+00 0.76257591E+03</pdfrwt>
<pdfrwt beam="2">  1       -1 0.16003794E+00 0.76257591E+03</pdfrwt>
<totfact> 0.31997057E+00</totfact>
</mgrwt>
</event>
<event>
 4    1  0.2514307E-008  0.1271551E+04  0.7818608E-02  0.9090526E-01
          1   -1    0    0  501    0  0.00000000000E+00  0.00000000000E+00  0.30776307334E+04  0.30776307334E+04  0.50400000000E-02 0. -1.
         -1   -1    0    0    0  501 -0.00000000000E+00 -0.00000000000E+00 -0.68731559445E+03  0.68731559447E+03  0.50400000000E-02 0.  1.
    8880023    1    1    2    0    0 -0.92085055873E+03  0.57884778312E+03  0.16355240276E+03  0.12820257806E+04  0.65864270000E+03 0.  0.
    8880022    1    1    2    0    0  0.92085055873E+03 -0.57884778312E+03  0.22267627362E+04  0.24829205472E+04  0.15294330000E+03 0.  0.
<mgrwt>
<rscale>  0 0.12258508E+04</rscale>
<asrwt>0</asrwt>
<pdfrwt beam="1">  1        1 0.47348165E+00 0.12715505E+04</pdfrwt>
<pdfrwt beam="2">  1       -1 0.10574086E+00 0.12715505E+04</pdfrwt>
<totfact> 0.43315335E-01</totfact>
</mgrwt>
</event>
<event>
 4    1  0.2514307E-008  0.1009246E+04  0.7818608E-02  0.9369560E-01
         -1   -1    0    0    0  501 -0.00000000000E+00  0.00000000000E+00  0.57607573436E+03  0.57607573438E+03  0.50400000000E-02 0.  1.
          1   -1    0    0  501    0  0.00000000000E+00 -0.00000000000E+00 -0.19604811647E+04  0.19604811647E+04  0.50400000000E-02 0. -1.
    8880023    1    1    2    0    0  0.42067552359E+03  0.63859197727E+03 -0.74380514556E+02  0.10119833382E+04  0.65864270000E+03 0. -1.
    8880022    1    1    2    0    0 -0.42067552359E+03 -0.63859197727E+03 -0.13100249158E+04  0.15245735609E+04  0.15294330000E+03 0.  1.
<mgrwt>
<rscale>  0 0.94623715E+03</rscale>
<asrwt>0</asrwt>
<pdfrwt beam="1">  1        1 0.30161248E+00 0.10092462E+04</pdfrwt>
<pdfrwt beam="2">  1       -1 0.88627037E-01 0.10092462E+04</pdfrwt>
<totfact> 0.39988118E+00</totfact>
</mgrwt>
</event>
<event>
 4    1  0.2514307E-008  0.9296359E+03  0.7818608E-02  0.9480040E-01
         -1   -1    0    0    0  501 -0.00000000000E+00  0.00000000000E+00  0.21754221367E+04  0.21754221367E+04  0.50400000000E-02 0.  1.
          1   -1    0    0  501    0  0.00000000000E+00 -0.00000000000E+00 -0.15696480924E+04  0.15696480924E+04  0.50400000000E-02 0. -1.
    8880023    1    1    2    0    0  0.62745458214E+03  0.19160769231E+03  0.19950909090E+04  0.22010476373E+04  0.65864270000E+03 0.  1.
    8880022    1    1    2    0    0 -0.62745458214E+03 -0.19160769231E+03 -0.13893168647E+04  0.15440225918E+04  0.15294330000E+03 0.  0.
<mgrwt>
<rscale>  0 0.85771551E+03</rscale>
<asrwt>0</asrwt>
<pdfrwt beam="1">  1        1 0.24148432E+00 0.92963593E+03</pdfrwt>
<pdfrwt beam="2">  1       -1 0.33468033E+00 0.92963593E+03</pdfrwt>
<totfact> 0.11908863E-01</totfact>
</mgrwt>
</event>
<event>
 4    1  0.2740476E-008  0.1259306E+04  0.7818608E-02  0.9101523E-01
          1   -1    0    0  501    0  0.00000000000E+00  0.00000000000E+00  0.21531248956E+04  0.21531248957E+04  0.50400000000E-02 0. -1.
         -1   -1    0    0    0  501 -0.00000000000E+00 -0.00000000000E+00 -0.17887699385E+04  0.17887699386E+04  0.50400000000E-02 0.  1.
    8880023    1    1    2    0    0  0.73305818900E+03  0.78400702609E+03 -0.13924790123E+04  0.18774582103E+04  0.65864270000E+03 0.  0.
    8880022    1    1    2    0    0 -0.73305818900E+03 -0.78400702609E+03  0.17568339694E+04  0.20644366240E+04  0.15294330000E+03 0.  0.
<mgrwt>
<rscale>  0 0.12130346E+04</rscale>
<asrwt>0</asrwt>
<pdfrwt beam="1">  1        1 0.33124998E+00 0.12593060E+04</pdfrwt>
<pdfrwt beam="2">  1       -1 0.27519538E+00 0.12593060E+04</pdfrwt>
<totfact> 0.10940061E-01</totfact>
</mgrwt>
</event>
<event>
 4    1  0.2514307E-008  0.8429290E+03  0.7818608E-02  0.9624682E-01
         -1   -1    0    0    0  501 -0.00000000000E+00  0.00000000000E+00  0.13918818147E+04  0.13918818147E+04  0.50400000000E-02 0.  1.
          1   -1    0    0  501    0  0.00000000000E+00 -0.00000000000E+00 -0.45281377781E+03  0.45281377784E+03  0.50400000000E-02 0. -1.
    8880023    1    1    2    0    0  0.27129467664E+03  0.45068647222E+03  0.98323000330E+03  0.12950948010E+04  0.65864270000E+03 0.  0.
    8880022    1    1    2    0    0 -0.27129467664E+03 -0.45068647222E+03 -0.44161966426E+02  0.54960079158E+03  0.15294330000E+03 0.  0.
<mgrwt>
<rscale>  0 0.75683889E+03</rscale>
<asrwt>0</asrwt>
<pdfrwt beam="1">  1        1 0.69663658E-01 0.84292900E+03</pdfrwt>
<pdfrwt beam="2">  1       -1 0.21413566E+00 0.84292900E+03</pdfrwt>
<totfact> 0.62602454E+00</totfact>
</mgrwt>
</event>
<event>
 4    1  0.2514307E-008  0.7357563E+03  0.7818608E-02  0.9872486E-01
         -1   -1    0    0    0  501 -0.00000000000E+00  0.00000000000E+00  0.82893230363E+03  0.82893230364E+03  0.50400000000E-02 0.  1.
          1   -1    0    0  501    0  0.00000000000E+00 -0.00000000000E+00 -0.48422097303E+03  0.48422097306E+03  0.50400000000E-02 0. -1.
    8880023    1    1    2    0    0 -0.15658876260E+03 -0.28810939881E+03  0.52987500954E+03  0.90669994941E+03  0.65864270000E+03 0.  1.
    8880022    1    1    2    0    0  0.15658876260E+03  0.28810939881E+03 -0.18516367895E+03  0.40645332730E+03  0.15294330000E+03 0.  0.
<mgrwt>
<rscale>  0 0.61613473E+03</rscale>
<asrwt>0</asrwt>
<pdfrwt beam="1">  1        1 0.74495535E-01 0.73575626E+03</pdfrwt>
<pdfrwt beam="2">  1       -1 0.12752805E+00 0.73575626E+03</pdfrwt>
<totfact> 0.25304527E+01</totfact>
</mgrwt>
</event>
<event>
 4    1  0.2514307E-008  0.1074645E+04  0.7818608E-02  0.9289825E-01
         -1   -1    0    0    0  501 -0.00000000000E+00  0.00000000000E+00  0.96542685917E+03  0.96542685918E+03  0.50400000000E-02 0.  1.
          1   -1    0    0  501    0  0.00000000000E+00 -0.00000000000E+00 -0.23064862768E+04  0.23064862768E+04  0.50400000000E-02 0. -1.
    8880023    1    1    2    0    0  0.84873646651E+03 -0.26417563973E+02  0.53979703865E+03  0.12025982398E+04  0.65864270000E+03 0.  0.
    8880022    1    1    2    0    0 -0.84873646651E+03  0.26417563973E+02 -0.18808564562E+04  0.20693148961E+04  0.15294330000E+03 0.  0.
<mgrwt>
<rscale>  0 0.10172500E+04</rscale>
<asrwt>0</asrwt>
<pdfrwt beam="1">  1        1 0.35484404E+00 0.10746449E+04</pdfrwt>
<pdfrwt beam="2">  1       -1 0.14852721E+00 0.10746449E+04</pdfrwt>
<totfact> 0.66221484E-01</totfact>
</mgrwt>
</event>
<event>
 4    1  0.2514307E-008  0.1877264E+04  0.7818608E-02  0.8680959E-01
          1   -1    0    0  501    0  0.00000000000E+00  0.00000000000E+00  0.22569569195E+04  0.22569569195E+04  0.50400000000E-02 0. -1.
         -1   -1    0    0    0  501 -0.00000000000E+00 -0.00000000000E+00 -0.15948941182E+04  0.15948941182E+04  0.50400000000E-02 0.  1.
    8880023    1    1    2    0    0  0.72285259246E+03  0.16024337563E+04 -0.20013931022E+03  0.18879024773E+04  0.65864270000E+03 0.  0.
    8880022    1    1    2    0    0 -0.72285259246E+03 -0.16024337563E+04  0.86220211148E+03  0.19639485604E+04  0.15294330000E+03 0.  0.
<mgrwt>
<rscale>  0 0.18484326E+04</rscale>
<asrwt>0</asrwt>
<pdfrwt beam="1">  1        1 0.34722414E+00 0.18772640E+04</pdfrwt>
<pdfrwt beam="2">  1       -1 0.24536833E+00 0.18772640E+04</pdfrwt>
<totfact> 0.13467176E-01</totfact>
</mgrwt>
</event>
<event>
 4    1  0.2514307E-008  0.1602263E+04  0.7818608E-02  0.8840608E-01
          1   -1    0    0  501    0  0.00000000000E+00  0.00000000000E+00  0.91194152673E+03  0.91194152675E+03  0.50400000000E-02 0. -1.
         -1   -1    0    0    0  501 -0.00000000000E+00 -0.00000000000E+00 -0.34422089565E+04  0.34422089565E+04  0.50400000000E-02 0.  1.
    8880023    1    1    2    0    0  0.93028097914E+03 -0.11260611641E+04 -0.23919930129E+04  0.28790410253E+04  0.65864270000E+03 0.  0.
    8880022    1    1    2    0    0 -0.93028097914E+03  0.11260611641E+04 -0.13827441688E+03  0.14751094579E+04  0.15294330000E+03 0.  0.
<mgrwt>
<rscale>  0 0.15677517E+04</rscale>
<asrwt>0</asrwt>
<pdfrwt beam="1">  1        1 0.14029870E+00 0.16022630E+04</pdfrwt>
<pdfrwt beam="2">  1       -1 0.52957060E+00 0.16022630E+04</pdfrwt>
<totfact> 0.16139154E-02</totfact>
</mgrwt>
</event>
<event>
 4    1  0.2514307E-008  0.6900694E+03  0.7818608E-02  0.1004120E+00
          1   -1    0    0  501    0  0.00000000000E+00  0.00000000000E+00  0.96700960620E+03  0.96700960621E+03  0.50400000000E-02 0. -1.
         -1   -1    0    0    0  501 -0.00000000000E+00 -0.00000000000E+00 -0.45976337800E+03  0.45976337803E+03  0.50400000000E-02 0.  1.
    8880023    1    1    2    0    0  0.20320143076E+03  0.33086061431E+02 -0.16306353704E+03  0.70907364378E+03  0.65864270000E+03 0.  1.
    8880022    1    1    2    0    0 -0.20320143076E+03 -0.33086061431E+02  0.67030976523E+03  0.71769934047E+03  0.15294330000E+03 0.  0.
<mgrwt>
<rscale>  0 0.53880169E+03</rscale>
<asrwt>0</asrwt>
<pdfrwt beam="1">  1        1 0.14877071E+00 0.69006936E+03</pdfrwt>
<pdfrwt beam="2">  1       -1 0.70732827E-01 0.69006936E+03</pdfrwt>
<totfact> 0.33516870E+01</totfact>
</mgrwt>
</event>
<event>
 4    1  0.2514307E-008  0.1118692E+04  0.7818608E-02  0.9240525E-01
          1   -1    0    0  501    0  0.00000000000E+00  0.00000000000E+00  0.25982237477E+04  0.25982237477E+04  0.50400000000E-02 0. -1.
         -1   -1    0    0    0  501 -0.00000000000E+00 -0.00000000000E+00 -0.98193286335E+03  0.98193286336E+03  0.50400000000E-02 0.  1.
    8880023    1    1    2    0    0  0.47746080746E+02 -0.90298539406E+03 -0.53611353966E+03  0.12405201505E+04  0.65864270000E+03 0.  1.
    8880022    1    1    2    0    0 -0.47746080746E+02  0.90298539406E+03  0.21524044240E+04  0.23396364605E+04  0.15294330000E+03 0.  0.
<mgrwt>
<rscale>  0 0.10644763E+04</rscale>
<asrwt>0</asrwt>
<pdfrwt beam="1">  1        1 0.39972673E+00 0.11186923E+04</pdfrwt>
<pdfrwt beam="2">  1       -1 0.15106660E+00 0.11186923E+04</pdfrwt>
<totfact> 0.39612120E-01</totfact>
</mgrwt>
</event>
<event>
 4    1  0.2514307E-008  0.1474175E+04  0.7818608E-02  0.8928091E-01
         -1   -1    0    0    0  501 -0.00000000000E+00  0.00000000000E+00  0.12466758662E+04  0.12466758662E+04  0.50400000000E-02 0.  1.
          1   -1    0    0  501    0  0.00000000000E+00 -0.00000000000E+00 -0.19012394455E+04  0.19012394455E+04  0.50400000000E-02 0. -1.
    8880023    1    1    2    0    0  0.13117987273E+04 -0.13625286750E+03  0.31052297321E+03  0.15065243005E+04  0.65864270000E+03 0.  0.
    8880022    1    1    2    0    0 -0.13117987273E+04  0.13625286750E+03 -0.96508655252E+03  0.16413910112E+04  0.15294330000E+03 0.  0.
<mgrwt>
<rscale>  0 0.14361051E+04</rscale>
<asrwt>0</asrwt>
<pdfrwt beam="1">  1        1 0.29249838E+00 0.14741747E+04</pdfrwt>
<pdfrwt beam="2">  1       -1 0.19179629E+00 0.14741747E+04</pdfrwt>
<totfact> 0.56639161E-01</totfact>
</mgrwt>
</event>
<event>
 4    1  0.2514307E-008  0.7082964E+03  0.7818608E-02  0.9964382E-01
         -1   -1    0    0    0  501 -0.00000000000E+00  0.00000000000E+00  0.38909585360E+03  0.38909585363E+03  0.50400000000E-02 0.  1.
          1   -1    0    0  501    0  0.00000000000E+00 -0.00000000000E+00 -0.17276544612E+04  0.17276544612E+04  0.50400000000E-02 0. -1.
    8880023    1    1    2    0    0 -0.49267349929E+02 -0.25582486814E+03  0.36169771005E+02  0.70921935501E+03  0.65864270000E+03 0.  1.
    8880022    1    1    2    0    0  0.49267349929E+02  0.25582486814E+03 -0.13747283786E+04  0.14075309598E+04  0.15294330000E+03 0.  0.
<mgrwt>
<rscale>  0 0.57239983E+03</rscale>
<asrwt>0</asrwt>
<pdfrwt beam="1">  1        1 0.26579299E+00 0.70829644E+03</pdfrwt>
<pdfrwt beam="2">  1       -1 0.59860901E-01 0.70829644E+03</pdfrwt>
<totfact> 0.13512902E+01</totfact>
</mgrwt>
</event>
<event>
 4    1  0.2514307E-008  0.1408588E+04  0.7818608E-02  0.8977039E-01
          1   -1    0    0  501    0  0.00000000000E+00  0.00000000000E+00  0.19772958989E+04  0.19772958989E+04  0.50400000000E-02 0. -1.
         -1   -1    0    0    0  501 -0.00000000000E+00 -0.00000000000E+00 -0.11117071816E+04  0.11117071816E+04  0.50400000000E-02 0.  1.
    8880023    1    1    2    0    0  0.69804462389E+03  0.10310394894E+04 -0.22537572385E+03  0.14265038201E+04  0.65864270000E+03 0.  0.
    8880022    1    1    2    0    0 -0.69804462389E+03 -0.10310394894E+04  0.10909644412E+04  0.16624992603E+04  0.15294330000E+03 0.  0.
<mgrwt>
<rscale>  0 0.13683687E+04</rscale>
<asrwt>0</asrwt>
<pdfrwt beam="1">  1        1 0.30419937E+00 0.14085876E+04</pdfrwt>
<pdfrwt beam="2">  1       -1 0.17103187E+00 0.14085876E+04</pdfrwt>
<totfact> 0.71469579E-01</totfact>
</mgrwt>
</event>
<event>
 4    1  0.2567661E-008  0.1657719E+04  0.7818608E-02  0.8805614E-01
          1   -1    0    0  501    0  0.00000000000E+00  0.00000000000E+00  0.30164991836E+04  0.30164991836E+04  0.50400000000E-02 0. -1.
         -1   -1    0    0    0  501 -0.00000000000E+00 -0.00000000000E+00 -0.18738025673E+04  0.18738025674E+04  0.50400000000E-02 0.  1.
    8880023    1    1    2    0    0 -0.13724790401E+04 -0.65614310231E+03 -0.12324063664E+04  0.20656374669E+04  0.65864270000E+03 0.  0.
    8880022    1    1    2    0    0  0.13724790401E+04  0.65614310231E+03  0.23751029827E+04  0.28246642840E+04  0.15294330000E+03 0.  0.
<mgrwt>
<rscale>  0 0.16245378E+04</rscale>
<asrwt>0</asrwt>
<pdfrwt beam="1">  1        1 0.46407679E+00 0.16577191E+04</pdfrwt>
<pdfrwt beam="2">  1       -1 0.28827732E+00 0.16577191E+04</pdfrwt>
<totfact> 0.21141842E-02</totfact>
</mgrwt>
</event>
<event>
 4    1  0.2514307E-008  0.7110171E+03  0.7818608E-02  0.9954243E-01
         -1   -1    0    0    0  501 -0.00000000000E+00  0.00000000000E+00  0.35489560437E+03  0.35489560441E+03  0.50400000000E-02 0.  1.
          1   -1    0    0  501    0  0.00000000000E+00 -0.00000000000E+00 -0.26531208445E+04  0.26531208445E+04  0.50400000000E-02 0. -1.
    8880023    1    1    2    0    0  0.17797336925E+03  0.20015126535E+03 -0.22382181074E+02  0.71136925536E+03  0.65864270000E+03 0.  1.
    8880022    1    1    2    0    0 -0.17797336925E+03 -0.20015126535E+03 -0.22758430590E+04  0.22966471935E+04  0.15294330000E+03 0.  0.
<mgrwt>
<rscale>  0 0.57702924E+03</rscale>
<asrwt>0</asrwt>
<pdfrwt beam="1">  1        1 0.40817242E+00 0.71101706E+03</pdfrwt>
<pdfrwt beam="2">  1       -1 0.54599325E-01 0.71101706E+03</pdfrwt>
<totfact> 0.38448216E+00</totfact>
</mgrwt>
</event>
<event>
 4    1  0.2514307E-008  0.1321892E+04  0.7818608E-02  0.9046881E-01
          1   -1    0    0  501    0  0.00000000000E+00  0.00000000000E+00  0.23460192059E+04  0.23460192059E+04  0.50400000000E-02 0. -1.
         -1   -1    0    0    0  501 -0.00000000000E+00 -0.00000000000E+00 -0.71040141863E+03  0.71040141864E+03  0.50400000000E-02 0.  1.
    8880023    1    1    2    0    0  0.11294044655E+04 -0.19502384820E+03  0.44012738546E+03  0.13932376214E+04  0.65864270000E+03 0.  0.
    8880022    1    1    2    0    0 -0.11294044655E+04  0.19502384820E+03  0.11954904018E+04  0.16631830031E+04  0.15294330000E+03 0.  0.
<mgrwt>
<rscale>  0 0.12783879E+04</rscale>
<asrwt>0</asrwt>
<pdfrwt beam="1">  1        1 0.36092603E+00 0.13218922E+04</pdfrwt>
<pdfrwt beam="2">  1       -1 0.10929253E+00 0.13218922E+04</pdfrwt>
<totfact> 0.13056513E+00</totfact>
</mgrwt>
</event>
<event>
 4    1  0.2514307E-008  0.9342696E+03  0.7818608E-02  0.9473117E-01
         -1   -1    0    0    0  501 -0.00000000000E+00  0.00000000000E+00  0.71908055971E+03  0.71908055972E+03  0.50400000000E-02 0.  1.
          1   -1    0    0  501    0  0.00000000000E+00 -0.00000000000E+00 -0.41361970938E+04  0.41361970938E+04  0.50400000000E-02 0. -1.
    8880023    1    1    2    0    0  0.65857063850E+03  0.73036029841E+02  0.37201201560E+03  0.10056106073E+04  0.65864270000E+03 0.  0.
    8880022    1    1    2    0    0 -0.65857063850E+03 -0.73036029841E+02 -0.37891285497E+04  0.38496670462E+04  0.15294330000E+03 0.  0.
<mgrwt>
<rscale>  0 0.86295121E+03</rscale>
<asrwt>0</asrwt>
<pdfrwt beam="1">  1        1 0.63633800E+00 0.93426964E+03</pdfrwt>
<pdfrwt beam="2">  1       -1 0.11062778E+00 0.93426964E+03</pdfrwt>
<totfact> 0.58623305E-02</totfact>
</mgrwt>
</event>
<event>
 4    1  0.2514307E-008  0.6710316E+03  0.7818608E-02  0.1014934E+00
         -1   -1    0    0    0  501 -0.00000000000E+00  0.00000000000E+00  0.47355773161E+03  0.47355773164E+03  0.50400000000E-02 0.  1.
          1   -1    0    0  501    0  0.00000000000E+00 -0.00000000000E+00 -0.11175118616E+04  0.11175118616E+04  0.50400000000E-02 0. -1.
    8880023    1    1    2    0    0 -0.12744088972E+03 -0.15233844696E+02  0.21857509125E+03  0.70573261734E+03  0.65864270000E+03 0.  1.
    8880022    1    1    2    0    0  0.12744088972E+03  0.15233844696E+02 -0.86252922121E+03  0.88533697587E+03  0.15294330000E+03 0.  0.
<mgrwt>
<rscale>  0 0.49559976E+03</rscale>
<asrwt>0</asrwt>
<pdfrwt beam="1">  1        1 0.17192490E+00 0.67103164E+03</pdfrwt>
<pdfrwt beam="2">  1       -1 0.72855036E-01 0.67103164E+03</pdfrwt>
<totfact> 0.24289644E+01</totfact>
</mgrwt>
</event>
<event>
 4    1  0.2514307E-008  0.1583826E+04  0.7818608E-02  0.8852604E-01
         -1   -1    0    0    0  501 -0.00000000000E+00  0.00000000000E+00  0.93588328208E+03  0.93588328209E+03  0.50400000000E-02 0.  1.
          1   -1    0    0  501    0  0.00000000000E+00 -0.00000000000E+00 -0.32741349913E+04  0.32741349913E+04  0.50400000000E-02 0. -1.
    8880023    1    1    2    0    0  0.13528861346E+04 -0.49436304621E+03 -0.15694110886E+03  0.15915829958E+04  0.65864270000E+03 0.  0.
    8880022    1    1    2    0    0 -0.13528861346E+04  0.49436304621E+03 -0.21813106004E+04  0.26184352776E+04  0.15294330000E+03 0.  0.
<mgrwt>
<rscale>  0 0.15488474E+04</rscale>
<asrwt>0</asrwt>
<pdfrwt beam="1">  1        1 0.50371307E+00 0.15838264E+04</pdfrwt>
<pdfrwt beam="2">  1       -1 0.14398204E+00 0.15838264E+04</pdfrwt>
<totfact> 0.13744056E-01</totfact>
</mgrwt>
</event>
<event>
 4    1  0.2514307E-008  0.7013185E+03  0.7818608E-02  0.9991775E-01
          1   -1    0    0  501    0  0.00000000000E+00  0.00000000000E+00  0.71609380254E+03  0.71609380256E+03  0.50400000000E-02 0. -1.
         -1   -1    0    0    0  501 -0.00000000000E+00 -0.00000000000E+00 -0.11493825549E+04  0.11493825549E+04  0.50400000000E-02 0.  1.
    8880023    1    1    2    0    0 -0.23060420578E+03  0.69707765378E+02 -0.10055813722E+04  0.12259859602E+04  0.65864270000E+03 0.  0.
    8880022    1    1    2    0    0  0.23060420578E+03 -0.69707765378E+02  0.57229261991E+03  0.63949039719E+03  0.15294330000E+03 0.  0.
<mgrwt>
<rscale>  0 0.56012371E+03</rscale>
<asrwt>0</asrwt>
<pdfrwt beam="1">  1        1 0.11016828E+00 0.70131853E+03</pdfrwt>
<pdfrwt beam="2">  1       -1 0.17682809E+00 0.70131853E+03</pdfrwt>
<totfact> 0.60145257E+00</totfact>
</mgrwt>
</event>
<event>
 4    1  0.2514307E-008  0.8806688E+03  0.7818608E-02  0.9557805E-01
         -1   -1    0    0    0  501 -0.00000000000E+00  0.00000000000E+00  0.83470348890E+03  0.83470348892E+03  0.50400000000E-02 0.  1.
          1   -1    0    0  501    0  0.00000000000E+00 -0.00000000000E+00 -0.12314840071E+04  0.12314840071E+04  0.50400000000E-02 0. -1.
    8880023    1    1    2    0    0 -0.58460828845E+03 -0.69418187436E+00  0.47873534763E+03  0.10023797046E+04  0.65864270000E+03 0.  0.
    8880022    1    1    2    0    0  0.58460828845E+03  0.69418187436E+00 -0.87551586579E+03  0.10638077914E+04  0.15294330000E+03 0. -1.
<mgrwt>
<rscale>  0 0.80152986E+03</rscale>
<asrwt>0</asrwt>
<pdfrwt beam="1">  1        1 0.18945908E+00 0.88066880E+03</pdfrwt>
<pdfrwt beam="2">  1       -1 0.12841592E+00 0.88066880E+03</pdfrwt>
<totfact> 0.53997083E+00</totfact>
</mgrwt>
</event>
<event>
 4    1  0.2514307E-008  0.1018873E+04  0.7818608E-02  0.9357272E-01
          1   -1    0    0  501    0  0.00000000000E+00  0.00000000000E+00  0.88615176901E+03  0.88615176902E+03  0.50400000000E-02 0. -1.
         -1   -1    0    0    0  501 -0.00000000000E+00 -0.00000000000E+00 -0.19399373259E+04  0.19399373259E+04  0.50400000000E-02 0.  1.
    8880023    1    1    2    0    0  0.67024045207E+03 -0.39378860119E+03 -0.15763832815E+04  0.18769885941E+04  0.65864270000E+03 0.  0.
    8880022    1    1    2    0    0 -0.67024045207E+03  0.39378860119E+03  0.52259772455E+03  0.94910050086E+03  0.15294330000E+03 0.  0.
<mgrwt>
<rscale>  0 0.95677006E+03</rscale>
<asrwt>0</asrwt>
<pdfrwt beam="1">  1        1 0.13633104E+00 0.10188729E+04</pdfrwt>
<pdfrwt beam="2">  1       -1 0.29845189E+00 0.10188729E+04</pdfrwt>
<totfact> 0.63818221E-01</totfact>
</mgrwt>
</event>
<event>
 4    1  0.2514307E-008  0.7795145E+03  0.7818608E-02  0.9756979E-01
          1   -1    0    0  501    0  0.00000000000E+00  0.00000000000E+00  0.48593941582E+03  0.48593941585E+03  0.50400000000E-02 0. -1.
         -1   -1    0    0    0  501 -0.00000000000E+00 -0.00000000000E+00 -0.17211302898E+04  0.17211302898E+04  0.50400000000E-02 0.  1.
    8880023    1    1    2    0    0 -0.40748667792E+03  0.88245373811E+02 -0.14996827465E+04  0.16901748978E+04  0.65864270000E+03 0.  1.
    8880022    1    1    2    0    0  0.40748667792E+03 -0.88245373811E+02  0.26449187258E+03  0.51689480782E+03  0.15294330000E+03 0.  0.
<mgrwt>
<rscale>  0 0.67723313E+03</rscale>
<asrwt>0</asrwt>
<pdfrwt beam="1">  1        1 0.74759911E-01 0.77951449E+03</pdfrwt>
<pdfrwt beam="2">  1       -1 0.26478927E+00 0.77951449E+03</pdfrwt>
<totfact> 0.26794327E+00</totfact>
</mgrwt>
</event>
<event>
 4    1  0.2514307E-008  0.7783321E+03  0.7818608E-02  0.9759770E-01
         -1   -1    0    0    0  501 -0.00000000000E+00  0.00000000000E+00  0.60793816190E+03  0.60793816193E+03  0.50400000000E-02 0.  1.
          1   -1    0    0  501    0  0.00000000000E+00 -0.00000000000E+00 -0.14065405923E+04  0.14065405923E+04  0.50400000000E-02 0. -1.
    8880023    1    1    2    0    0  0.25877851538E+03 -0.32407454216E+03  0.29699792537E+03  0.83307178732E+03  0.65864270000E+03 0.  1.
    8880022    1    1    2    0    0 -0.25877851538E+03  0.32407454216E+03 -0.10956003558E+04  0.11814069669E+04  0.15294330000E+03 0.  0.
<mgrwt>
<rscale>  0 0.67566955E+03</rscale>
<asrwt>0</asrwt>
<pdfrwt beam="1">  1        1 0.21639086E+00 0.77833209E+03</pdfrwt>
<pdfrwt beam="2">  1       -1 0.93528949E-01 0.77833209E+03</pdfrwt>
<totfact> 0.87125974E+00</totfact>
</mgrwt>
</event>
<event>
 4    1  0.2514307E-008  0.1146586E+04  0.7818608E-02  0.9210878E-01
         -1   -1    0    0    0  501 -0.00000000000E+00  0.00000000000E+00  0.72201460817E+03  0.72201460819E+03  0.50400000000E-02 0.  1.
          1   -1    0    0  501    0  0.00000000000E+00 -0.00000000000E+00 -0.19383063665E+04  0.19383063665E+04  0.50400000000E-02 0. -1.
    8880023    1    1    2    0    0  0.59074384291E+01 -0.93851758020E+03 -0.39387554470E+02  0.11472627127E+04  0.65864270000E+03 0.  0.
    8880022    1    1    2    0    0 -0.59074384291E+01  0.93851758020E+03 -0.11769042038E+04  0.15130582620E+04  0.15294330000E+03 0.  0.
<mgrwt>
<rscale>  0 0.10941848E+04</rscale>
<asrwt>0</asrwt>
<pdfrwt beam="1">  1        1 0.29820098E+00 0.11465864E+04</pdfrwt>
<pdfrwt beam="2">  1       -1 0.11107917E+00 0.11465864E+04</pdfrwt>
<totfact> 0.24256169E+00</totfact>
</mgrwt>
</event>
<event>
 4    1  0.2514307E-008  0.8019310E+03  0.7818608E-02  0.9706636E-01
         -1   -1    0    0    0  501 -0.00000000000E+00  0.00000000000E+00  0.89977935229E+03  0.89977935230E+03  0.50400000000E-02 0.  1.
          1   -1    0    0  501    0  0.00000000000E+00 -0.00000000000E+00 -0.61337547767E+03  0.61337547769E+03  0.50400000000E-02 0. -1.
    8880023    1    1    2    0    0 -0.45524118222E+03  0.45151398572E+02  0.54136084392E+03  0.96755617531E+03  0.65864270000E+03 0.  1.
    8880022    1    1    2    0    0  0.45524118222E+03 -0.45151398572E+02 -0.25495696929E+03  0.54559865468E+03  0.15294330000E+03 0.  0.
<mgrwt>
<rscale>  0 0.70623046E+03</rscale>
<asrwt>0</asrwt>
<pdfrwt beam="1">  1        1 0.94365458E-01 0.80193104E+03</pdfrwt>
<pdfrwt beam="2">  1       -1 0.13842759E+00 0.80193104E+03</pdfrwt>
<totfact> 0.14635694E+01</totfact>
</mgrwt>
</event>
<event>
 4    1  0.2514307E-008  0.6616491E+03  0.7818608E-02  0.1022527E+00
          1   -1    0    0  501    0  0.00000000000E+00  0.00000000000E+00  0.23282920854E+04  0.23282920854E+04  0.50400000000E-02 0. -1.
         -1   -1    0    0    0  501 -0.00000000000E+00 -0.00000000000E+00 -0.19076612381E+03  0.19076612388E+03  0.50400000000E-02 0.  1.
    8880023    1    1    2    0    0 -0.21113196149E+02 -0.59359947514E+02  0.39892535401E+03  0.77260663650E+03  0.65864270000E+03 0.  1.
    8880022    1    1    2    0    0  0.21113196149E+02  0.59359947514E+02  0.17386006076E+04  0.17464515728E+04  0.15294330000E+03 0.  0.
<mgrwt>
<rscale>  0 0.46785616E+03</rscale>
<asrwt>0</asrwt>
<pdfrwt beam="1">  1        1 0.35819876E+00 0.66164913E+03</pdfrwt>
<pdfrwt beam="2">  1       -1 0.29348636E-01 0.66164913E+03</pdfrwt>
<totfact> 0.20000302E+01</totfact>
</mgrwt>
</event>
<event>
 4    1  0.2514307E-008  0.6707174E+03  0.7818608E-02  0.1015154E+00
          1   -1    0    0  501    0  0.00000000000E+00  0.00000000000E+00  0.12369441731E+04  0.12369441731E+04  0.50400000000E-02 0. -1.
         -1   -1    0    0    0  501 -0.00000000000E+00 -0.00000000000E+00 -0.48557921727E+03  0.48557921730E+03  0.50400000000E-02 0.  1.
    8880023    1    1    2    0    0 -0.10573473457E+03 -0.69798112675E+02 -0.23931447154E+03  0.71213287607E+03  0.65864270000E+03 0.  1.
    8880022    1    1    2    0    0  0.10573473457E+03  0.69798112675E+02  0.99067942738E+03  0.10103905143E+04  0.15294330000E+03 0.  0.
<mgrwt>
<rscale>  0 0.49476763E+03</rscale>
<asrwt>0</asrwt>
<pdfrwt beam="1">  1        1 0.19029910E+00 0.67071739E+03</pdfrwt>
<pdfrwt beam="2">  1       -1 0.74704497E-01 0.67071739E+03</pdfrwt>
<totfact> 0.18885191E+01</totfact>
</mgrwt>
</event>
<event>
 4    1  0.2514307E-008  0.9962630E+03  0.7818608E-02  0.9386463E-01
         -1   -1    0    0    0  501 -0.00000000000E+00  0.00000000000E+00  0.77901617943E+03  0.77901617945E+03  0.50400000000E-02 0.  1.
          1   -1    0    0  501    0  0.00000000000E+00 -0.00000000000E+00 -0.16509909033E+04  0.16509909033E+04  0.50400000000E-02 0. -1.
    8880023    1    1    2    0    0 -0.20608239925E+03 -0.71851222160E+03  0.29207793734E+03  0.10381953071E+04  0.65864270000E+03 0.  1.
    8880022    1    1    2    0    0  0.20608239925E+03  0.71851222160E+03 -0.11640526612E+04  0.13918117757E+04  0.15294330000E+03 0. -1.
<mgrwt>
<rscale>  0 0.93198130E+03</rscale>
<asrwt>0</asrwt>
<pdfrwt beam="1">  1        1 0.25399860E+00 0.99626300E+03</pdfrwt>
<pdfrwt beam="2">  1       -1 0.11984864E+00 0.99626300E+03</pdfrwt>
<totfact> 0.32206838E+00</totfact>
</mgrwt>
</event>
<event>
 4    1  0.2514307E-008  0.9402983E+03  0.7818608E-02  0.9464212E-01
         -1   -1    0    0    0  501 -0.00000000000E+00  0.00000000000E+00  0.50049133115E+03  0.50049133118E+03  0.50400000000E-02 0.  1.
          1   -1    0    0  501    0  0.00000000000E+00 -0.00000000000E+00 -0.20086525050E+04  0.20086525051E+04  0.50400000000E-02 0. -1.
    8880023    1    1    2    0    0  0.14309198135E+03  0.65564879729E+03 -0.10484990943E+03  0.94612598013E+03  0.65864270000E+03 0.  0.
    8880022    1    1    2    0    0 -0.14309198135E+03 -0.65564879729E+03 -0.14033112645E+04  0.15630178561E+04  0.15294330000E+03 0.  0.
<mgrwt>
<rscale>  0 0.86974513E+03</rscale>
<asrwt>0</asrwt>
<pdfrwt beam="1">  1        1 0.30902346E+00 0.94029829E+03</pdfrwt>
<pdfrwt beam="2">  1       -1 0.76998667E-01 0.94029829E+03</pdfrwt>
<totfact> 0.50707593E+00</totfact>
</mgrwt>
</event>
<event>
 4    1  0.2514307E-008  0.7568977E+03  0.7818608E-02  0.9813206E-01
          1   -1    0    0  501    0  0.00000000000E+00  0.00000000000E+00  0.14764946827E+04  0.14764946827E+04  0.50400000000E-02 0. -1.
         -1   -1    0    0    0  501 -0.00000000000E+00 -0.00000000000E+00 -0.94424390854E+03  0.94424390856E+03  0.50400000000E-02 0.  1.
    8880023    1    1    2    0    0  0.28379117479E+03 -0.24196395108E+03 -0.75667360163E+03  0.10702565721E+04  0.65864270000E+03 0.  1.
    8880022    1    1    2    0    0 -0.28379117479E+03  0.24196395108E+03  0.12889243758E+04  0.13504820192E+04  0.15294330000E+03 0.  0.
<mgrwt>
<rscale>  0 0.64658621E+03</rscale>
<asrwt>0</asrwt>
<pdfrwt beam="1">  1        1 0.22715303E+00 0.75689774E+03</pdfrwt>
<pdfrwt beam="2">  1       -1 0.14526829E+00 0.75689774E+03</pdfrwt>
<totfact> 0.26954752E+00</totfact>
</mgrwt>
</event>
<event>
 4    1  0.2514307E-008  0.6752086E+03  0.7818608E-02  0.1012175E+00
         -1   -1    0    0    0  501 -0.00000000000E+00  0.00000000000E+00  0.35455288416E+03  0.35455288420E+03  0.50400000000E-02 0.  1.
          1   -1    0    0  501    0  0.00000000000E+00 -0.00000000000E+00 -0.18907166452E+04  0.18907166452E+04  0.50400000000E-02 0. -1.
    8880023    1    1    2    0    0 -0.11192639344E+03 -0.97820982779E+02  0.19071791906E+02  0.67547790618E+03  0.65864270000E+03 0.  1.
    8880022    1    1    2    0    0  0.11192639344E+03  0.97820982779E+02 -0.15552355529E+04  0.15697916232E+04  0.15294330000E+03 0.  0.
<mgrwt>
<rscale>  0 0.50619252E+03</rscale>
<asrwt>0</asrwt>
<pdfrwt beam="1">  1        1 0.29087948E+00 0.67520861E+03</pdfrwt>
<pdfrwt beam="2">  1       -1 0.54546599E-01 0.67520861E+03</pdfrwt>
<totfact> 0.12665492E+01</totfact>
</mgrwt>
</event>
<event>
 4    1  0.2514307E-008  0.1700136E+04  0.7818608E-02  0.8779886E-01
          1   -1    0    0  501    0  0.00000000000E+00  0.00000000000E+00  0.24511008090E+04  0.24511008090E+04  0.50400000000E-02 0. -1.
         -1   -1    0    0    0  501 -0.00000000000E+00 -0.00000000000E+00 -0.17573989802E+04  0.17573989802E+04  0.50400000000E-02 0.  1.
    8880023    1    1    2    0    0 -0.64216430641E+03  0.14297824916E+04 -0.93722221344E+03  0.19413522744E+04  0.65864270000E+03 0.  0.
    8880022    1    1    2    0    0  0.64216430641E+03 -0.14297824916E+04  0.16309240422E+04  0.22671475148E+04  0.15294330000E+03 0.  0.
<mgrwt>
<rscale>  0 0.16679008E+04</rscale>
<asrwt>0</asrwt>
<pdfrwt beam="1">  1        1 0.37709243E+00 0.17001362E+04</pdfrwt>
<pdfrwt beam="2">  1       -1 0.27036908E+00 0.17001362E+04</pdfrwt>
<totfact> 0.69218272E-02</totfact>
</mgrwt>
</event>
<event>
 4    1  0.2514307E-008  0.8765625E+03  0.7818608E-02  0.9564755E-01
         -1   -1    0    0    0  501 -0.00000000000E+00  0.00000000000E+00  0.18767408779E+04  0.18767408779E+04  0.50400000000E-02 0.  1.
          1   -1    0    0  501    0  0.00000000000E+00 -0.00000000000E+00 -0.64971054489E+03  0.64971054491E+03  0.50400000000E-02 0. -1.
    8880023    1    1    2    0    0 -0.55840636110E+03 -0.15077780849E+03  0.15979030191E+04  0.18225410493E+04  0.65864270000E+03 0.  1.
    8880022    1    1    2    0    0  0.55840636110E+03  0.15077780849E+03 -0.37087268609E+03  0.70391037353E+03  0.15294330000E+03 0.  0.
<mgrwt>
<rscale>  0 0.79673508E+03</rscale>
<asrwt>0</asrwt>
<pdfrwt beam="1">  1        1 0.99955470E-01 0.87656250E+03</pdfrwt>
<pdfrwt beam="2">  1       -1 0.28872936E+00 0.87656250E+03</pdfrwt>
<totfact> 0.12277191E+00</totfact>
</mgrwt>
</event>
<event>
 4    1  0.2514307E-008  0.7402921E+03  0.7818608E-02  0.9859097E-01
         -1   -1    0    0    0  501 -0.00000000000E+00  0.00000000000E+00  0.32805970675E+03  0.32805970679E+03  0.50400000000E-02 0.  1.
          1   -1    0    0  501    0  0.00000000000E+00 -0.00000000000E+00 -0.16655055025E+04  0.16655055025E+04  0.50400000000E-02 0. -1.
    8880023    1    1    2    0    0  0.33255394032E+03 -0.60250603524E+02 -0.15774337476E+03  0.75691177623E+03  0.65864270000E+03 0.  1.
    8880022    1    1    2    0    0 -0.33255394032E+03  0.60250603524E+02 -0.11797024210E+04  0.12366534331E+04  0.15294330000E+03 0.  0.
<mgrwt>
<rscale>  0 0.62285241E+03</rscale>
<asrwt>0</asrwt>
<pdfrwt beam="1">  1        1 0.25623161E+00 0.74029215E+03</pdfrwt>
<pdfrwt beam="2">  1       -1 0.50470725E-01 0.74029215E+03</pdfrwt>
<totfact> 0.20588933E+01</totfact>
</mgrwt>
</event>
<event>
 4    1  0.2514307E-008  0.6733715E+03  0.7818608E-02  0.1013353E+00
         -1   -1    0    0    0  501 -0.00000000000E+00  0.00000000000E+00  0.60414540666E+03  0.60414540669E+03  0.50400000000E-02 0.  1.
          1   -1    0    0  501    0  0.00000000000E+00 -0.00000000000E+00 -0.21260180966E+04  0.21260180966E+04  0.50400000000E-02 0. -1.
    8880023    1    1    2    0    0 -0.13099855892E+03  0.49582335607E+02  0.40922032406E+03  0.78796605912E+03  0.65864270000E+03 0.  1.
    8880022    1    1    2    0    0  0.13099855892E+03 -0.49582335607E+02 -0.19310930140E+04  0.19421974442E+04  0.15294330000E+03 0.  0.
<mgrwt>
<rscale>  0 0.50163533E+03</rscale>
<asrwt>0</asrwt>
<pdfrwt beam="1">  1        1 0.32707970E+00 0.67337154E+03</pdfrwt>
<pdfrwt beam="2">  1       -1 0.92945448E-01 0.67337154E+03</pdfrwt>
<totfact> 0.29476372E+00</totfact>
</mgrwt>
</event>
<event>
 4    1  0.2514307E-008  0.1327216E+04  0.7818608E-02  0.9042406E-01
          1   -1    0    0  501    0  0.00000000000E+00  0.00000000000E+00  0.21627479764E+04  0.21627479764E+04  0.50400000000E-02 0. -1.
         -1   -1    0    0    0  501 -0.00000000000E+00 -0.00000000000E+00 -0.11354723092E+04  0.11354723093E+04  0.50400000000E-02 0.  1.
    8880023    1    1    2    0    0 -0.82366721699E+03 -0.80576989224E+03 -0.46531306365E+03  0.14064207255E+04  0.65864270000E+03 0.  0.
    8880022    1    1    2    0    0  0.82366721699E+03  0.80576989224E+03  0.14925887308E+04  0.18917995602E+04  0.15294330000E+03 0.  0.
<mgrwt>
<rscale>  0 0.12839307E+04</rscale>
<asrwt>0</asrwt>
<pdfrwt beam="1">  1        1 0.33273046E+00 0.13272163E+04</pdfrwt>
<pdfrwt beam="2">  1       -1 0.17468805E+00 0.13272163E+04</pdfrwt>
<totfact> 0.50765705E-01</totfact>
</mgrwt>
</event>
<event>
 4    1  0.2514307E-008  0.1130572E+04  0.7818608E-02  0.9227758E-01
         -1   -1    0    0    0  501 -0.00000000000E+00  0.00000000000E+00  0.19259174234E+04  0.19259174234E+04  0.50400000000E-02 0.  1.
          1   -1    0    0  501    0  0.00000000000E+00 -0.00000000000E+00 -0.23766894650E+04  0.23766894650E+04  0.50400000000E-02 0. -1.
    8880023    1    1    2    0    0 -0.85328908428E+03 -0.34100025698E+03  0.16525220933E+04  0.20022544572E+04  0.65864270000E+03 0.  0.
    8880022    1    1    2    0    0  0.85328908428E+03  0.34100025698E+03 -0.21032941349E+04  0.23003524311E+04  0.15294330000E+03 0.  0.
<mgrwt>
<rscale>  0 0.10771462E+04</rscale>
<asrwt>0</asrwt>
<pdfrwt beam="1">  1        1 0.36564453E+00 0.11305723E+04</pdfrwt>
<pdfrwt beam="2">  1       -1 0.29629499E+00 0.11305723E+04</pdfrwt>
<totfact> 0.57602556E-02</totfact>
</mgrwt>
</event>
<event>
 4    1  0.2514307E-008  0.1009170E+04  0.7818608E-02  0.9369658E-01
         -1   -1    0    0    0  501 -0.00000000000E+00  0.00000000000E+00  0.20765025830E+03  0.20765025836E+03  0.50400000000E-02 0.  1.
          1   -1    0    0  501    0  0.00000000000E+00 -0.00000000000E+00 -0.38533297106E+04  0.38533297106E+04  0.50400000000E-02 0. -1.
    8880023    1    1    2    0    0 -0.36086015492E+03 -0.67408675665E+03 -0.20779089618E+04  0.23100062482E+04  0.65864270000E+03 0.  0.
    8880022    1    1    2    0    0  0.36086015492E+03  0.67408675665E+03 -0.15677704905E+04  0.17509737208E+04  0.15294330000E+03 0.  1.
<mgrwt>
<rscale>  0 0.94615322E+03</rscale>
<asrwt>0</asrwt>
<pdfrwt beam="1">  1        1 0.59281990E+00 0.10091696E+04</pdfrwt>
<pdfrwt beam="2">  1       -1 0.31946197E-01 0.10091696E+04</pdfrwt>
<totfact> 0.12274375E+00</totfact>
</mgrwt>
</event>
<event>
 4    1  0.2514307E-008  0.8979431E+03  0.7818608E-02  0.9529342E-01
          1   -1    0    0  501    0  0.00000000000E+00  0.00000000000E+00  0.20667080709E+04  0.20667080709E+04  0.50400000000E-02 0. -1.
         -1   -1    0    0    0  501 -0.00000000000E+00 -0.00000000000E+00 -0.46543481413E+03  0.46543481416E+03  0.50400000000E-02 0.  1.
    8880023    1    1    2    0    0  0.26762674186E+03 -0.54851392071E+03  0.98944460847E+02  0.90337799772E+03  0.65864270000E+03 0.  1.
    8880022    1    1    2    0    0 -0.26762674186E+03  0.54851392071E+03  0.15023287959E+04  0.16287648873E+04  0.15294330000E+03 0.  0.
<mgrwt>
<rscale>  0 0.82154717E+03</rscale>
<asrwt>0</asrwt>
<pdfrwt beam="1">  1        1 0.31795509E+00 0.89794309E+03</pdfrwt>
<pdfrwt beam="2">  1       -1 0.71605356E-01 0.89794309E+03</pdfrwt>
<totfact> 0.54252363E+00</totfact>
</mgrwt>
</event>
<event>
 4    1  0.2514307E-008  0.7410504E+03  0.7818608E-02  0.9856898E-01
         -1   -1    0    0    0  501 -0.00000000000E+00  0.00000000000E+00  0.90901091401E+03  0.90901091403E+03  0.50400000000E-02 0.  1.
          1   -1    0    0  501    0  0.00000000000E+00 -0.00000000000E+00 -0.66345528445E+03  0.66345528447E+03  0.50400000000E-02 0. -1.
    8880023    1    1    2    0    0  0.30317369273E+03  0.15307274370E+03  0.67612434724E+03  0.10031450005E+04  0.65864270000E+03 0.  0.
    8880022    1    1    2    0    0 -0.30317369273E+03 -0.15307274370E+03 -0.43056871769E+03  0.56932119800E+03  0.15294330000E+03 0.  0.
<mgrwt>
<rscale>  0 0.62396459E+03</rscale>
<asrwt>0</asrwt>
<pdfrwt beam="1">  1        1 0.10207004E+00 0.74105044E+03</pdfrwt>
<pdfrwt beam="2">  1       -1 0.13984783E+00 0.74105044E+03</pdfrwt>
<totfact> 0.12793393E+01</totfact>
</mgrwt>
</event>
<event>
 4    1  0.2514307E-008  0.1513259E+04  0.7818608E-02  0.8900330E-01
         -1   -1    0    0    0  501 -0.00000000000E+00  0.00000000000E+00  0.96629654507E+03  0.96629654508E+03  0.50400000000E-02 0.  1.
          1   -1    0    0  501    0  0.00000000000E+00 -0.00000000000E+00 -0.32459850311E+04  0.32459850311E+04  0.50400000000E-02 0. -1.
    8880023    1    1    2    0    0  0.19557571725E+03  0.13482926066E+04  0.44459462718E+02  0.15139120398E+04  0.65864270000E+03 0.  0.
    8880022    1    1    2    0    0 -0.19557571725E+03 -0.13482926066E+04 -0.23241479488E+04  0.26983695364E+04  0.15294330000E+03 0.  0.
<mgrwt>
<rscale>  0 0.14763565E+04</rscale>
<asrwt>0</asrwt>
<pdfrwt beam="1">  1        1 0.49938231E+00 0.15132591E+04</pdfrwt>
<pdfrwt beam="2">  1       -1 0.14866101E+00 0.15132591E+04</pdfrwt>
<totfact> 0.13359191E-01</totfact>
</mgrwt>
</event>
<event>
 4    1  0.2514307E-008  0.9810054E+03  0.7818608E-02  0.9406841E-01
          1   -1    0    0  501    0  0.00000000000E+00  0.00000000000E+00  0.16164296178E+04  0.16164296178E+04  0.50400000000E-02 0. -1.
         -1   -1    0    0    0  501 -0.00000000000E+00 -0.00000000000E+00 -0.50216287853E+03  0.50216287855E+03  0.50400000000E-02 0.  1.
    8880023    1    1    2    0    0 -0.74613819782E+02  0.72318331579E+03  0.32204620453E+03  0.10325140650E+04  0.65864270000E+03 0. -1.
    8880022    1    1    2    0    0  0.74613819782E+02 -0.72318331579E+03  0.79222053473E+03  0.10860784313E+04  0.15294330000E+03 0.  0.
<mgrwt>
<rscale>  0 0.91514792E+03</rscale>
<asrwt>0</asrwt>
<pdfrwt beam="1">  1        1 0.24868148E+00 0.98100537E+03</pdfrwt>
<pdfrwt beam="2">  1       -1 0.77255829E-01 0.98100537E+03</pdfrwt>
<totfact> 0.92167767E+00</totfact>
</mgrwt>
</event>
<event>
 4    1  0.2514307E-008  0.1301739E+04  0.7818608E-02  0.9064060E-01
         -1   -1    0    0    0  501 -0.00000000000E+00  0.00000000000E+00  0.17141993225E+04  0.17141993225E+04  0.50400000000E-02 0.  1.
          1   -1    0    0  501    0  0.00000000000E+00 -0.00000000000E+00 -0.12446181378E+04  0.12446181378E+04  0.50400000000E-02 0. -1.
    8880023    1    1    2    0    0  0.30594091402E+03 -0.10803303649E+04 -0.56995488490E+03  0.14210462052E+04  0.65864270000E+03 0.  0.
    8880022    1    1    2    0    0 -0.30594091402E+03  0.10803303649E+04  0.10395360696E+04  0.15377712552E+04  0.15294330000E+03 0.  0.
<mgrwt>
<rscale>  0 0.12573841E+04</rscale>
<asrwt>0</asrwt>
<pdfrwt beam="1">  1        1 0.19147971E+00 0.13017387E+04</pdfrwt>
<pdfrwt beam="2">  1       -1 0.26372297E+00 0.13017387E+04</pdfrwt>
<totfact> 0.54545504E-01</totfact>
</mgrwt>
</event>
<event>
 4    1  0.2514307E-008  0.9295266E+03  0.7818608E-02  0.9480204E-01
          1   -1    0    0  501    0  0.00000000000E+00  0.00000000000E+00  0.31669895315E+04  0.31669895315E+04  0.50400000000E-02 0. -1.
         -1   -1    0    0    0  501 -0.00000000000E+00 -0.00000000000E+00 -0.11974236054E+04  0.11974236054E+04  0.50400000000E-02 0.  1.
    8880023    1    1    2    0    0 -0.88868419690E+02  0.64985525767E+03 -0.97306752807E+03  0.13456894413E+04  0.65864270000E+03 0.  0.
    8880022    1    1    2    0    0  0.88868419690E+02 -0.64985525767E+03  0.29426334541E+04  0.30187236956E+04  0.15294330000E+03 0.  0.
<mgrwt>
<rscale>  0 0.85759180E+03</rscale>
<asrwt>0</asrwt>
<pdfrwt beam="1">  1        1 0.48722915E+00 0.92952658E+03</pdfrwt>
<pdfrwt beam="2">  1       -1 0.18421902E+00 0.92952658E+03</pdfrwt>
<totfact> 0.91587434E-02</totfact>
</mgrwt>
</event>
<event>
 4    1  0.2514307E-008  0.7813028E+03  0.7818608E-02  0.9752786E-01
         -1   -1    0    0    0  501 -0.00000000000E+00  0.00000000000E+00  0.18787657722E+03  0.18787657728E+03  0.50400000000E-02 0.  1.
          1   -1    0    0  501    0  0.00000000000E+00 -0.00000000000E+00 -0.22667624166E+04  0.22667624166E+04  0.50400000000E-02 0. -1.
    8880023    1    1    2    0    0 -0.41197993607E+03  0.83044357685E+02 -0.88929443927E+03  0.11837561569E+04  0.65864270000E+03 0.  0.
    8880022    1    1    2    0    0  0.41197993607E+03 -0.83044357685E+02 -0.11895914001E+04  0.12708828370E+04  0.15294330000E+03 0.  0.
<mgrwt>
<rscale>  0 0.67959078E+03</rscale>
<asrwt>0</asrwt>
<pdfrwt beam="1">  1        1 0.34873266E+00 0.78130278E+03</pdfrwt>
<pdfrwt beam="2">  1       -1 0.28904090E-01 0.78130278E+03</pdfrwt>
<totfact> 0.22194516E+01</totfact>
</mgrwt>
</event>
<event>
 4    1  0.2514307E-008  0.8887470E+03  0.7818608E-02  0.9544343E-01
         -1   -1    0    0    0  501 -0.00000000000E+00  0.00000000000E+00  0.10637832515E+04  0.10637832516E+04  0.50400000000E-02 0.  1.
          1   -1    0    0  501    0  0.00000000000E+00 -0.00000000000E+00 -0.17952735183E+04  0.17952735183E+04  0.50400000000E-02 0. -1.
    8880023    1    1    2    0    0  0.14451507539E+03  0.57894428451E+03  0.80785078209E+03  0.12010387937E+04  0.65864270000E+03 0.  1.
    8880022    1    1    2    0    0 -0.14451507539E+03 -0.57894428451E+03 -0.15393410488E+04  0.16580179762E+04  0.15294330000E+03 0.  0.
<mgrwt>
<rscale>  0 0.81092061E+03</rscale>
<asrwt>0</asrwt>
<pdfrwt beam="1">  1        1 0.27619593E+00 0.88874704E+03</pdfrwt>
<pdfrwt beam="2">  1       -1 0.16365896E+00 0.88874704E+03</pdfrwt>
<totfact> 0.11561933E+00</totfact>
</mgrwt>
</event>
<event>
 4    1  0.2514307E-008  0.1184284E+04  0.7818608E-02  0.9172552E-01
         -1   -1    0    0    0  501 -0.00000000000E+00  0.00000000000E+00  0.11503085521E+04  0.11503085521E+04  0.50400000000E-02 0.  1.
          1   -1    0    0  501    0  0.00000000000E+00 -0.00000000000E+00 -0.16843242066E+04  0.16843242066E+04  0.50400000000E-02 0. -1.
    8880023    1    1    2    0    0 -0.88241189006E+03  0.43596879083E+03  0.59807992643E+03  0.13267363472E+04  0.65864270000E+03 0.  0.
    8880022    1    1    2    0    0  0.88241189006E+03 -0.43596879083E+03 -0.11320955810E+04  0.15078964115E+04  0.15294330000E+03 0.  0.
<mgrwt>
<rscale>  0 0.11341280E+04</rscale>
<asrwt>0</asrwt>
<pdfrwt beam="1">  1        1 0.25912680E+00 0.11842845E+04</pdfrwt>
<pdfrwt beam="2">  1       -1 0.17697055E+00 0.11842845E+04</pdfrwt>
<totfact> 0.10503515E+00</totfact>
</mgrwt>
</event>
<event>
 4    1  0.2514307E-008  0.7351712E+03  0.7818608E-02  0.9874243E-01
         -1   -1    0    0    0  501 -0.00000000000E+00  0.00000000000E+00  0.29033048579E+03  0.29033048583E+03  0.50400000000E-02 0.  1.
          1   -1    0    0  501    0  0.00000000000E+00 -0.00000000000E+00 -0.17662889491E+04  0.17662889491E+04  0.50400000000E-02 0. -1.
    8880023    1    1    2    0    0 -0.21138343462E+03  0.24896482987E+03 -0.24655633434E+03  0.77541387350E+03  0.65864270000E+03 0.  1.
    8880022    1    1    2    0    0  0.21138343462E+03 -0.24896482987E+03 -0.12294021290E+04  0.12812055615E+04  0.15294330000E+03 0.  0.
<mgrwt>
<rscale>  0 0.61525978E+03</rscale>
<asrwt>0</asrwt>
<pdfrwt beam="1">  1        1 0.27173676E+00 0.73517117E+03</pdfrwt>
<pdfrwt beam="2">  1       -1 0.44666230E-01 0.73517117E+03</pdfrwt>
<totfact> 0.22165570E+01</totfact>
</mgrwt>
</event>
<event>
 4    1  0.2514307E-008  0.1292602E+04  0.7818608E-02  0.9071975E-01
          1   -1    0    0  501    0  0.00000000000E+00  0.00000000000E+00  0.14822960549E+04  0.14822960549E+04  0.50400000000E-02 0. -1.
         -1   -1    0    0    0  501 -0.00000000000E+00 -0.00000000000E+00 -0.14554705566E+04  0.14554705566E+04  0.50400000000E-02 0.  1.
    8880023    1    1    2    0    0 -0.98970278242E+03 -0.50744164713E+03 -0.82067478546E+03  0.15311191765E+04  0.65864270000E+03 0.  0.
    8880022    1    1    2    0    0  0.98970278242E+03  0.50744164713E+03  0.84750028375E+03  0.14066474351E+04  0.15294330000E+03 0.  0.
<mgrwt>
<rscale>  0 0.12478491E+04</rscale>
<asrwt>0</asrwt>
<pdfrwt beam="1">  1        1 0.22804555E+00 0.12926016E+04</pdfrwt>
<pdfrwt beam="2">  1       -1 0.22391855E+00 0.12926016E+04</pdfrwt>
<totfact> 0.67545389E-01</totfact>
</mgrwt>
</event>
<event>
 4    1  0.2514307E-008  0.1013227E+04  0.7818608E-02  0.9364454E-01
          1   -1    0    0  501    0  0.00000000000E+00  0.00000000000E+00  0.19482077948E+04  0.19482077948E+04  0.50400000000E-02 0. -1.
         -1   -1    0    0    0  501 -0.00000000000E+00 -0.00000000000E+00 -0.68618102184E+03  0.68618102186E+03  0.50400000000E-02 0.  1.
    8880023    1    1    2    0    0  0.48693019067E+03 -0.59642087570E+03 -0.14465367204E+03  0.10235007390E+04  0.65864270000E+03 0.  0.
    8880022    1    1    2    0    0 -0.48693019067E+03  0.59642087570E+03  0.14066804450E+04  0.16108880777E+04  0.15294330000E+03 0.  0.
<mgrwt>
<rscale>  0 0.95059653E+03</rscale>
<asrwt>0</asrwt>
<pdfrwt beam="1">  1        1 0.29972427E+00 0.10132271E+04</pdfrwt>
<pdfrwt beam="2">  1       -1 0.10556631E+00 0.10132271E+04</pdfrwt>
<totfact> 0.27399439E+00</totfact>
</mgrwt>
</event>
<event>
 4    1  0.2514307E-008  0.9998041E+03  0.7818608E-02  0.9381814E-01
          1   -1    0    0  501    0  0.00000000000E+00  0.00000000000E+00  0.18525829873E+04  0.18525829873E+04  0.50400000000E-02 0. -1.
         -1   -1    0    0    0  501 -0.00000000000E+00 -0.00000000000E+00 -0.25252761725E+04  0.25252761725E+04  0.50400000000E-02 0.  1.
    8880023    1    1    2    0    0  0.67460611999E+03  0.33272291208E+03 -0.23387443434E+04  0.25434884044E+04  0.65864270000E+03 0.  1.
    8880022    1    1    2    0    0 -0.67460611999E+03 -0.33272291208E+03  0.16660511582E+04  0.18343707554E+04  0.15294330000E+03 0.  0.
<mgrwt>
<rscale>  0 0.93587545E+03</rscale>
<asrwt>0</asrwt>
<pdfrwt beam="1">  1        1 0.28501277E+00 0.99980406E+03</pdfrwt>
<pdfrwt beam="2">  1       -1 0.38850403E+00 0.99980406E+03</pdfrwt>
<totfact> 0.33166458E-02</totfact>
</mgrwt>
</event>
<event>
 4    1  0.2514307E-008  0.8754036E+03  0.7818608E-02  0.9566730E-01
         -1   -1    0    0    0  501 -0.00000000000E+00  0.00000000000E+00  0.11674462764E+04  0.11674462764E+04  0.50400000000E-02 0.  1.
          1   -1    0    0  501    0  0.00000000000E+00 -0.00000000000E+00 -0.46420663996E+03  0.46420663998E+03  0.50400000000E-02 0. -1.
    8880023    1    1    2    0    0  0.57663646339E+03 -0.34072339840E+01  0.43536987756E+03  0.97769031738E+03  0.65864270000E+03 0. -1.
    8880022    1    1    2    0    0 -0.57663646339E+03  0.34072339840E+01  0.26786975886E+03  0.65396259899E+03  0.15294330000E+03 0.  1.
<mgrwt>
<rscale>  0 0.79537915E+03</rscale>
<asrwt>0</asrwt>
<pdfrwt beam="1">  1        1 0.71416405E-01 0.87540358E+03</pdfrwt>
<pdfrwt beam="2">  1       -1 0.17960712E+00 0.87540358E+03</pdfrwt>
<totfact> 0.10444919E+01</totfact>
</mgrwt>
</event>
<event>
 4    1  0.2514307E-008  0.9004370E+03  0.7818608E-02  0.9525331E-01
         -1   -1    0    0    0  501 -0.00000000000E+00  0.00000000000E+00  0.48352213282E+03  0.48352213284E+03  0.50400000000E-02 0.  1.
          1   -1    0    0  501    0  0.00000000000E+00 -0.00000000000E+00 -0.28581249814E+04  0.28581249814E+04  0.50400000000E-02 0. -1.
    8880023    1    1    2    0    0 -0.41767029367E+03 -0.45003114647E+03 -0.16986100864E+02  0.90059715795E+03  0.65864270000E+03 0.  0.
    8880022    1    1    2    0    0  0.41767029367E+03  0.45003114647E+03 -0.23576167477E+04  0.24410499563E+04  0.15294330000E+03 0.  0.
<mgrwt>
<rscale>  0 0.82441792E+03</rscale>
<asrwt>0</asrwt>
<pdfrwt beam="1">  1        1 0.43971152E+00 0.90043696E+03</pdfrwt>
<pdfrwt beam="2">  1       -1 0.74388022E-01 0.90043696E+03</pdfrwt>
<totfact> 0.14358149E+00</totfact>
</mgrwt>
</event>
<event>
 4    1  0.2514307E-008  0.8974910E+03  0.7818608E-02  0.9530071E-01
         -1   -1    0    0    0  501 -0.00000000000E+00  0.00000000000E+00  0.12418693177E+04  0.12418693177E+04  0.50400000000E-02 0.  1.
          1   -1    0    0  501    0  0.00000000000E+00 -0.00000000000E+00 -0.88293620847E+03  0.88293620848E+03  0.50400000000E-02 0. -1.
    8880023    1    1    2    0    0  0.20988196362E+03 -0.57238920265E+03  0.91783457861E+03  0.12837096081E+04  0.65864270000E+03 0.  0.
    8880022    1    1    2    0    0 -0.20988196362E+03  0.57238920265E+03 -0.55890146937E+03  0.84109591810E+03  0.15294330000E+03 0.  0.
<mgrwt>
<rscale>  0 0.82102622E+03</rscale>
<asrwt>0</asrwt>
<pdfrwt beam="1">  1        1 0.13583634E+00 0.89749097E+03</pdfrwt>
<pdfrwt beam="2">  1       -1 0.19105682E+00 0.89749097E+03</pdfrwt>
<totfact> 0.33197331E+00</totfact>
</mgrwt>
</event>
<event>
 4    1  0.2514307E-008  0.1481631E+04  0.7818608E-02  0.8922717E-01
         -1   -1    0    0    0  501 -0.00000000000E+00  0.00000000000E+00  0.13717159901E+04  0.13717159901E+04  0.50400000000E-02 0.  1.
          1   -1    0    0  501    0  0.00000000000E+00 -0.00000000000E+00 -0.19214107225E+04  0.19214107225E+04  0.50400000000E-02 0. -1.
    8880023    1    1    2    0    0  0.11775757250E+04  0.61215559080E+03  0.53190184895E+03  0.15742137208E+04  0.65864270000E+03 0.  0.
    8880022    1    1    2    0    0 -0.11775757250E+04 -0.61215559080E+03 -0.10815965814E+04  0.17189129918E+04  0.15294330000E+03 0.  0.
<mgrwt>
<rscale>  0 0.14437898E+04</rscale>
<asrwt>0</asrwt>
<pdfrwt beam="1">  1        1 0.29560165E+00 0.14816306E+04</pdfrwt>
<pdfrwt beam="2">  1       -1 0.21103323E+00 0.14816306E+04</pdfrwt>
<totfact> 0.40362687E-01</totfact>
</mgrwt>
</event>
<event>
 4    1  0.2514307E-008  0.7096401E+03  0.7818608E-02  0.9959340E-01
         -1   -1    0    0    0  501 -0.00000000000E+00  0.00000000000E+00  0.58879154377E+03  0.58879154380E+03  0.50400000000E-02 0.  1.
          1   -1    0    0  501    0  0.00000000000E+00 -0.00000000000E+00 -0.63192738089E+03  0.63192738091E+03  0.50400000000E-02 0. -1.
    8880023    1    1    2    0    0 -0.22196445270E+02 -0.26322267656E+03 -0.34707141180E+03  0.78996685424E+03  0.65864270000E+03 0.  0.
    8880022    1    1    2    0    0  0.22196445270E+02  0.26322267656E+03  0.30393557468E+03  0.43075207047E+03  0.15294330000E+03 0.  0.
<mgrwt>
<rscale>  0 0.57469633E+03</rscale>
<asrwt>0</asrwt>
<pdfrwt beam="1">  1        1 0.97219597E-01 0.70964010E+03</pdfrwt>
<pdfrwt beam="2">  1       -1 0.90583314E-01 0.70964010E+03</pdfrwt>
<totfact> 0.38841959E+01</totfact>
</mgrwt>
</event>
<event>
 4    1  0.2514307E-008  0.6624516E+03  0.7818608E-02  0.1021774E+00
          1   -1    0    0  501    0  0.00000000000E+00  0.00000000000E+00  0.10123146934E+04  0.10123146934E+04  0.50400000000E-02 0. -1.
         -1   -1    0    0    0  501 -0.00000000000E+00 -0.00000000000E+00 -0.13769173545E+04  0.13769173545E+04  0.50400000000E-02 0.  1.
    8880023    1    1    2    0    0  0.38823686925E+02  0.59368833085E+02 -0.12891726391E+04  0.14494165159E+04  0.65864270000E+03 0.  1.
    8880022    1    1    2    0    0 -0.38823686925E+02 -0.59368833085E+02  0.92456997796E+03  0.93981553199E+03  0.15294330000E+03 0.  0.
<mgrwt>
<rscale>  0 0.47051718E+03</rscale>
<asrwt>0</asrwt>
<pdfrwt beam="1">  1        1 0.15574072E+00 0.66245162E+03</pdfrwt>
<pdfrwt beam="2">  1       -1 0.21183344E+00 0.66245162E+03</pdfrwt>
<totfact> 0.19644849E+00</totfact>
</mgrwt>
</event>
<event>
 4    1  0.2514307E-008  0.6589812E+03  0.7818608E-02  0.1025225E+00
         -1   -1    0    0    0  501 -0.00000000000E+00  0.00000000000E+00  0.14201907944E+03  0.14201907953E+03  0.50400000000E-02 0.  1.
          1   -1    0    0  501    0  0.00000000000E+00 -0.00000000000E+00 -0.29667035242E+04  0.29667035242E+04  0.50400000000E-02 0. -1.
    8880023    1    1    2    0    0 -0.20729949235E+02 -0.40370068678E+01 -0.64009029430E+03  0.91867938877E+03  0.65864270000E+03 0.  1.
    8880022    1    1    2    0    0  0.20729949235E+02  0.40370068678E+01 -0.21845941504E+04  0.21900432149E+04  0.15294330000E+03 0.  0.
<mgrwt>
<rscale>  0 0.45847195E+03</rscale>
<asrwt>0</asrwt>
<pdfrwt beam="1">  1        1 0.45641588E+00 0.65898121E+03</pdfrwt>
<pdfrwt beam="2">  1       -1 0.21849091E-01 0.65898121E+03</pdfrwt>
<totfact> 0.11997638E+01</totfact>
</mgrwt>
</event>
<event>
 4    1  0.2514307E-008  0.7295204E+03  0.7818608E-02  0.9891597E-01
          1   -1    0    0  501    0  0.00000000000E+00  0.00000000000E+00  0.15912401723E+04  0.15912401723E+04  0.50400000000E-02 0. -1.
         -1   -1    0    0    0  501 -0.00000000000E+00 -0.00000000000E+00 -0.11171264296E+04  0.11171264297E+04  0.50400000000E-02 0.  1.
    8880023    1    1    2    0    0 -0.13875103207E+03 -0.28131478541E+03 -0.97506354782E+03  0.12177639287E+04  0.65864270000E+03 0.  1.
    8880022    1    1    2    0    0  0.13875103207E+03  0.28131478541E+03  0.14491772905E+04  0.14906026733E+04  0.15294330000E+03 0.  0.
<mgrwt>
<rscale>  0 0.60670247E+03</rscale>
<asrwt>0</asrwt>
<pdfrwt beam="1">  1        1 0.24480618E+00 0.72952043E+03</pdfrwt>
<pdfrwt beam="2">  1       -1 0.17186561E+00 0.72952043E+03</pdfrwt>
<totfact> 0.14234133E+00</totfact>
</mgrwt>
</event>
<event>
 4    1  0.2514307E-008  0.9885562E+03  0.7818608E-02  0.9396685E-01
          1   -1    0    0  501    0  0.00000000000E+00  0.00000000000E+00  0.21695211611E+04  0.21695211611E+04  0.50400000000E-02 0. -1.
         -1   -1    0    0    0  501 -0.00000000000E+00 -0.00000000000E+00 -0.51401186589E+03  0.51401186592E+03  0.50400000000E-02 0.  1.
    8880023    1    1    2    0    0  0.73356467236E+03  0.72911370784E+02  0.14946858118E+03  0.99979210816E+03  0.65864270000E+03 0.  0.
    8880022    1    1    2    0    0 -0.73356467236E+03 -0.72911370784E+02  0.15060407140E+04  0.16837409188E+04  0.15294330000E+03 0.  0.
<mgrwt>
<rscale>  0 0.92348988E+03</rscale>
<asrwt>0</asrwt>
<pdfrwt beam="1">  1        1 0.33377248E+00 0.98855622E+03</pdfrwt>
<pdfrwt beam="2">  1       -1 0.79078749E-01 0.98855622E+03</pdfrwt>
<totfact> 0.37097859E+00</totfact>
</mgrwt>
</event>
<event>
 4    1  0.2514307E-008  0.7758753E+03  0.7818608E-02  0.9765617E-01
          1   -1    0    0  501    0  0.00000000000E+00  0.00000000000E+00  0.16293316661E+04  0.16293316661E+04  0.50400000000E-02 0. -1.
         -1   -1    0    0    0  501 -0.00000000000E+00 -0.00000000000E+00 -0.44495189626E+03  0.44495189628E+03  0.50400000000E-02 0.  1.
    8880023    1    1    2    0    0 -0.39595852976E+03  0.10672017231E+03 -0.37094454503E+02  0.77676158330E+03  0.65864270000E+03 0.  0.
    8880022    1    1    2    0    0  0.39595852976E+03 -0.10672017231E+03  0.12214742243E+04  0.12975219791E+04  0.15294330000E+03 0.  0.
<mgrwt>
<rscale>  0 0.67240851E+03</rscale>
<asrwt>0</asrwt>
<pdfrwt beam="1">  1        1 0.25066641E+00 0.77587535E+03</pdfrwt>
<pdfrwt beam="2">  1       -1 0.68454138E-01 0.77587535E+03</pdfrwt>
<totfact> 0.11914584E+01</totfact>
</mgrwt>
</event>
<event>
 4    1  0.2514307E-008  0.1193497E+04  0.7818608E-02  0.9163470E-01
         -1   -1    0    0    0  501 -0.00000000000E+00  0.00000000000E+00  0.10825587230E+04  0.10825587230E+04  0.50400000000E-02 0.  1.
          1   -1    0    0  501    0  0.00000000000E+00 -0.00000000000E+00 -0.14711906367E+04  0.14711906367E+04  0.50400000000E-02 0. -1.
    8880023    1    1    2    0    0 -0.77515547146E+03  0.62430678648E+03  0.41689973031E+03  0.12642153930E+04  0.65864270000E+03 0.  0.
    8880022    1    1    2    0    0  0.77515547146E+03 -0.62430678648E+03 -0.80553164405E+03  0.12895339667E+04  0.15294330000E+03 0.  0.
<mgrwt>
<rscale>  0 0.11438568E+04</rscale>
<asrwt>0</asrwt>
<pdfrwt beam="1">  1        1 0.22633702E+00 0.11934970E+04</pdfrwt>
<pdfrwt beam="2">  1       -1 0.16654750E+00 0.11934970E+04</pdfrwt>
<totfact> 0.17539665E+00</totfact>
</mgrwt>
</event>
<event>
 4    1  0.2514307E-008  0.8676193E+03  0.7818608E-02  0.9580151E-01
          1   -1    0    0  501    0  0.00000000000E+00  0.00000000000E+00  0.46878044742E+03  0.46878044745E+03  0.50400000000E-02 0. -1.
         -1   -1    0    0    0  501 -0.00000000000E+00 -0.00000000000E+00 -0.14333395780E+04  0.14333395780E+04  0.50400000000E-02 0.  1.
    8880023    1    1    2    0    0  0.50569193213E+03  0.25145319441E+03 -0.99010339295E+03  0.13164603960E+04  0.65864270000E+03 0.  1.
    8880022    1    1    2    0    0 -0.50569193213E+03 -0.25145319441E+03  0.25544262402E+02  0.58565962944E+03  0.15294330000E+03 0.  0.
<mgrwt>
<rscale>  0 0.78623949E+03</rscale>
<asrwt>0</asrwt>
<pdfrwt beam="1">  1        1 0.72120070E-01 0.86761930E+03</pdfrwt>
<pdfrwt beam="2">  1       -1 0.22051378E+00 0.86761930E+03</pdfrwt>
<totfact> 0.53983603E+00</totfact>
</mgrwt>
</event>
<event>
 4    1  0.2514307E-008  0.8804330E+03  0.7818608E-02  0.9558202E-01
         -1   -1    0    0    0  501 -0.00000000000E+00  0.00000000000E+00  0.63240721459E+03  0.63240721461E+03  0.50400000000E-02 0.  1.
          1   -1    0    0  501    0  0.00000000000E+00 -0.00000000000E+00 -0.16046494458E+04  0.16046494458E+04  0.50400000000E-02 0. -1.
    8880023    1    1    2    0    0 -0.56883758615E+03 -0.13332638271E+03  0.21387261010E+03  0.90603742934E+03  0.65864270000E+03 0.  0.
    8880022    1    1    2    0    0  0.56883758615E+03  0.13332638271E+03 -0.11861148413E+04  0.13310192311E+04  0.15294330000E+03 0.  0.
<mgrwt>
<rscale>  0 0.80125496E+03</rscale>
<asrwt>0</asrwt>
<pdfrwt beam="1">  1        1 0.24686914E+00 0.88043304E+03</pdfrwt>
<pdfrwt beam="2">  1       -1 0.97293418E-01 0.88043304E+03</pdfrwt>
<totfact> 0.57454642E+00</totfact>
</mgrwt>
</event>
<event>
 4    1  0.2514307E-008  0.1740874E+04  0.7818608E-02  0.8755967E-01
         -1   -1    0    0    0  501 -0.00000000000E+00  0.00000000000E+00  0.12812463314E+04  0.12812463315E+04  0.50400000000E-02 0.  1.
          1   -1    0    0  501    0  0.00000000000E+00 -0.00000000000E+00 -0.36023812781E+04  0.36023812781E+04  0.50400000000E-02 0. -1.
    8880023    1    1    2    0    0 -0.14523878450E+04 -0.69814265194E+03  0.33529040347E+03  0.17728687136E+04  0.65864270000E+03 0.  0.
    8880022    1    1    2    0    0  0.14523878450E+04  0.69814265194E+03 -0.26564253501E+04  0.31107588960E+04  0.15294330000E+03 0.  0.
<mgrwt>
<rscale>  0 0.17094953E+04</rscale>
<asrwt>0</asrwt>
<pdfrwt beam="1">  1        1 0.55421250E+00 0.17408744E+04</pdfrwt>
<pdfrwt beam="2">  1       -1 0.19711482E+00 0.17408744E+04</pdfrwt>
<totfact> 0.30104076E-02</totfact>
</mgrwt>
</event>
<event>
 4    1  0.2514307E-008  0.1146335E+04  0.7818608E-02  0.9211141E-01
          1   -1    0    0  501    0  0.00000000000E+00  0.00000000000E+00  0.19646474939E+04  0.19646474939E+04  0.50400000000E-02 0. -1.
         -1   -1    0    0    0  501 -0.00000000000E+00 -0.00000000000E+00 -0.13107041905E+04  0.13107041906E+04  0.50400000000E-02 0.  1.
    8880023    1    1    2    0    0 -0.50623408648E+02 -0.93686188960E+03 -0.89746872325E+03  0.14558616848E+04  0.65864270000E+03 0.  0.
    8880022    1    1    2    0    0  0.50623408648E+02  0.93686188960E+03  0.15514120266E+04  0.18194899997E+04  0.15294330000E+03 0.  0.
<mgrwt>
<rscale>  0 0.10939173E+04</rscale>
<asrwt>0</asrwt>
<pdfrwt beam="1">  1        1 0.30225346E+00 0.11463347E+04</pdfrwt>
<pdfrwt beam="2">  1       -1 0.20164680E+00 0.11463347E+04</pdfrwt>
<totfact> 0.45673565E-01</totfact>
</mgrwt>
</event>
<event>
 4    1  0.2845989E-008  0.8320186E+03  0.7818608E-02  0.9645417E-01
          1   -1    0    0  501    0  0.00000000000E+00  0.00000000000E+00  0.21966244213E+04  0.21966244213E+04  0.50400000000E-02 0. -1.
         -1   -1    0    0    0  501 -0.00000000000E+00 -0.00000000000E+00 -0.18826707955E+04  0.18826707955E+04  0.50400000000E-02 0.  1.
    8880023    1    1    2    0    0 -0.43443902984E+03 -0.26402182485E+03 -0.17555771458E+04  0.19427573487E+04  0.65864270000E+03 0.  1.
    8880022    1    1    2    0    0  0.43443902984E+03  0.26402182485E+03  0.20695307716E+04  0.21365378682E+04  0.15294330000E+03 0.  0.
<mgrwt>
<rscale>  0 0.74361721E+03</rscale>
<asrwt>0</asrwt>
<pdfrwt beam="1">  1        1 0.33794222E+00 0.83201863E+03</pdfrwt>
<pdfrwt beam="2">  1       -1 0.28964166E+00 0.83201863E+03</pdfrwt>
<totfact> 0.89826776E-02</totfact>
</mgrwt>
</event>
<event>
 4    1  0.2514307E-008  0.1368957E+04  0.7818608E-02  0.9008188E-01
         -1   -1    0    0    0  501 -0.00000000000E+00  0.00000000000E+00  0.18461094009E+04  0.18461094010E+04  0.50400000000E-02 0.  1.
          1   -1    0    0  501    0  0.00000000000E+00 -0.00000000000E+00 -0.13416332192E+04  0.13416332192E+04  0.50400000000E-02 0. -1.
    8880023    1    1    2    0    0 -0.38013741863E+03  0.11383001575E+04  0.11754216590E+04  0.18043441989E+04  0.65864270000E+03 0.  0.
    8880022    1    1    2    0    0  0.38013741863E+03 -0.11383001575E+04 -0.67094547720E+03  0.13833984212E+04  0.15294330000E+03 0.  0.
<mgrwt>
<rscale>  0 0.13273055E+04</rscale>
<asrwt>0</asrwt>
<pdfrwt beam="1">  1        1 0.20640511E+00 0.13689565E+04</pdfrwt>
<pdfrwt beam="2">  1       -1 0.28401683E+00 0.13689565E+04</pdfrwt>
<totfact> 0.34052202E-01</totfact>
</mgrwt>
</event>
<event>
 4    1  0.2514307E-008  0.6859001E+03  0.7818608E-02  0.1006165E+00
          1   -1    0    0  501    0  0.00000000000E+00  0.00000000000E+00  0.91864832421E+03  0.91864832423E+03  0.50400000000E-02 0. -1.
         -1   -1    0    0    0  501 -0.00000000000E+00 -0.00000000000E+00 -0.10584860514E+04  0.10584860514E+04  0.50400000000E-02 0.  1.
    8880023    1    1    2    0    0  0.17572521863E+03 -0.75956910586E+02 -0.92674532021E+03  0.11529596261E+04  0.65864270000E+03 0.  0.
    8880022    1    1    2    0    0 -0.17572521863E+03  0.75956910586E+02  0.78690759303E+03  0.82417474949E+03  0.15294330000E+03 0.  0.
<mgrwt>
<rscale>  0 0.53027502E+03</rscale>
<asrwt>0</asrwt>
<pdfrwt beam="1">  1        1 0.14133051E+00 0.68590015E+03</pdfrwt>
<pdfrwt beam="2">  1       -1 0.16284401E+00 0.68590015E+03</pdfrwt>
<totfact> 0.51154439E+00</totfact>
</mgrwt>
</event>
<event>
 4    1  0.2514307E-008  0.2124158E+04  0.7818608E-02  0.8561690E-01
         -1   -1    0    0    0  501 -0.00000000000E+00  0.00000000000E+00  0.17309731073E+04  0.17309731073E+04  0.50400000000E-02 0.  1.
          1   -1    0    0  501    0  0.00000000000E+00 -0.00000000000E+00 -0.30071724155E+04  0.30071724155E+04  0.50400000000E-02 0. -1.
    8880023    1    1    2    0    0  0.13063392661E+04  0.15400368419E+04  0.33469591473E+03  0.21503644608E+04  0.65864270000E+03 0.  0.
    8880022    1    1    2    0    0 -0.13063392661E+04 -0.15400368419E+04 -0.16108952229E+04  0.25877810620E+04  0.15294330000E+03 0.  0.
<mgrwt>
<rscale>  0 0.20989863E+04</rscale>
<asrwt>0</asrwt>
<pdfrwt beam="1">  1        1 0.46264191E+00 0.21241577E+04</pdfrwt>
<pdfrwt beam="2">  1       -1 0.26630356E+00 0.21241577E+04</pdfrwt>
<totfact> 0.28265494E-02</totfact>
</mgrwt>
</event>
<event>
 4    1  0.2514307E-008  0.1023869E+04  0.7818608E-02  0.9350974E-01
         -1   -1    0    0    0  501 -0.00000000000E+00  0.00000000000E+00  0.11549077798E+04  0.11549077798E+04  0.50400000000E-02 0.  1.
          1   -1    0    0  501    0  0.00000000000E+00 -0.00000000000E+00 -0.18880125402E+04  0.18880125402E+04  0.50400000000E-02 0. -1.
    8880023    1    1    2    0    0 -0.45748294201E+03 -0.63655941055E+03  0.80989745097E+03  0.13054664349E+04  0.65864270000E+03 0.  0.
    8880022    1    1    2    0    0  0.45748294201E+03  0.63655941055E+03 -0.15430022114E+04  0.17374538851E+04  0.15294330000E+03 0.  0.
<mgrwt>
<rscale>  0 0.96222512E+03</rscale>
<asrwt>0</asrwt>
<pdfrwt beam="1">  1        1 0.29046347E+00 0.10238695E+04</pdfrwt>
<pdfrwt beam="2">  1       -1 0.17767812E+00 0.10238695E+04</pdfrwt>
<totfact> 0.77278692E-01</totfact>
</mgrwt>
</event>
<event>
 4    1  0.2514307E-008  0.9856490E+03  0.7818608E-02  0.9400579E-01
          1   -1    0    0  501    0  0.00000000000E+00  0.00000000000E+00  0.15947001700E+04  0.15947001700E+04  0.50400000000E-02 0. -1.
         -1   -1    0    0    0  501 -0.00000000000E+00 -0.00000000000E+00 -0.99927605466E+03  0.99927605467E+03  0.50400000000E-02 0.  1.
    8880023    1    1    2    0    0  0.41764745680E+03 -0.60271419610E+03 -0.62132805944E+03  0.11651405770E+04  0.65864270000E+03 0.  0.
    8880022    1    1    2    0    0 -0.41764745680E+03  0.60271419610E+03  0.12167521747E+04  0.14288356477E+04  0.15294330000E+03 0.  0.
<mgrwt>
<rscale>  0 0.92028078E+03</rscale>
<asrwt>0</asrwt>
<pdfrwt beam="1">  1        1 0.24533849E+00 0.98564903E+03</pdfrwt>
<pdfrwt beam="2">  1       -1 0.15373478E+00 0.98564903E+03</pdfrwt>
<totfact> 0.18521658E+00</totfact>
</mgrwt>
</event>
<event>
 4    1  0.2514307E-008  0.7662482E+03  0.7818608E-02  0.9789192E-01
          1   -1    0    0  501    0  0.00000000000E+00  0.00000000000E+00  0.36199618479E+04  0.36199618479E+04  0.50400000000E-02 0. -1.
         -1   -1    0    0    0  501 -0.00000000000E+00 -0.00000000000E+00 -0.15357121670E+03  0.15357121678E+03  0.50400000000E-02 0.  1.
    8880023    1    1    2    0    0  0.38306795822E+03  0.81148682630E+02  0.94157460643E+03  0.12139600962E+04  0.65864270000E+03 0.  1.
    8880022    1    1    2    0    0 -0.38306795822E+03 -0.81148682630E+02  0.25248160248E+04  0.25595729685E+04  0.15294330000E+03 0.  0.
<mgrwt>
<rscale>  0 0.65945804E+03</rscale>
<asrwt>0</asrwt>
<pdfrwt beam="1">  1        1 0.55691714E+00 0.76624825E+03</pdfrwt>
<pdfrwt beam="2">  1       -1 0.23626344E-01 0.76624825E+03</pdfrwt>
<totfact> 0.33436335E+00</totfact>
</mgrwt>
</event>
<event>
 4    1  0.2514307E-008  0.8041299E+03  0.7818608E-02  0.9701936E-01
          1   -1    0    0  501    0  0.00000000000E+00  0.00000000000E+00  0.19329859890E+04  0.19329859890E+04  0.50400000000E-02 0. -1.
         -1   -1    0    0    0  501 -0.00000000000E+00 -0.00000000000E+00 -0.89680040930E+03  0.89680040932E+03  0.50400000000E-02 0.  1.
    8880023    1    1    2    0    0  0.26225836225E+03 -0.37951979870E+03 -0.67564793415E+03  0.10502976070E+04  0.65864270000E+03 0.  1.
    8880022    1    1    2    0    0 -0.26225836225E+03  0.37951979870E+03  0.17118335139E+04  0.17794887913E+04  0.15294330000E+03 0.  0.
<mgrwt>
<rscale>  0 0.70901614E+03</rscale>
<asrwt>0</asrwt>
<pdfrwt beam="1">  1        1 0.29738246E+00 0.80412992E+03</pdfrwt>
<pdfrwt beam="2">  1       -1 0.13796930E+00 0.80412992E+03</pdfrwt>
<totfact> 0.15041376E+00</totfact>
</mgrwt>
</event>
<event>
 4    1  0.2514307E-008  0.7949519E+03  0.7818608E-02  0.9721819E-01
          1   -1    0    0  501    0  0.00000000000E+00  0.00000000000E+00  0.15616425322E+04  0.15616425322E+04  0.50400000000E-02 0. -1.
         -1   -1    0    0    0  501 -0.00000000000E+00 -0.00000000000E+00 -0.96625644207E+03  0.96625644208E+03  0.50400000000E-02 0.  1.
    8880023    1    1    2    0    0  0.30350025157E+03 -0.32561612413E+03 -0.75591425393E+03  0.10969753090E+04  0.65864270000E+03 0.  1.
    8880022    1    1    2    0    0 -0.30350025157E+03  0.32561612413E+03  0.13513003441E+04  0.14309236653E+04  0.15294330000E+03 0.  0.
<mgrwt>
<rscale>  0 0.69732410E+03</rscale>
<asrwt>0</asrwt>
<pdfrwt beam="1">  1        1 0.24025270E+00 0.79495187E+03</pdfrwt>
<pdfrwt beam="2">  1       -1 0.14865484E+00 0.79495187E+03</pdfrwt>
<totfact> 0.22020447E+00</totfact>
</mgrwt>
</event>
<event>
 4    1  0.2514307E-008  0.9463350E+03  0.7818608E-02  0.9455407E-01
         -1   -1    0    0    0  501 -0.00000000000E+00  0.00000000000E+00  0.69694206685E+03  0.69694206687E+03  0.50400000000E-02 0.  1.
          1   -1    0    0  501    0  0.00000000000E+00 -0.00000000000E+00 -0.17448288757E+04  0.17448288757E+04  0.50400000000E-02 0. -1.
    8880023    1    1    2    0    0 -0.57821724056E+03 -0.35693761203E+03  0.24116372421E+03  0.97658065939E+03  0.65864270000E+03 0.  1.
    8880022    1    1    2    0    0  0.57821724056E+03  0.35693761203E+03 -0.12890505331E+04  0.14651902832E+04  0.15294330000E+03 0.  0.
<mgrwt>
<rscale>  0 0.87652856E+03</rscale>
<asrwt>0</asrwt>
<pdfrwt beam="1">  1        1 0.26843521E+00 0.94633495E+03</pdfrwt>
<pdfrwt beam="2">  1       -1 0.10722186E+00 0.94633495E+03</pdfrwt>
<totfact> 0.36560481E+00</totfact>
</mgrwt>
</event>
<event>
 4    1  0.2514307E-008  0.1048399E+04  0.7818608E-02  0.9320808E-01
          1   -1    0    0  501    0  0.00000000000E+00  0.00000000000E+00  0.14953666616E+04  0.14953666616E+04  0.50400000000E-02 0. -1.
         -1   -1    0    0    0  501 -0.00000000000E+00 -0.00000000000E+00 -0.26697616188E+04  0.26697616188E+04  0.50400000000E-02 0.  1.
    8880023    1    1    2    0    0 -0.81066494118E+03 -0.90293571650E+02 -0.24377181497E+04  0.26536033162E+04  0.65864270000E+03 0.  0.
    8880022    1    1    2    0    0  0.81066494118E+03  0.90293571650E+02  0.12633231925E+04  0.15115249643E+04  0.15294330000E+03 0.  0.
<mgrwt>
<rscale>  0 0.98889575E+03</rscale>
<asrwt>0</asrwt>
<pdfrwt beam="1">  1        1 0.23005641E+00 0.10483992E+04</pdfrwt>
<pdfrwt beam="2">  1       -1 0.41073256E+00 0.10483992E+04</pdfrwt>
<totfact> 0.40559139E-02</totfact>
</mgrwt>
</event>
<event>
 4    1  0.2514307E-008  0.9953185E+03  0.7818608E-02  0.9387708E-01
          1   -1    0    0  501    0  0.00000000000E+00  0.00000000000E+00  0.49656952608E+03  0.49656952611E+03  0.50400000000E-02 0. -1.
         -1   -1    0    0    0  501 -0.00000000000E+00 -0.00000000000E+00 -0.15736532291E+04  0.15736532291E+04  0.50400000000E-02 0.  1.
    8880023    1    1    2    0    0 -0.59790560394E+03 -0.44649469810E+03 -0.72309148656E+03  0.12302520599E+04  0.65864270000E+03 0.  0.
    8880022    1    1    2    0    0  0.59790560394E+03  0.44649469810E+03 -0.35399221645E+03  0.83997069531E+03  0.15294330000E+03 0.  0.
<mgrwt>
<rscale>  0 0.93094179E+03</rscale>
<asrwt>0</asrwt>
<pdfrwt beam="1">  1        1 0.76395312E-01 0.99531846E+03</pdfrwt>
<pdfrwt beam="2">  1       -1 0.24210049E+00 0.99531846E+03</pdfrwt>
<totfact> 0.35434424E+00</totfact>
</mgrwt>
</event>
<event>
 4    1  0.2514307E-008  0.8704126E+03  0.7818608E-02  0.9575303E-01
          1   -1    0    0  501    0  0.00000000000E+00  0.00000000000E+00  0.19075428000E+04  0.19075428000E+04  0.50400000000E-02 0. -1.
         -1   -1    0    0    0  501 -0.00000000000E+00 -0.00000000000E+00 -0.53160868984E+03  0.53160868986E+03  0.50400000000E-02 0.  1.
    8880023    1    1    2    0    0  0.41864246150E+03  0.38541705805E+03 -0.74502667581E+02  0.87359525694E+03  0.65864270000E+03 0.  1.
    8880022    1    1    2    0    0 -0.41864246150E+03 -0.38541705805E+03  0.14504367778E+04  0.15655562329E+04  0.15294330000E+03 0.  0.
<mgrwt>
<rscale>  0 0.78952565E+03</rscale>
<asrwt>0</asrwt>
<pdfrwt beam="1">  1        1 0.29346813E+00 0.87041256E+03</pdfrwt>
<pdfrwt beam="2">  1       -1 0.81785951E-01 0.87041256E+03</pdfrwt>
<totfact> 0.52671055E+00</totfact>
</mgrwt>
</event>
<event>
 4    1  0.2514307E-008  0.1036081E+04  0.7818608E-02  0.9335804E-01
         -1   -1    0    0    0  501 -0.00000000000E+00  0.00000000000E+00  0.10272217654E+04  0.10272217654E+04  0.50400000000E-02 0.  1.
          1   -1    0    0  501    0  0.00000000000E+00 -0.00000000000E+00 -0.18648796999E+04  0.18648796999E+04  0.50400000000E-02 0. -1.
    8880023    1    1    2    0    0  0.81533947363E+02 -0.79561668123E+03  0.63079205514E+03  0.12129973253E+04  0.65864270000E+03 0.  1.
    8880022    1    1    2    0    0 -0.81533947363E+02  0.79561668123E+03 -0.14684499897E+04  0.16791041401E+04  0.15294330000E+03 0.  0.
<mgrwt>
<rscale>  0 0.97552453E+03</rscale>
<asrwt>0</asrwt>
<pdfrwt beam="1">  1        1 0.28690457E+00 0.10360810E+04</pdfrwt>
<pdfrwt beam="2">  1       -1 0.15803412E+00 0.10360810E+04</pdfrwt>
<totfact> 0.11177608E+00</totfact>
</mgrwt>
</event>
<event>
 4    1  0.2514307E-008  0.7438148E+03  0.7818608E-02  0.9848971E-01
         -1   -1    0    0    0  501 -0.00000000000E+00  0.00000000000E+00  0.39199541706E+03  0.39199541709E+03  0.50400000000E-02 0.  1.
          1   -1    0    0  501    0  0.00000000000E+00 -0.00000000000E+00 -0.14006032719E+04  0.14006032719E+04  0.50400000000E-02 0. -1.
    8880023    1    1    2    0    0  0.29334742677E+03  0.18274973079E+03 -0.30981375517E+02  0.74445968916E+03  0.65864270000E+03 0.  1.
    8880022    1    1    2    0    0 -0.29334742677E+03 -0.18274973079E+03 -0.97762647932E+03  0.10481389998E+04  0.15294330000E+03 0.  0.
<mgrwt>
<rscale>  0 0.62799403E+03</rscale>
<asrwt>0</asrwt>
<pdfrwt beam="1">  1        1 0.21547742E+00 0.74381475E+03</pdfrwt>
<pdfrwt beam="2">  1       -1 0.60306988E-01 0.74381475E+03</pdfrwt>
<totfact> 0.22119410E+01</totfact>
</mgrwt>
</event>
<event>
 4    1  0.2514307E-008  0.9559933E+03  0.7818608E-02  0.9441543E-01
          1   -1    0    0  501    0  0.00000000000E+00  0.00000000000E+00  0.25339465316E+04  0.25339465316E+04  0.50400000000E-02 0. -1.
         -1   -1    0    0    0  501 -0.00000000000E+00 -0.00000000000E+00 -0.81473831803E+03  0.81473831805E+03  0.50400000000E-02 0.  1.
    8880023    1    1    2    0    0  0.68096223936E+03  0.12807600113E+03 -0.45707573659E+03  0.10596421418E+04  0.65864270000E+03 0.  0.
    8880022    1    1    2    0    0 -0.68096223936E+03 -0.12807600113E+03  0.21762839502E+04  0.22890427078E+04  0.15294330000E+03 0.  0.
<mgrwt>
<rscale>  0 0.88734312E+03</rscale>
<asrwt>0</asrwt>
<pdfrwt beam="1">  1        1 0.38983793E+00 0.95599333E+03</pdfrwt>
<pdfrwt beam="2">  1       -1 0.12534436E+00 0.95599333E+03</pdfrwt>
<totfact> 0.73220742E-01</totfact>
</mgrwt>
</event>
<event>
 4    1  0.2514307E-008  0.7627594E+03  0.7818608E-02  0.9798015E-01
         -1   -1    0    0    0  501 -0.00000000000E+00  0.00000000000E+00  0.11468332768E+03  0.11468332779E+03  0.50400000000E-02 0.  1.
          1   -1    0    0  501    0  0.00000000000E+00 -0.00000000000E+00 -0.36529759370E+04  0.36529759370E+04  0.50400000000E-02 0. -1.
    8880023    1    1    2    0    0  0.35780343969E+02  0.38302925737E+03 -0.14464242084E+04  0.16352201203E+04  0.65864270000E+03 0. -1.
    8880022    1    1    2    0    0 -0.35780343969E+02 -0.38302925737E+03 -0.20918684010E+04  0.21324391445E+04  0.15294330000E+03 0.  0.
<mgrwt>
<rscale>  0 0.65469153E+03</rscale>
<asrwt>0</asrwt>
<pdfrwt beam="1">  1        1 0.56199621E+00 0.76275937E+03</pdfrwt>
<pdfrwt beam="2">  1       -1 0.17643592E-01 0.76275937E+03</pdfrwt>
<totfact> 0.51308964E+00</totfact>
</mgrwt>
</event>
<event>
 4    1  0.2514307E-008  0.7805497E+03  0.7818608E-02  0.9754547E-01
          1   -1    0    0  501    0  0.00000000000E+00  0.00000000000E+00  0.19676409903E+04  0.19676409903E+04  0.50400000000E-02 0. -1.
         -1   -1    0    0    0  501 -0.00000000000E+00 -0.00000000000E+00 -0.74180357327E+03  0.74180357329E+03  0.50400000000E-02 0.  1.
    8880023    1    1    2    0    0 -0.90876429048E+02  0.40888761815E+03 -0.49997980253E+03  0.92695071003E+03  0.65864270000E+03 0.  1.
    8880022    1    1    2    0    0  0.90876429048E+02 -0.40888761815E+03  0.17258172196E+04  0.17824938536E+04  0.15294330000E+03 0.  0.
<mgrwt>
<rscale>  0 0.67859895E+03</rscale>
<asrwt>0</asrwt>
<pdfrwt beam="1">  1        1 0.30271399E+00 0.78054969E+03</pdfrwt>
<pdfrwt beam="2">  1       -1 0.11412363E+00 0.78054969E+03</pdfrwt>
<totfact> 0.22949063E+00</totfact>
</mgrwt>
</event>
<event>
 4    1  0.2514307E-008  0.9796857E+03  0.7818608E-02  0.9408631E-01
         -1   -1    0    0    0  501 -0.00000000000E+00  0.00000000000E+00  0.72652058286E+03  0.72652058288E+03  0.50400000000E-02 0.  1.
          1   -1    0    0  501    0  0.00000000000E+00 -0.00000000000E+00 -0.10236536133E+04  0.10236536133E+04  0.50400000000E-02 0. -1.
    8880023    1    1    2    0    0  0.69879687424E+03 -0.19405360575E+03 -0.22723471151E+03  0.10056936381E+04  0.65864270000E+03 0.  1.
    8880022    1    1    2    0    0 -0.69879687424E+03  0.19405360575E+03 -0.69898318921E+02  0.74448055808E+03  0.15294330000E+03 0.  0.
<mgrwt>
<rscale>  0 0.91368765E+03</rscale>
<asrwt>0</asrwt>
<pdfrwt beam="1">  1        1 0.15748517E+00 0.97968570E+03</pdfrwt>
<pdfrwt beam="2">  1       -1 0.11177240E+00 0.97968570E+03</pdfrwt>
<totfact> 0.10706211E+01</totfact>
</mgrwt>
</event>
<event>
 4    1  0.2514307E-008  0.1127032E+04  0.7818608E-02  0.9231540E-01
          1   -1    0    0  501    0  0.00000000000E+00  0.00000000000E+00  0.49484099283E+04  0.49484099283E+04  0.50400000000E-02 0. -1.
         -1   -1    0    0    0  501 -0.00000000000E+00 -0.00000000000E+00 -0.22575187838E+03  0.22575187844E+03  0.50400000000E-02 0.  1.
    8880023    1    1    2    0    0 -0.17512865371E+03 -0.89761909165E+03  0.19709717225E+04  0.22704470521E+04  0.65864270000E+03 0.  0.
    8880022    1    1    2    0    0  0.17512865371E+03  0.89761909165E+03  0.27516863274E+04  0.29037147546E+04  0.15294330000E+03 0.  0.
<mgrwt>
<rscale>  0 0.10733728E+04</rscale>
<asrwt>0</asrwt>
<pdfrwt beam="1">  1        1 0.76129380E+00 0.11270316E+04</pdfrwt>
<pdfrwt beam="2">  1       -1 0.34731060E-01 0.11270316E+04</pdfrwt>
<totfact> 0.84280978E-02</totfact>
</mgrwt>
</event>
<event>
 4    1  0.2514307E-008  0.1000011E+04  0.7818608E-02  0.9381543E-01
         -1   -1    0    0    0  501 -0.00000000000E+00  0.00000000000E+00  0.99199419396E+03  0.99199419398E+03  0.50400000000E-02 0.  1.
          1   -1    0    0  501    0  0.00000000000E+00 -0.00000000000E+00 -0.91723553625E+03  0.91723553627E+03  0.50400000000E-02 0. -1.
    8880023    1    1    2    0    0 -0.70050689226E+03  0.27477661981E+03  0.39774617749E+03  0.10762083092E+04  0.65864270000E+03 0.  1.
    8880022    1    1    2    0    0  0.70050689226E+03 -0.27477661981E+03 -0.32298751978E+03  0.83302142100E+03  0.15294330000E+03 0.  0.
<mgrwt>
<rscale>  0 0.93610305E+03</rscale>
<asrwt>0</asrwt>
<pdfrwt beam="1">  1        1 0.14111316E+00 0.10000112E+04</pdfrwt>
<pdfrwt beam="2">  1       -1 0.15261449E+00 0.10000112E+04</pdfrwt>
<totfact> 0.58793114E+00</totfact>
</mgrwt>
</event>
<event>
 4    1  0.2514307E-008  0.9443381E+03  0.7818608E-02  0.9458307E-01
         -1   -1    0    0    0  501 -0.00000000000E+00  0.00000000000E+00  0.78681736596E+03  0.78681736598E+03  0.50400000000E-02 0.  1.
          1   -1    0    0  501    0  0.00000000000E+00 -0.00000000000E+00 -0.20017948359E+04  0.20017948359E+04  0.50400000000E-02 0. -1.
    8880023    1    1    2    0    0 -0.58049097248E+03  0.34784267221E+03  0.40408327462E+03  0.10271600619E+04  0.65864270000E+03 0.  0.
    8880022    1    1    2    0    0  0.58049097248E+03 -0.34784267221E+03 -0.16190607445E+04  0.17614521399E+04  0.15294330000E+03 0.  0.
<mgrwt>
<rscale>  0 0.87428683E+03</rscale>
<asrwt>0</asrwt>
<pdfrwt beam="1">  1        1 0.30796843E+00 0.94433813E+03</pdfrwt>
<pdfrwt beam="2">  1       -1 0.12104883E+00 0.94433813E+03</pdfrwt>
<totfact> 0.18359149E+00</totfact>
</mgrwt>
</event>
<event>
 4    1  0.2514307E-008  0.8053992E+03  0.7818608E-02  0.9699241E-01
          1   -1    0    0  501    0  0.00000000000E+00  0.00000000000E+00  0.15972067553E+04  0.15972067553E+04  0.50400000000E-02 0. -1.
         -1   -1    0    0    0  501 -0.00000000000E+00 -0.00000000000E+00 -0.38241368386E+03  0.38241368389E+03  0.50400000000E-02 0.  1.
    8880023    1    1    2    0    0 -0.46274229695E+03  0.26968392907E+02  0.16532063685E+03  0.82219149037E+03  0.65864270000E+03 0.  1.
    8880022    1    1    2    0    0  0.46274229695E+03 -0.26968392907E+02  0.10494724346E+04  0.11574289489E+04  0.15294330000E+03 0. -1.
<mgrwt>
<rscale>  0 0.71061993E+03</rscale>
<asrwt>0</asrwt>
<pdfrwt beam="1">  1        1 0.24572412E+00 0.80539924E+03</pdfrwt>
<pdfrwt beam="2">  1       -1 0.58832874E-01 0.80539924E+03</pdfrwt>
<totfact> 0.16891338E+01</totfact>
</mgrwt>
</event>
<event>
 4    1  0.2514307E-008  0.8767757E+03  0.7818608E-02  0.9564392E-01
          1   -1    0    0  501    0  0.00000000000E+00  0.00000000000E+00  0.76712777468E+03  0.76712777469E+03  0.50400000000E-02 0. -1.
         -1   -1    0    0    0  501 -0.00000000000E+00 -0.00000000000E+00 -0.78126065831E+03  0.78126065833E+03  0.50400000000E-02 0.  1.
    8880023    1    1    2    0    0  0.57689688780E+03 -0.45994455118E+02 -0.23929711206E+03  0.90884477396E+03  0.65864270000E+03 0.  0.
    8880022    1    1    2    0    0 -0.57689688780E+03  0.45994455118E+02  0.22516422843E+03  0.63954365906E+03  0.15294330000E+03 0.  0.
<mgrwt>
<rscale>  0 0.79698445E+03</rscale>
<asrwt>0</asrwt>
<pdfrwt beam="1">  1        1 0.11801966E+00 0.87677575E+03</pdfrwt>
<pdfrwt beam="2">  1       -1 0.12019395E+00 0.87677575E+03</pdfrwt>
<totfact> 0.14783904E+01</totfact>
</mgrwt>
</event>
<event>
 4    1  0.2514307E-008  0.7502213E+03  0.7818608E-02  0.9831115E-01
          1   -1    0    0  501    0  0.00000000000E+00  0.00000000000E+00  0.31538233043E+03  0.31538233047E+03  0.50400000000E-02 0. -1.
         -1   -1    0    0    0  501 -0.00000000000E+00 -0.00000000000E+00 -0.15013510671E+04  0.15013510671E+04  0.50400000000E-02 0.  1.
    8880023    1    1    2    0    0  0.91259375703E+02 -0.34740964508E+03 -0.23089464949E+03  0.78494858467E+03  0.65864270000E+03 0.  0.
    8880022    1    1    2    0    0 -0.91259375703E+02  0.34740964508E+03 -0.95507408719E+03  0.10317848129E+04  0.15294330000E+03 0.  0.
<mgrwt>
<rscale>  0 0.63719141E+03</rscale>
<asrwt>0</asrwt>
<pdfrwt beam="1">  1        1 0.48520359E-01 0.75022126E+03</pdfrwt>
<pdfrwt beam="2">  1       -1 0.23097708E+00 0.75022126E+03</pdfrwt>
<totfact> 0.79022603E+00</totfact>
</mgrwt>
</event>
<event>
 4    1  0.2514307E-008  0.1669901E+04  0.7818608E-02  0.8798136E-01
         -1   -1    0    0    0  501 -0.00000000000E+00  0.00000000000E+00  0.86717281482E+03  0.86717281484E+03  0.50400000000E-02 0.  1.
          1   -1    0    0  501    0  0.00000000000E+00 -0.00000000000E+00 -0.35599006591E+04  0.35599006591E+04  0.50400000000E-02 0. -1.
    8880023    1    1    2    0    0 -0.15217945302E+04  0.19723627652E+03 -0.22882543499E+04  0.28327864228E+04  0.65864270000E+03 0.  0.
    8880022    1    1    2    0    0  0.15217945302E+04 -0.19723627652E+03 -0.40447349428E+03  0.15942870511E+04  0.15294330000E+03 0.  0.
<mgrwt>
<rscale>  0 0.16369978E+04</rscale>
<asrwt>0</asrwt>
<pdfrwt beam="1">  1        1 0.54767702E+00 0.16699015E+04</pdfrwt>
<pdfrwt beam="2">  1       -1 0.13341120E+00 0.16699015E+04</pdfrwt>
<totfact> 0.99830522E-02</totfact>
</mgrwt>
</event>
<event>
 4    1  0.2514307E-008  0.7156029E+03  0.7818608E-02  0.9937755E-01
          1   -1    0    0  501    0  0.00000000000E+00  0.00000000000E+00  0.10278268464E+04  0.10278268464E+04  0.50400000000E-02 0. -1.
         -1   -1    0    0    0  501 -0.00000000000E+00 -0.00000000000E+00 -0.53855089472E+03  0.53855089475E+03  0.50400000000E-02 0.  1.
    8880023    1    1    2    0    0  0.15818753674E+02  0.27933313979E+03 -0.25260432170E+03  0.75887837336E+03  0.65864270000E+03 0.  1.
    8880022    1    1    2    0    0 -0.15818753674E+02 -0.27933313979E+03  0.74188027337E+03  0.80749936779E+03  0.15294330000E+03 0.  0.
<mgrwt>
<rscale>  0 0.58465889E+03</rscale>
<asrwt>0</asrwt>
<pdfrwt beam="1">  1        1 0.15812721E+00 0.71560285E+03</pdfrwt>
<pdfrwt beam="2">  1       -1 0.82853984E-01 0.71560285E+03</pdfrwt>
<totfact> 0.21523977E+01</totfact>
</mgrwt>
</event>
<event>
 4    1  0.2514307E-008  0.7904749E+03  0.7818608E-02  0.9731783E-01
          1   -1    0    0  501    0  0.00000000000E+00  0.00000000000E+00  0.19727395170E+04  0.19727395170E+04  0.50400000000E-02 0. -1.
         -1   -1    0    0    0  501 -0.00000000000E+00 -0.00000000000E+00 -0.39229410595E+03  0.39229410598E+03  0.50400000000E-02 0.  1.
    8880023    1    1    2    0    0  0.40590398982E+03  0.16211801103E+03  0.79714224018E+02  0.79448402263E+03  0.65864270000E+03 0.  0.
    8880022    1    1    2    0    0 -0.40590398982E+03 -0.16211801103E+03  0.15007311871E+04  0.15705496004E+04  0.15294330000E+03 0.  0.
<mgrwt>
<rscale>  0 0.69155581E+03</rscale>
<asrwt>0</asrwt>
<pdfrwt beam="1">  1        1 0.30349840E+00 0.79047486E+03</pdfrwt>
<pdfrwt beam="2">  1       -1 0.60352938E-01 0.79047486E+03</pdfrwt>
<totfact> 0.89996109E+00</totfact>
</mgrwt>
</event>
<event>
 4    1  0.2514307E-008  0.8559384E+03  0.7818608E-02  0.9600830E-01
         -1   -1    0    0    0  501 -0.00000000000E+00  0.00000000000E+00  0.10324768621E+04  0.10324768621E+04  0.50400000000E-02 0.  1.
          1   -1    0    0  501    0  0.00000000000E+00 -0.00000000000E+00 -0.14834185092E+04  0.14834185092E+04  0.50400000000E-02 0. -1.
    8880023    1    1    2    0    0 -0.47713323452E+03  0.26676615664E+03  0.78148445728E+03  0.11590291062E+04  0.65864270000E+03 0.  1.
    8880022    1    1    2    0    0  0.47713323452E+03 -0.26676615664E+03 -0.12324261044E+04  0.13568662652E+04  0.15294330000E+03 0.  0.
<mgrwt>
<rscale>  0 0.77241301E+03</rscale>
<asrwt>0</asrwt>
<pdfrwt beam="1">  1        1 0.22821823E+00 0.85593838E+03</pdfrwt>
<pdfrwt beam="2">  1       -1 0.15884259E+00 0.85593838E+03</pdfrwt>
<totfact> 0.20583443E+00</totfact>
</mgrwt>
</event>
<event>
 4    1  0.2514307E-008  0.8782562E+03  0.7818608E-02  0.9561880E-01
         -1   -1    0    0    0  501 -0.00000000000E+00  0.00000000000E+00  0.12119379074E+04  0.12119379074E+04  0.50400000000E-02 0.  1.
          1   -1    0    0  501    0  0.00000000000E+00 -0.00000000000E+00 -0.73669350371E+03  0.73669350373E+03  0.50400000000E-02 0. -1.
    8880023    1    1    2    0    0  0.39446188353E+03  0.42652490157E+03  0.86484724881E+03  0.12325967058E+04  0.65864270000E+03 0.  1.
    8880022    1    1    2    0    0 -0.39446188353E+03 -0.42652490157E+03 -0.38960284514E+03  0.71603470528E+03  0.15294330000E+03 0.  0.
<mgrwt>
<rscale>  0 0.79871450E+03</rscale>
<asrwt>0</asrwt>
<pdfrwt beam="1">  1        1 0.11333746E+00 0.87825616E+03</pdfrwt>
<pdfrwt beam="2">  1       -1 0.18645198E+00 0.87825616E+03</pdfrwt>
<totfact> 0.47986519E+00</totfact>
</mgrwt>
</event>
<event>
 4    1  0.2514307E-008  0.7600875E+03  0.7818608E-02  0.9804881E-01
          1   -1    0    0  501    0  0.00000000000E+00  0.00000000000E+00  0.96124515563E+03  0.96124515564E+03  0.50400000000E-02 0. -1.
         -1   -1    0    0    0  501 -0.00000000000E+00 -0.00000000000E+00 -0.69431679634E+03  0.69431679636E+03  0.50400000000E-02 0.  1.
    8880023    1    1    2    0    0  0.17195613126E+03 -0.33816255646E+03 -0.41077434411E+03  0.86398413973E+03  0.65864270000E+03 0.  1.
    8880022    1    1    2    0    0 -0.17195613126E+03  0.33816255646E+03  0.67770270340E+03  0.79157781227E+03  0.15294330000E+03 0.  0.
<mgrwt>
<rscale>  0 0.65101259E+03</rscale>
<asrwt>0</asrwt>
<pdfrwt beam="1">  1        1 0.14788387E+00 0.76008752E+03</pdfrwt>
<pdfrwt beam="2">  1       -1 0.10681797E+00 0.76008752E+03</pdfrwt>
<totfact> 0.13668071E+01</totfact>
</mgrwt>
</event>
<event>
 4    1  0.2514307E-008  0.6958538E+03  0.7818608E-02  0.1001486E+00
          1   -1    0    0  501    0  0.00000000000E+00  0.00000000000E+00  0.16680216379E+04  0.16680216379E+04  0.50400000000E-02 0. -1.
         -1   -1    0    0    0  501 -0.00000000000E+00 -0.00000000000E+00 -0.24029401085E+03  0.24029401090E+03  0.50400000000E-02 0.  1.
    8880023    1    1    2    0    0 -0.10390928826E+03 -0.19901060791E+03  0.31665196621E+03  0.76451359453E+03  0.65864270000E+03 0.  0.
    8880022    1    1    2    0    0  0.10390928826E+03  0.19901060791E+03  0.11110756608E+04  0.11438020543E+04  0.15294330000E+03 0.  0.
<mgrwt>
<rscale>  0 0.55003606E+03</rscale>
<asrwt>0</asrwt>
<pdfrwt beam="1">  1        1 0.25661871E+00 0.69585384E+03</pdfrwt>
<pdfrwt beam="2">  1       -1 0.36968310E-01 0.69585384E+03</pdfrwt>
<totfact> 0.36619157E+01</totfact>
</mgrwt>
</event>
<event>
 4    1  0.2514307E-008  0.8931005E+03  0.7818608E-02  0.9537199E-01
         -1   -1    0    0    0  501 -0.00000000000E+00  0.00000000000E+00  0.10255289048E+04  0.10255289048E+04  0.50400000000E-02 0.  1.
          1   -1    0    0  501    0  0.00000000000E+00 -0.00000000000E+00 -0.24154522602E+04  0.24154522602E+04  0.50400000000E-02 0. -1.
    8880023    1    1    2    0    0 -0.66122543256E+02 -0.59953827864E+03  0.77866410689E+03  0.11848824144E+04  0.65864270000E+03 0.  0.
    8880022    1    1    2    0    0  0.66122543256E+02  0.59953827864E+03 -0.21685874622E+04  0.22560987506E+04  0.15294330000E+03 0.  0.
<mgrwt>
<rscale>  0 0.81595945E+03</rscale>
<asrwt>0</asrwt>
<pdfrwt beam="1">  1        1 0.37160804E+00 0.89310052E+03</pdfrwt>
<pdfrwt beam="2">  1       -1 0.15777368E+00 0.89310052E+03</pdfrwt>
<totfact> 0.48873205E-01</totfact>
</mgrwt>
</event>
<event>
 4    1  0.2514307E-008  0.7034533E+03  0.7818608E-02  0.9983166E-01
          1   -1    0    0  501    0  0.00000000000E+00  0.00000000000E+00  0.47363820332E+03  0.47363820335E+03  0.50400000000E-02 0. -1.
         -1   -1    0    0    0  501 -0.00000000000E+00 -0.00000000000E+00 -0.69743603746E+03  0.69743603748E+03  0.50400000000E-02 0.  1.
    8880023    1    1    2    0    0  0.77600658165E+02 -0.23455174246E+03 -0.42109294745E+03  0.81985721848E+03  0.65864270000E+03 0.  1.
    8880022    1    1    2    0    0 -0.77600658165E+02  0.23455174246E+03  0.19729511331E+03  0.35121702235E+03  0.15294330000E+03 0.  0.
<mgrwt>
<rscale>  0 0.56394572E+03</rscale>
<asrwt>0</asrwt>
<pdfrwt beam="1">  1        1 0.72867416E-01 0.70345333E+03</pdfrwt>
<pdfrwt beam="2">  1       -1 0.10729785E+00 0.70345333E+03</pdfrwt>
<totfact> 0.39679976E+01</totfact>
</mgrwt>
</event>
<event>
 4    1  0.2514307E-008  0.1370136E+04  0.7818608E-02  0.9007242E-01
         -1   -1    0    0    0  501 -0.00000000000E+00  0.00000000000E+00  0.82550757981E+03  0.82550757983E+03  0.50400000000E-02 0.  1.
          1   -1    0    0  501    0  0.00000000000E+00 -0.00000000000E+00 -0.30787782734E+04  0.30787782734E+04  0.50400000000E-02 0. -1.
    8880023    1    1    2    0    0  0.10944225225E+04 -0.49568409623E+03 -0.27590805452E+02  0.13704141125E+04  0.65864270000E+03 0.  0.
    8880022    1    1    2    0    0 -0.10944225225E+04  0.49568409623E+03 -0.22256798882E+04  0.25338717407E+04  0.15294330000E+03 0.  0.
<mgrwt>
<rscale>  0 0.13285296E+04</rscale>
<asrwt>0</asrwt>
<pdfrwt beam="1">  1        1 0.47365819E+00 0.13701363E+04</pdfrwt>
<pdfrwt beam="2">  1       -1 0.12700117E+00 0.13701363E+04</pdfrwt>
<totfact> 0.27334732E-01</totfact>
</mgrwt>
</event>
<event>
 4    1  0.2514307E-008  0.6931799E+03  0.7818608E-02  0.1002676E+00
          1   -1    0    0  501    0  0.00000000000E+00  0.00000000000E+00  0.11763380195E+04  0.11763380195E+04  0.50400000000E-02 0. -1.
         -1   -1    0    0    0  501 -0.00000000000E+00 -0.00000000000E+00 -0.28545849921E+03  0.28545849925E+03  0.50400000000E-02 0.  1.
    8880023    1    1    2    0    0  0.20414075884E+03 -0.70814737592E+02  0.19926990548E+03  0.72125368489E+03  0.65864270000E+03 0.  1.
    8880022    1    1    2    0    0 -0.20414075884E+03  0.70814737592E+02  0.69160961477E+03  0.74054283383E+03  0.15294330000E+03 0.  0.
<mgrwt>
<rscale>  0 0.54492107E+03</rscale>
<asrwt>0</asrwt>
<pdfrwt beam="1">  1        1 0.18097508E+00 0.69317991E+03</pdfrwt>
<pdfrwt beam="2">  1       -1 0.43916692E-01 0.69317991E+03</pdfrwt>
<totfact> 0.58723869E+01</totfact>
</mgrwt>
</event>
<event>
 4    1  0.2514307E-008  0.8274990E+03  0.7818608E-02  0.9654218E-01
          1   -1    0    0  501    0  0.00000000000E+00  0.00000000000E+00  0.10609912715E+04  0.10609912715E+04  0.50400000000E-02 0. -1.
         -1   -1    0    0    0  501 -0.00000000000E+00 -0.00000000000E+00 -0.10923141538E+04  0.10923141538E+04  0.50400000000E-02 0.  1.
    8880023    1    1    2    0    0 -0.40832040223E+03 -0.29020478501E+03 -0.84687939795E+03  0.11840436179E+04  0.65864270000E+03 0.  0.
    8880022    1    1    2    0    0  0.40832040223E+03  0.29020478501E+03  0.81555651565E+03  0.96926180744E+03  0.15294330000E+03 0.  0.
<mgrwt>
<rscale>  0 0.73809278E+03</rscale>
<asrwt>0</asrwt>
<pdfrwt beam="1">  1        1 0.16322943E+00 0.82749899E+03</pdfrwt>
<pdfrwt beam="2">  1       -1 0.16804833E+00 0.82749899E+03</pdfrwt>
<totfact> 0.35449026E+00</totfact>
</mgrwt>
</event>
<event>
 4    1  0.2514307E-008  0.8078481E+03  0.7818608E-02  0.9694077E-01
          1   -1    0    0  501    0  0.00000000000E+00  0.00000000000E+00  0.12075011586E+04  0.12075011586E+04  0.50400000000E-02 0. -1.
         -1   -1    0    0    0  501 -0.00000000000E+00 -0.00000000000E+00 -0.69484098692E+03  0.69484098694E+03  0.50400000000E-02 0.  1.
    8880023    1    1    2    0    0  0.44308816456E+03 -0.14993725872E+03 -0.37248221201E+03  0.88958501991E+03  0.65864270000E+03 0.  0.
    8880022    1    1    2    0    0 -0.44308816456E+03  0.14993725872E+03  0.88514238366E+03  0.10127571256E+04  0.15294330000E+03 0. -1.
<mgrwt>
<rscale>  0 0.71370547E+03</rscale>
<asrwt>0</asrwt>
<pdfrwt beam="1">  1        1 0.18576941E+00 0.80784807E+03</pdfrwt>
<pdfrwt beam="2">  1       -1 0.10689861E+00 0.80784807E+03</pdfrwt>
<totfact> 0.88464817E+00</totfact>
</mgrwt>
</event>
<event>
 4    1  0.2514307E-008  0.7596204E+03  0.7818608E-02  0.9806091E-01
         -1   -1    0    0    0  501 -0.00000000000E+00  0.00000000000E+00  0.82869069622E+03  0.82869069624E+03  0.50400000000E-02 0.  1.
          1   -1    0    0  501    0  0.00000000000E+00 -0.00000000000E+00 -0.51052480329E+03  0.51052480332E+03  0.50400000000E-02 0. -1.
    8880023    1    1    2    0    0  0.34928559595E+03 -0.14564524468E+03  0.48172797079E+03  0.89949152800E+03  0.65864270000E+03 0.  0.
    8880022    1    1    2    0    0 -0.34928559595E+03  0.14564524468E+03 -0.16356207786E+03  0.43972397156E+03  0.15294330000E+03 0. -1.
<mgrwt>
<rscale>  0 0.65036678E+03</rscale>
<asrwt>0</asrwt>
<pdfrwt beam="1">  1        1 0.78542278E-01 0.75962041E+03</pdfrwt>
<pdfrwt beam="2">  1       -1 0.12749088E+00 0.75962041E+03</pdfrwt>
<totfact> 0.23491738E+01</totfact>
</mgrwt>
</event>
<event>
 4    1  0.2514307E-008  0.1227508E+04  0.7818608E-02  0.9130835E-01
         -1   -1    0    0    0  501 -0.00000000000E+00  0.00000000000E+00  0.60766356471E+03  0.60766356474E+03  0.50400000000E-02 0.  1.
          1   -1    0    0  501    0  0.00000000000E+00 -0.00000000000E+00 -0.21857690301E+04  0.21857690301E+04  0.50400000000E-02 0. -1.
    8880023    1    1    2    0    0 -0.55144713611E+03 -0.87685376477E+03 -0.62467117976E+03  0.13773128758E+04  0.65864270000E+03 0.  1.
    8880022    1    1    2    0    0  0.55144713611E+03  0.87685376477E+03 -0.95343428565E+03  0.14161197191E+04  0.15294330000E+03 0.  0.
<mgrwt>
<rscale>  0 0.11796750E+04</rscale>
<asrwt>0</asrwt>
<pdfrwt beam="1">  1        1 0.33627216E+00 0.12275083E+04</pdfrwt>
<pdfrwt beam="2">  1       -1 0.93486703E-01 0.12275083E+04</pdfrwt>
<totfact> 0.24354651E+00</totfact>
</mgrwt>
</event>
<event>
 4    1  0.2514307E-008  0.8264047E+03  0.7818608E-02  0.9656369E-01
         -1   -1    0    0    0  501 -0.00000000000E+00  0.00000000000E+00  0.36474820270E+03  0.36474820274E+03  0.50400000000E-02 0.  1.
          1   -1    0    0  501    0  0.00000000000E+00 -0.00000000000E+00 -0.17382067979E+04  0.17382067979E+04  0.50400000000E-02 0. -1.
    8880023    1    1    2    0    0 -0.22518775310E+03  0.44544922882E+03 -0.24880367580E+03  0.86304577802E+03  0.65864270000E+03 0.  1.
    8880022    1    1    2    0    0  0.22518775310E+03 -0.44544922882E+03 -0.11246549194E+04  0.12399092226E+04  0.15294330000E+03 0.  0.
<mgrwt>
<rscale>  0 0.73675081E+03</rscale>
<asrwt>0</asrwt>
<pdfrwt beam="1">  1        1 0.26741643E+00 0.82640471E+03</pdfrwt>
<pdfrwt beam="2">  1       -1 0.56115109E-01 0.82640471E+03</pdfrwt>
<totfact> 0.14835301E+01</totfact>
</mgrwt>
</event>
<event>
 4    1  0.2514307E-008  0.1025461E+04  0.7818608E-02  0.9348980E-01
          1   -1    0    0  501    0  0.00000000000E+00  0.00000000000E+00  0.25205651561E+04  0.25205651561E+04  0.50400000000E-02 0. -1.
         -1   -1    0    0    0  501 -0.00000000000E+00 -0.00000000000E+00 -0.66921920472E+03  0.66921920474E+03  0.50400000000E-02 0.  1.
    8880023    1    1    2    0    0  0.47178081133E+03  0.62863577685E+03 -0.14797410036E+03  0.10360823396E+04  0.65864270000E+03 0.  0.
    8880022    1    1    2    0    0 -0.47178081133E+03 -0.62863577685E+03  0.19993200517E+04  0.21537020212E+04  0.15294330000E+03 0.  0.
<mgrwt>
<rscale>  0 0.96396101E+03</rscale>
<asrwt>0</asrwt>
<pdfrwt beam="1">  1        1 0.38777925E+00 0.10254610E+04</pdfrwt>
<pdfrwt beam="2">  1       -1 0.10295680E+00 0.10254610E+04</pdfrwt>
<totfact> 0.11855766E+00</totfact>
</mgrwt>
</event>
<event>
 4    1  0.2514307E-008  0.1381314E+04  0.7818608E-02  0.8998340E-01
         -1   -1    0    0    0  501 -0.00000000000E+00  0.00000000000E+00  0.94544428842E+03  0.94544428844E+03  0.50400000000E-02 0.  1.
          1   -1    0    0  501    0  0.00000000000E+00 -0.00000000000E+00 -0.30747076956E+04  0.30747076956E+04  0.50400000000E-02 0. -1.
    8880023    1    1    2    0    0 -0.33977986154E+03  0.11656620231E+04  0.19343044495E+03  0.13947916868E+04  0.65864270000E+03 0.  1.
    8880022    1    1    2    0    0  0.33977986154E+03 -0.11656620231E+04 -0.23226938521E+04  0.26253602972E+04  0.15294330000E+03 0.  0.
<mgrwt>
<rscale>  0 0.13401215E+04</rscale>
<asrwt>0</asrwt>
<pdfrwt beam="1">  1        1 0.47303195E+00 0.13813141E+04</pdfrwt>
<pdfrwt beam="2">  1       -1 0.14545297E+00 0.13813141E+04</pdfrwt>
<totfact> 0.19324060E-01</totfact>
</mgrwt>
</event>
<event>
 4    1  0.2514307E-008  0.1135506E+04  0.7818608E-02  0.9222517E-01
          1   -1    0    0  501    0  0.00000000000E+00  0.00000000000E+00  0.12513281764E+04  0.12513281764E+04  0.50400000000E-02 0. -1.
         -1   -1    0    0    0  501 -0.00000000000E+00 -0.00000000000E+00 -0.11981909799E+04  0.11981909799E+04  0.50400000000E-02 0.  1.
    8880023    1    1    2    0    0 -0.47273471917E+03  0.79503847517E+03 -0.62152497088E+03  0.12944758736E+04  0.65864270000E+03 0.  1.
    8880022    1    1    2    0    0  0.47273471917E+03 -0.79503847517E+03  0.67466216740E+03  0.11550432827E+04  0.15294330000E+03 0. -1.
<mgrwt>
<rscale>  0 0.10824006E+04</rscale>
<asrwt>0</asrwt>
<pdfrwt beam="1">  1        1 0.19251203E+00 0.11355063E+04</pdfrwt>
<pdfrwt beam="2">  1       -1 0.18433707E+00 0.11355063E+04</pdfrwt>
<totfact> 0.18760924E+00</totfact>
</mgrwt>
</event>
<event>
 4    1  0.2514307E-008  0.6894133E+03  0.7818608E-02  0.1004433E+00
         -1   -1    0    0    0  501 -0.00000000000E+00  0.00000000000E+00  0.18248922502E+03  0.18248922509E+03  0.50400000000E-02 0.  1.
          1   -1    0    0  501    0  0.00000000000E+00 -0.00000000000E+00 -0.13519513524E+04  0.13519513524E+04  0.50400000000E-02 0. -1.
    8880023    1    1    2    0    0 -0.73739417590E+02  0.18984981799E+03 -0.61328841245E+03  0.92272061764E+03  0.65864270000E+03 0.  1.
    8880022    1    1    2    0    0  0.73739417590E+02 -0.18984981799E+03 -0.55617371496E+03  0.61171995988E+03  0.15294330000E+03 0. -1.
<mgrwt>
<rscale>  0 0.53748578E+03</rscale>
<asrwt>0</asrwt>
<pdfrwt beam="1">  1        1 0.20799251E+00 0.68941327E+03</pdfrwt>
<pdfrwt beam="2">  1       -1 0.28075266E-01 0.68941327E+03</pdfrwt>
<totfact> 0.97771609E+01</totfact>
</mgrwt>
</event>
<event>
 4    1  0.2514307E-008  0.7379154E+03  0.7818608E-02  0.9866062E-01
         -1   -1    0    0    0  501 -0.00000000000E+00  0.00000000000E+00  0.13722417700E+04  0.13722417700E+04  0.50400000000E-02 0.  1.
          1   -1    0    0  501    0  0.00000000000E+00 -0.00000000000E+00 -0.12165012745E+04  0.12165012745E+04  0.50400000000E-02 0. -1.
    8880023    1    1    2    0    0  0.16770762047E+03 -0.28737262081E+03  0.12407518108E+04  0.14436010985E+04  0.65864270000E+03 0.  1.
    8880022    1    1    2    0    0 -0.16770762047E+03  0.28737262081E+03 -0.10850113153E+04  0.11451419460E+04  0.15294330000E+03 0.  0.
<mgrwt>
<rscale>  0 0.61934655E+03</rscale>
<asrwt>0</asrwt>
<pdfrwt beam="1">  1        1 0.18715404E+00 0.73791536E+03</pdfrwt>
<pdfrwt beam="2">  1       -1 0.21111412E+00 0.73791536E+03</pdfrwt>
<totfact> 0.13799511E+00</totfact>
</mgrwt>
</event>
<event>
 4    1  0.2514307E-008  0.1173995E+04  0.7818608E-02  0.9182824E-01
          1   -1    0    0  501    0  0.00000000000E+00  0.00000000000E+00  0.94831572161E+03  0.94831572162E+03  0.50400000000E-02 0. -1.
         -1   -1    0    0    0  501 -0.00000000000E+00 -0.00000000000E+00 -0.32910665244E+04  0.32910665244E+04  0.50400000000E-02 0.  1.
    8880023    1    1    2    0    0 -0.85051280328E+03  0.47019481324E+03 -0.28859408215E+04  0.31155930129E+04  0.65864270000E+03 0.  1.
    8880022    1    1    2    0    0  0.85051280328E+03 -0.47019481324E+03  0.54319001869E+03  0.11237892331E+04  0.15294330000E+03 0.  0.
<mgrwt>
<rscale>  0 0.11232480E+04</rscale>
<asrwt>0</asrwt>
<pdfrwt beam="1">  1        1 0.14589473E+00 0.11739955E+04</pdfrwt>
<pdfrwt beam="2">  1       -1 0.50631792E+00 0.11739955E+04</pdfrwt>
<totfact> 0.22278360E-02</totfact>
</mgrwt>
</event>
<event>
 4    1  0.2514307E-008  0.6838829E+03  0.7818608E-02  0.1007207E+00
         -1   -1    0    0    0  501 -0.00000000000E+00  0.00000000000E+00  0.14602838501E+04  0.14602838501E+04  0.50400000000E-02 0.  1.
          1   -1    0    0  501    0  0.00000000000E+00 -0.00000000000E+00 -0.13057599449E+04  0.13057599449E+04  0.50400000000E-02 0. -1.
    8880023    1    1    2    0    0  0.12387169297E+03  0.13616707159E+03  0.13678795971E+04  0.15293104544E+04  0.65864270000E+03 0.  1.
    8880022    1    1    2    0    0 -0.12387169297E+03 -0.13616707159E+03 -0.12133556918E+04  0.12367333406E+04  0.15294330000E+03 0.  0.
<mgrwt>
<rscale>  0 0.52599809E+03</rscale>
<asrwt>0</asrwt>
<pdfrwt beam="1">  1        1 0.20088614E+00 0.68388294E+03</pdfrwt>
<pdfrwt beam="2">  1       -1 0.22465905E+00 0.68388294E+03</pdfrwt>
<totfact> 0.98003558E-01</totfact>
</mgrwt>
</event>
<event>
 4    1  0.2514307E-008  0.1243301E+04  0.7818608E-02  0.9116138E-01
         -1   -1    0    0    0  501 -0.00000000000E+00  0.00000000000E+00  0.77547691885E+03  0.77547691887E+03  0.50400000000E-02 0.  1.
          1   -1    0    0  501    0  0.00000000000E+00 -0.00000000000E+00 -0.19679638361E+04  0.19679638361E+04  0.50400000000E-02 0. -1.
    8880023    1    1    2    0    0  0.87153952870E+03  0.59363888877E+03 -0.14925382945E+03  0.12522280911E+04  0.65864270000E+03 0.  0.
    8880022    1    1    2    0    0 -0.87153952870E+03 -0.59363888877E+03 -0.10432330878E+04  0.14912126639E+04  0.15294330000E+03 0.  0.
<mgrwt>
<rscale>  0 0.11962583E+04</rscale>
<asrwt>0</asrwt>
<pdfrwt beam="1">  1        1 0.30276366E+00 0.12433014E+04</pdfrwt>
<pdfrwt beam="2">  1       -1 0.11930414E+00 0.12433014E+04</pdfrwt>
<totfact> 0.19271031E+00</totfact>
</mgrwt>
</event>
<event>
 4    1  0.2514307E-008  0.7306413E+03  0.7818608E-02  0.9888098E-01
         -1   -1    0    0    0  501 -0.00000000000E+00  0.00000000000E+00  0.48972922684E+03  0.48972922687E+03  0.50400000000E-02 0.  1.
          1   -1    0    0  501    0  0.00000000000E+00 -0.00000000000E+00 -0.75177062328E+03  0.75177062330E+03  0.50400000000E-02 0. -1.
    8880023    1    1    2    0    0 -0.11247757709E+03  0.29559304779E+03  0.99501519808E+02  0.73738539039E+03  0.65864270000E+03 0.  1.
    8880022    1    1    2    0    0  0.11247757709E+03 -0.29559304779E+03 -0.36154291625E+03  0.50411445977E+03  0.15294330000E+03 0.  0.
<mgrwt>
<rscale>  0 0.60841584E+03</rscale>
<asrwt>0</asrwt>
<pdfrwt beam="1">  1        1 0.11565702E+00 0.73064127E+03</pdfrwt>
<pdfrwt beam="2">  1       -1 0.75342958E-01 0.73064127E+03</pdfrwt>
<totfact> 0.44300243E+01</totfact>
</mgrwt>
</event>
<event>
 4    1  0.2514307E-008  0.8452619E+03  0.7818608E-02  0.9620337E-01
         -1   -1    0    0    0  501 -0.00000000000E+00  0.00000000000E+00  0.80576761154E+03  0.80576761155E+03  0.50400000000E-02 0.  1.
          1   -1    0    0  501    0  0.00000000000E+00 -0.00000000000E+00 -0.14849686233E+04  0.14849686233E+04  0.50400000000E-02 0. -1.
    8880023    1    1    2    0    0  0.43949379035E+03 -0.29580854867E+03  0.50487513751E+03  0.98456416752E+03  0.65864270000E+03 0.  1.
    8880022    1    1    2    0    0 -0.43949379035E+03  0.29580854867E+03 -0.11840761492E+04  0.13061720673E+04  0.15294330000E+03 0.  0.
<mgrwt>
<rscale>  0 0.75964633E+03</rscale>
<asrwt>0</asrwt>
<pdfrwt beam="1">  1        1 0.22845671E+00 0.84526191E+03</pdfrwt>
<pdfrwt beam="2">  1       -1 0.12396425E+00 0.84526191E+03</pdfrwt>
<totfact> 0.39318022E+00</totfact>
</mgrwt>
</event>
<event>
 4    1  0.2514307E-008  0.6631117E+03  0.7818608E-02  0.1021173E+00
          1   -1    0    0  501    0  0.00000000000E+00  0.00000000000E+00  0.35699201627E+03  0.35699201631E+03  0.50400000000E-02 0. -1.
         -1   -1    0    0    0  501 -0.00000000000E+00 -0.00000000000E+00 -0.23304222374E+04  0.23304222374E+04  0.50400000000E-02 0.  1.
    8880023    1    1    2    0    0 -0.75228257170E+02  0.15735728552E+02 -0.22590880720E+04  0.23543992922E+04  0.65864270000E+03 0.  1.
    8880022    1    1    2    0    0  0.75228257170E+02 -0.15735728552E+02  0.28565785086E+03  0.33301496153E+03  0.15294330000E+03 0.  0.
<mgrwt>
<rscale>  0 0.47265667E+03</rscale>
<asrwt>0</asrwt>
<pdfrwt beam="1">  1        1 0.54921850E-01 0.66311169E+03</pdfrwt>
<pdfrwt beam="2">  1       -1 0.35852649E+00 0.66311169E+03</pdfrwt>
<totfact> 0.10287725E+00</totfact>
</mgrwt>
</event>
<event>
 4    1  0.2514307E-008  0.7364371E+03  0.7818608E-02  0.9870450E-01
         -1   -1    0    0    0  501 -0.00000000000E+00  0.00000000000E+00  0.22823019102E+03  0.22823019108E+03  0.50400000000E-02 0.  1.
          1   -1    0    0  501    0  0.00000000000E+00 -0.00000000000E+00 -0.18000996346E+04  0.18000996346E+04  0.50400000000E-02 0. -1.
    8880023    1    1    2    0    0 -0.32389226754E+03 -0.60192586644E+02 -0.48354278916E+03  0.88099556393E+03  0.65864270000E+03 0.  0.
    8880022    1    1    2    0    0  0.32389226754E+03  0.60192586644E+02 -0.10883266544E+04  0.11473342618E+04  0.15294330000E+03 0.  0.
<mgrwt>
<rscale>  0 0.61715034E+03</rscale>
<asrwt>0</asrwt>
<pdfrwt beam="1">  1        1 0.27693840E+00 0.73643707E+03</pdfrwt>
<pdfrwt beam="2">  1       -1 0.35112338E-01 0.73643707E+03</pdfrwt>
<totfact> 0.32566926E+01</totfact>
</mgrwt>
</event>
<event>
 4    1  0.2514307E-008  0.8694993E+03  0.7818608E-02  0.9576884E-01
         -1   -1    0    0    0  501 -0.00000000000E+00  0.00000000000E+00  0.88214686355E+03  0.88214686356E+03  0.50400000000E-02 0.  1.
          1   -1    0    0  501    0  0.00000000000E+00 -0.00000000000E+00 -0.12068579912E+04  0.12068579912E+04  0.50400000000E-02 0. -1.
    8880023    1    1    2    0    0 -0.52651901925E+03  0.21212396190E+03  0.55456881523E+03  0.10312980316E+04  0.65864270000E+03 0.  0.
    8880022    1    1    2    0    0  0.52651901925E+03 -0.21212396190E+03 -0.87927994283E+03  0.10577068231E+04  0.15294330000E+03 0.  0.
<mgrwt>
<rscale>  0 0.78845207E+03</rscale>
<asrwt>0</asrwt>
<pdfrwt beam="1">  1        1 0.18567046E+00 0.86949932E+03</pdfrwt>
<pdfrwt beam="2">  1       -1 0.13571490E+00 0.86949932E+03</pdfrwt>
<totfact> 0.48965048E+00</totfact>
</mgrwt>
</event>
<event>
 4    1  0.2514307E-008  0.9803538E+03  0.7818608E-02  0.9407725E-01
         -1   -1    0    0    0  501 -0.00000000000E+00  0.00000000000E+00  0.53462236398E+03  0.53462236401E+03  0.50400000000E-02 0.  1.
          1   -1    0    0  501    0  0.00000000000E+00 -0.00000000000E+00 -0.28650956498E+04  0.28650956498E+04  0.50400000000E-02 0. -1.
    8880023    1    1    2    0    0 -0.31889832484E+03 -0.65237044704E+03 -0.28149833887E+02  0.98075785042E+03  0.65864270000E+03 0.  0.
    8880022    1    1    2    0    0  0.31889832484E+03  0.65237044704E+03 -0.23023234519E+04  0.24189601634E+04  0.15294330000E+03 0.  0.
<mgrwt>
<rscale>  0 0.91442700E+03</rscale>
<asrwt>0</asrwt>
<pdfrwt beam="1">  1        1 0.44078394E+00 0.98035379E+03</pdfrwt>
<pdfrwt beam="2">  1       -1 0.82249596E-01 0.98035379E+03</pdfrwt>
<totfact> 0.11320278E+00</totfact>
</mgrwt>
</event>
<event>
 4    1  0.2514307E-008  0.6865608E+03  0.7818608E-02  0.1005832E+00
          1   -1    0    0  501    0  0.00000000000E+00  0.00000000000E+00  0.50820155521E+03  0.50820155523E+03  0.50400000000E-02 0. -1.
         -1   -1    0    0    0  501 -0.00000000000E+00 -0.00000000000E+00 -0.61006476009E+03  0.61006476011E+03  0.50400000000E-02 0.  1.
    8880023    1    1    2    0    0  0.16749395618E+03  0.97474731454E+02 -0.34794254621E+03  0.76969459551E+03  0.65864270000E+03 0.  1.
    8880022    1    1    2    0    0 -0.16749395618E+03 -0.97474731454E+02  0.24607934132E+03  0.34857171984E+03  0.15294330000E+03 0.  0.
<mgrwt>
<rscale>  0 0.53165326E+03</rscale>
<asrwt>0</asrwt>
<pdfrwt beam="1">  1        1 0.78184855E-01 0.68656082E+03</pdfrwt>
<pdfrwt beam="2">  1       -1 0.93856117E-01 0.68656082E+03</pdfrwt>
<totfact> 0.48979508E+01</totfact>
</mgrwt>
</event>
<event>
 4    1  0.2514307E-008  0.7956522E+03  0.7818608E-02  0.9720277E-01
          1   -1    0    0  501    0  0.00000000000E+00  0.00000000000E+00  0.15982702594E+04  0.15982702594E+04  0.50400000000E-02 0. -1.
         -1   -1    0    0    0  501 -0.00000000000E+00 -0.00000000000E+00 -0.95592409478E+03  0.95592409480E+03  0.50400000000E-02 0.  1.
    8880023    1    1    2    0    0  0.20465923359E+03 -0.39669479366E+03 -0.74426892333E+03  0.10894946524E+04  0.65864270000E+03 0.  1.
    8880022    1    1    2    0    0 -0.20465923359E+03  0.39669479366E+03  0.13866150880E+04  0.14646997018E+04  0.15294330000E+03 0.  0.
<mgrwt>
<rscale>  0 0.69822238E+03</rscale>
<asrwt>0</asrwt>
<pdfrwt beam="1">  1        1 0.24588773E+00 0.79565216E+03</pdfrwt>
<pdfrwt beam="2">  1       -1 0.14706525E+00 0.79565216E+03</pdfrwt>
<totfact> 0.21395521E+00</totfact>
</mgrwt>
</event>
<event>
 4    1  0.2514307E-008  0.7723681E+03  0.7818608E-02  0.9774080E-01
         -1   -1    0    0    0  501 -0.00000000000E+00  0.00000000000E+00  0.35340188551E+03  0.35340188555E+03  0.50400000000E-02 0.  1.
          1   -1    0    0  501    0  0.00000000000E+00 -0.00000000000E+00 -0.10769658372E+04  0.10769658372E+04  0.50400000000E-02 0. -1.
    8880023    1    1    2    0    0 -0.63220622781E+02  0.39842867424E+03 -0.30852285698E+03  0.83170837145E+03  0.65864270000E+03 0.  0.
    8880022    1    1    2    0    0  0.63220622781E+02 -0.39842867424E+03 -0.41504109474E+03  0.59865935133E+03  0.15294330000E+03 0.  1.
<mgrwt>
<rscale>  0 0.66772314E+03</rscale>
<asrwt>0</asrwt>
<pdfrwt beam="1">  1        1 0.16568705E+00 0.77236809E+03</pdfrwt>
<pdfrwt beam="2">  1       -1 0.54369521E-01 0.77236809E+03</pdfrwt>
<totfact> 0.46124163E+01</totfact>
</mgrwt>
</event>
<event>
 4    1  0.2514307E-008  0.8329115E+03  0.7818608E-02  0.9643694E-01
         -1   -1    0    0    0  501 -0.00000000000E+00  0.00000000000E+00  0.61691933696E+03  0.61691933698E+03  0.50400000000E-02 0.  1.
          1   -1    0    0  501    0  0.00000000000E+00 -0.00000000000E+00 -0.26690770921E+04  0.26690770921E+04  0.50400000000E-02 0. -1.
    8880023    1    1    2    0    0  0.24794557358E+03 -0.44548209869E+03  0.29165812349E+03  0.88249984418E+03  0.65864270000E+03 0.  1.
    8880022    1    1    2    0    0 -0.24794557358E+03  0.44548209869E+03 -0.23438158786E+04  0.24034965849E+04  0.15294330000E+03 0.  0.
<mgrwt>
<rscale>  0 0.74470514E+03</rscale>
<asrwt>0</asrwt>
<pdfrwt beam="1">  1        1 0.41062724E+00 0.83291147E+03</pdfrwt>
<pdfrwt beam="2">  1       -1 0.94910669E-01 0.83291147E+03</pdfrwt>
<totfact> 0.11650624E+00</totfact>
</mgrwt>
</event>
<event>
 4    1  0.2514307E-008  0.1017339E+04  0.7818608E-02  0.9359216E-01
         -1   -1    0    0    0  501 -0.00000000000E+00  0.00000000000E+00  0.56976741588E+03  0.56976741590E+03  0.50400000000E-02 0.  1.
          1   -1    0    0  501    0  0.00000000000E+00 -0.00000000000E+00 -0.18413845119E+04  0.18413845119E+04  0.50400000000E-02 0. -1.
    8880023    1    1    2    0    0 -0.17502839385E+02 -0.77515284290E+03 -0.13422773857E+03  0.10261557247E+04  0.65864270000E+03 0.  0.
    8880022    1    1    2    0    0  0.17502839385E+02  0.77515284290E+03 -0.11373893575E+04  0.13849962032E+04  0.15294330000E+03 0.  0.
<mgrwt>
<rscale>  0 0.95509377E+03</rscale>
<asrwt>0</asrwt>
<pdfrwt beam="1">  1        1 0.28328992E+00 0.10173389E+04</pdfrwt>
<pdfrwt beam="2">  1       -1 0.87656526E-01 0.10173389E+04</pdfrwt>
<totfact> 0.49230715E+00</totfact>
</mgrwt>
</event>
<event>
 4    1  0.2514307E-008  0.1232181E+04  0.7818608E-02  0.9126458E-01
          1   -1    0    0  501    0  0.00000000000E+00  0.00000000000E+00  0.19044346318E+04  0.19044346318E+04  0.50400000000E-02 0. -1.
         -1   -1    0    0    0  501 -0.00000000000E+00 -0.00000000000E+00 -0.73853446814E+03  0.73853446816E+03  0.50400000000E-02 0.  1.
    8880023    1    1    2    0    0 -0.10103235838E+04  0.25240096141E+03  0.97945053726E+03  0.15740373409E+04  0.65864270000E+03 0. -1.
    8880022    1    1    2    0    0  0.10103235838E+04 -0.25240096141E+03  0.18644962640E+03  0.10689317591E+04  0.15294330000E+03 0.  1.
<mgrwt>
<rscale>  0 0.11845847E+04</rscale>
<asrwt>0</asrwt>
<pdfrwt beam="1">  1        1 0.29298994E+00 0.12321811E+04</pdfrwt>
<pdfrwt beam="2">  1       -1 0.11362069E+00 0.12321811E+04</pdfrwt>
<totfact> 0.23981588E+00</totfact>
</mgrwt>
</event>
<event>
 4    1  0.2514307E-008  0.1257150E+04  0.7818608E-02  0.9103476E-01
          1   -1    0    0  501    0  0.00000000000E+00  0.00000000000E+00  0.96234883152E+03  0.96234883153E+03  0.50400000000E-02 0. -1.
         -1   -1    0    0    0  501 -0.00000000000E+00 -0.00000000000E+00 -0.22219982307E+04  0.22219982307E+04  0.50400000000E-02 0.  1.
    8880023    1    1    2    0    0 -0.50065755278E+03 -0.94654993942E+03 -0.16142594539E+04  0.20460348393E+04  0.65864270000E+03 0.  1.
    8880022    1    1    2    0    0  0.50065755278E+03  0.94654993942E+03  0.35461005469E+03  0.11383122229E+04  0.15294330000E+03 0.  0.
<mgrwt>
<rscale>  0 0.12107758E+04</rscale>
<asrwt>0</asrwt>
<pdfrwt beam="1">  1        1 0.14805367E+00 0.12571495E+04</pdfrwt>
<pdfrwt beam="2">  1       -1 0.34184588E+00 0.12571495E+04</pdfrwt>
<totfact> 0.27966409E-01</totfact>
</mgrwt>
</event>
<event>
 4    1  0.2514307E-008  0.1143429E+04  0.7818608E-02  0.9214177E-01
         -1   -1    0    0    0  501 -0.00000000000E+00  0.00000000000E+00  0.60288454537E+03  0.60288454539E+03  0.50400000000E-02 0.  1.
          1   -1    0    0  501    0  0.00000000000E+00 -0.00000000000E+00 -0.23631498751E+04  0.23631498751E+04  0.50400000000E-02 0. -1.
    8880023    1    1    2    0    0 -0.63096623911E+03  0.68956605077E+03 -0.22991235620E+03  0.11663145507E+04  0.65864270000E+03 0.  0.
    8880022    1    1    2    0    0  0.63096623911E+03 -0.68956605077E+03 -0.15303529735E+04  0.17997198698E+04  0.15294330000E+03 0.  0.
<mgrwt>
<rscale>  0 0.10908289E+04</rscale>
<asrwt>0</asrwt>
<pdfrwt beam="1">  1        1 0.36356151E+00 0.11434290E+04</pdfrwt>
<pdfrwt beam="2">  1       -1 0.92751470E-01 0.11434290E+04</pdfrwt>
<totfact> 0.18964286E+00</totfact>
</mgrwt>
</event>
<event>
 4    1  0.2514307E-008  0.7212751E+03  0.7818608E-02  0.9918295E-01
         -1   -1    0    0    0  501 -0.00000000000E+00  0.00000000000E+00  0.47032896222E+03  0.47032896225E+03  0.50400000000E-02 0.  1.
          1   -1    0    0  501    0  0.00000000000E+00 -0.00000000000E+00 -0.84065912280E+03  0.84065912281E+03  0.50400000000E-02 0. -1.
    8880023    1    1    2    0    0  0.22196807907E+02 -0.29314644271E+03  0.10775503177E+03  0.72927970511E+03  0.65864270000E+03 0.  0.
    8880022    1    1    2    0    0 -0.22196807907E+02  0.29314644271E+03 -0.47808519235E+03  0.58170837995E+03  0.15294330000E+03 0.  0.
<mgrwt>
<rscale>  0 0.59382773E+03</rscale>
<asrwt>0</asrwt>
<pdfrwt beam="1">  1        1 0.12933217E+00 0.72127508E+03</pdfrwt>
<pdfrwt beam="2">  1       -1 0.72358302E-01 0.72127508E+03</pdfrwt>
<totfact> 0.40368561E+01</totfact>
</mgrwt>
</event>
<event>
 4    1  0.2514307E-008  0.1246557E+04  0.7818608E-02  0.9113143E-01
         -1   -1    0    0    0  501 -0.00000000000E+00  0.00000000000E+00  0.10694422431E+04  0.10694422431E+04  0.50400000000E-02 0.  1.
          1   -1    0    0  501    0  0.00000000000E+00 -0.00000000000E+00 -0.18749316285E+04  0.18749316285E+04  0.50400000000E-02 0. -1.
    8880023    1    1    2    0    0 -0.10003145869E+04 -0.34563653394E+03  0.42234923228E+03  0.13161622113E+04  0.65864270000E+03 0.  0.
    8880022    1    1    2    0    0  0.10003145869E+04  0.34563653394E+03 -0.12278386177E+04  0.16282116602E+04  0.15294330000E+03 0.  0.
<mgrwt>
<rscale>  0 0.11996731E+04</rscale>
<asrwt>0</asrwt>
<pdfrwt beam="1">  1        1 0.28845102E+00 0.12465569E+04</pdfrwt>
<pdfrwt beam="2">  1       -1 0.16452958E+00 0.12465569E+04</pdfrwt>
<totfact> 0.95523462E-01</totfact>
</mgrwt>
</event>
<event>
 4    1  0.2514307E-008  0.7898666E+03  0.7818608E-02  0.9733151E-01
         -1   -1    0    0    0  501 -0.00000000000E+00  0.00000000000E+00  0.83391694283E+03  0.83391694285E+03  0.50400000000E-02 0.  1.
          1   -1    0    0  501    0  0.00000000000E+00 -0.00000000000E+00 -0.59723420279E+03  0.59723420281E+03  0.50400000000E-02 0. -1.
    8880023    1    1    2    0    0  0.19048760324E+03 -0.39216514636E+03 -0.17872513122E+03  0.80983449408E+03  0.65864270000E+03 0. -1.
    8880022    1    1    2    0    0 -0.19048760324E+03  0.39216514636E+03  0.41540787126E+03  0.62131665158E+03  0.15294330000E+03 0.  0.
<mgrwt>
<rscale>  0 0.69076860E+03</rscale>
<asrwt>0</asrwt>
<pdfrwt beam="1">  1        1 0.91882185E-01 0.78986659E+03</pdfrwt>
<pdfrwt beam="2">  1       -1 0.12829491E+00 0.78986659E+03</pdfrwt>
<totfact> 0.18482149E+01</totfact>
</mgrwt>
</event>
<event>
 4    1  0.2514307E-008  0.7506714E+03  0.7818608E-02  0.9829886E-01
          1   -1    0    0  501    0  0.00000000000E+00  0.00000000000E+00  0.11628904684E+04  0.11628904684E+04  0.50400000000E-02 0. -1.
         -1   -1    0    0    0  501 -0.00000000000E+00 -0.00000000000E+00 -0.64910250271E+03  0.64910250272E+03  0.50400000000E-02 0.  1.
    8880023    1    1    2    0    0  0.13925304435E+03 -0.33212340612E+03 -0.37629727003E+03  0.83970662076E+03  0.65864270000E+03 0.  1.
    8880022    1    1    2    0    0 -0.13925304435E+03  0.33212340612E+03  0.89008523573E+03  0.97228635038E+03  0.15294330000E+03 0.  0.
<mgrwt>
<rscale>  0 0.63783069E+03</rscale>
<asrwt>0</asrwt>
<pdfrwt beam="1">  1        1 0.17890622E+00 0.75067142E+03</pdfrwt>
<pdfrwt beam="2">  1       -1 0.99861925E-01 0.75067142E+03</pdfrwt>
<totfact> 0.11245114E+01</totfact>
</mgrwt>
</event>
<event>
 4    1  0.2514307E-008  0.7021965E+03  0.7818608E-02  0.9988208E-01
          1   -1    0    0  501    0  0.00000000000E+00  0.00000000000E+00  0.37706057591E+04  0.37706057591E+04  0.50400000000E-02 0. -1.
         -1   -1    0    0    0  501 -0.00000000000E+00 -0.00000000000E+00 -0.56871938721E+03  0.56871938723E+03  0.50400000000E-02 0.  1.
    8880023    1    1    2    0    0 -0.20702920659E+03 -0.12809638981E+03 -0.34391018841E+03  0.78189142559E+03  0.65864270000E+03 0.  1.
    8880022    1    1    2    0    0  0.20702920659E+03  0.12809638981E+03  0.35457965603E+04  0.35574337208E+04  0.15294330000E+03 0.  0.
<mgrwt>
<rscale>  0 0.56170318E+03</rscale>
<asrwt>0</asrwt>
<pdfrwt beam="1">  1        1 0.58009319E+00 0.70219654E+03</pdfrwt>
<pdfrwt beam="2">  1       -1 0.87495291E-01 0.70219654E+03</pdfrwt>
<totfact> 0.21782346E-01</totfact>
</mgrwt>
</event>
<event>
 4    1  0.2514307E-008  0.7435194E+03  0.7818608E-02  0.9849811E-01
         -1   -1    0    0    0  501 -0.00000000000E+00  0.00000000000E+00  0.28778998082E+03  0.28778998086E+03  0.50400000000E-02 0.  1.
          1   -1    0    0  501    0  0.00000000000E+00 -0.00000000000E+00 -0.16783985806E+04  0.16783985806E+04  0.50400000000E-02 0. -1.
    8880023    1    1    2    0    0 -0.33037486483E+03  0.99314334824E+02 -0.28214742342E+03  0.79525358422E+03  0.65864270000E+03 0.  1.
    8880022    1    1    2    0    0  0.33037486483E+03 -0.99314334824E+02 -0.11084611764E+04  0.11709349772E+04  0.15294330000E+03 0.  0.
<mgrwt>
<rscale>  0 0.62756533E+03</rscale>
<asrwt>0</asrwt>
<pdfrwt beam="1">  1        1 0.25821516E+00 0.74351940E+03</pdfrwt>
<pdfrwt beam="2">  1       -1 0.44275383E-01 0.74351940E+03</pdfrwt>
<totfact> 0.25783256E+01</totfact>
</mgrwt>
</event>
<event>
 4    1  0.2514307E-008  0.1678756E+04  0.7818608E-02  0.8792746E-01
         -1   -1    0    0    0  501 -0.00000000000E+00  0.00000000000E+00  0.13125190925E+04  0.13125190925E+04  0.50400000000E-02 0.  1.
          1   -1    0    0  501    0  0.00000000000E+00 -0.00000000000E+00 -0.21250855929E+04  0.21250855929E+04  0.50400000000E-02 0. -1.
    8880023    1    1    2    0    0  0.13951240706E+03 -0.15378382862E+04 -0.85784055696E+03  0.18852349810E+04  0.65864270000E+03 0.  0.
    8880022    1    1    2    0    0 -0.13951240706E+03  0.15378382862E+04  0.45274056569E+02  0.15523697044E+04  0.15294330000E+03 0.  0.
<mgrwt>
<rscale>  0 0.16460507E+04</rscale>
<asrwt>0</asrwt>
<pdfrwt beam="1">  1        1 0.32693625E+00 0.16787556E+04</pdfrwt>
<pdfrwt beam="2">  1       -1 0.20192601E+00 0.16787556E+04</pdfrwt>
<totfact> 0.33162109E-01</totfact>
</mgrwt>
</event>
<event>
 4    1  0.2514307E-008  0.1498869E+04  0.7818608E-02  0.8910435E-01
          1   -1    0    0  501    0  0.00000000000E+00  0.00000000000E+00  0.25613605453E+04  0.25613605453E+04  0.50400000000E-02 0. -1.
         -1   -1    0    0    0  501 -0.00000000000E+00 -0.00000000000E+00 -0.93871751179E+03  0.93871751181E+03  0.50400000000E-02 0.  1.
    8880023    1    1    2    0    0 -0.77284395802E+03  0.11025018523E+04  0.16187641176E+03  0.15075849219E+04  0.65864270000E+03 0.  1.
    8880022    1    1    2    0    0  0.77284395802E+03 -0.11025018523E+04  0.14607666217E+04  0.19924931352E+04  0.15294330000E+03 0.  0.
<mgrwt>
<rscale>  0 0.14615459E+04</rscale>
<asrwt>0</asrwt>
<pdfrwt beam="1">  1        1 0.39405547E+00 0.14988690E+04</pdfrwt>
<pdfrwt beam="2">  1       -1 0.14441808E+00 0.14988690E+04</pdfrwt>
<totfact> 0.45087874E-01</totfact>
</mgrwt>
</event>
<event>
 4    1  0.2514307E-008  0.9049722E+03  0.7818608E-02  0.9518096E-01
         -1   -1    0    0    0  501 -0.00000000000E+00  0.00000000000E+00  0.80498777673E+03  0.80498777674E+03  0.50400000000E-02 0.  1.
          1   -1    0    0  501    0  0.00000000000E+00 -0.00000000000E+00 -0.35486696659E+04  0.35486696659E+04  0.50400000000E-02 0. -1.
    8880023    1    1    2    0    0 -0.62060929945E+03  0.29262804832E+01  0.50932133018E+03  0.10384521603E+04  0.65864270000E+03 0.  0.
    8880022    1    1    2    0    0  0.62060929945E+03 -0.29262804832E+01 -0.32530032193E+04  0.33152052823E+04  0.15294330000E+03 0.  0.
<mgrwt>
<rscale>  0 0.82962703E+03</rscale>
<asrwt>0</asrwt>
<pdfrwt beam="1">  1        1 0.54594917E+00 0.90497219E+03</pdfrwt>
<pdfrwt beam="2">  1       -1 0.12384428E+00 0.90497219E+03</pdfrwt>
<totfact> 0.13908215E-01</totfact>
</mgrwt>
</event>
<event>
 4    1  0.2514307E-008  0.6792996E+03  0.7818608E-02  0.1009723E+00
         -1   -1    0    0    0  501 -0.00000000000E+00  0.00000000000E+00  0.32918024887E+03  0.32918024891E+03  0.50400000000E-02 0.  1.
          1   -1    0    0  501    0  0.00000000000E+00 -0.00000000000E+00 -0.22297538566E+04  0.22297538566E+04  0.50400000000E-02 0. -1.
    8880023    1    1    2    0    0 -0.15295271142E+03  0.65139413136E+02 -0.35496246214E+02  0.68022633353E+03  0.65864270000E+03 0.  1.
    8880022    1    1    2    0    0  0.15295271142E+03 -0.65139413136E+02 -0.18650773615E+04  0.18787077720E+04  0.15294330000E+03 0.  0.
<mgrwt>
<rscale>  0 0.51585005E+03</rscale>
<asrwt>0</asrwt>
<pdfrwt beam="1">  1        1 0.34303904E+00 0.67929955E+03</pdfrwt>
<pdfrwt beam="2">  1       -1 0.50643117E-01 0.67929955E+03</pdfrwt>
<totfact> 0.86604191E+00</totfact>
</mgrwt>
</event>
<event>
 4    1  0.2514307E-008  0.1177673E+04  0.7818608E-02  0.9179137E-01
         -1   -1    0    0    0  501 -0.00000000000E+00  0.00000000000E+00  0.82480030742E+03  0.82480030744E+03  0.50400000000E-02 0.  1.
          1   -1    0    0  501    0  0.00000000000E+00 -0.00000000000E+00 -0.18459859554E+04  0.18459859554E+04  0.50400000000E-02 0. -1.
    8880023    1    1    2    0    0 -0.65137972685E+03  0.72719194632E+03 -0.11832244380E+04  0.16694112592E+04  0.65864270000E+03 0.  0.
    8880022    1    1    2    0    0  0.65137972685E+03 -0.72719194632E+03  0.16203879009E+03  0.10013750036E+04  0.15294330000E+03 0.  0.
<mgrwt>
<rscale>  0 0.11271386E+04</rscale>
<asrwt>0</asrwt>
<pdfrwt beam="1">  1        1 0.28399784E+00 0.11776731E+04</pdfrwt>
<pdfrwt beam="2">  1       -1 0.12689236E+00 0.11776731E+04</pdfrwt>
<totfact> 0.20147257E+00</totfact>
</mgrwt>
</event>
<event>
 4    1  0.2514307E-008  0.8694679E+03  0.7818608E-02  0.9576939E-01
          1   -1    0    0  501    0  0.00000000000E+00  0.00000000000E+00  0.17206273571E+04  0.17206273571E+04  0.50400000000E-02 0. -1.
         -1   -1    0    0    0  501 -0.00000000000E+00 -0.00000000000E+00 -0.37405331132E+03  0.37405331135E+03  0.50400000000E-02 0.  1.
    8880023    1    1    2    0    0 -0.31203841854E+03 -0.47412681425E+03  0.34921738075E+03  0.93697769233E+03  0.65864270000E+03 0.  1.
    8880022    1    1    2    0    0  0.31203841854E+03  0.47412681425E+03  0.99735666498E+03  0.11577029761E+04  0.15294330000E+03 0.  0.
<mgrwt>
<rscale>  0 0.78841512E+03</rscale>
<asrwt>0</asrwt>
<pdfrwt beam="1">  1        1 0.26471190E+00 0.86946789E+03</pdfrwt>
<pdfrwt beam="2">  1       -1 0.57546663E-01 0.86946789E+03</pdfrwt>
<totfact> 0.14435611E+01</totfact>
</mgrwt>
</event>
<event>
 4    1  0.2514307E-008  0.7929479E+03  0.7818608E-02  0.9726257E-01
          1   -1    0    0  501    0  0.00000000000E+00  0.00000000000E+00  0.12996107069E+04  0.12996107069E+04  0.50400000000E-02 0. -1.
         -1   -1    0    0    0  501 -0.00000000000E+00 -0.00000000000E+00 -0.53328828077E+03  0.53328828079E+03  0.50400000000E-02 0.  1.
    8880023    1    1    2    0    0  0.28030486133E+03  0.34115296685E+03 -0.14748790953E+03  0.80654761285E+03  0.65864270000E+03 0.  1.
    8880022    1    1    2    0    0 -0.28030486133E+03 -0.34115296685E+03  0.91381033566E+03  0.10263513749E+04  0.15294330000E+03 0.  0.
<mgrwt>
<rscale>  0 0.69474766E+03</rscale>
<asrwt>0</asrwt>
<pdfrwt beam="1">  1        1 0.19994011E+00 0.79294790E+03</pdfrwt>
<pdfrwt beam="2">  1       -1 0.82044351E-01 0.79294790E+03</pdfrwt>
<totfact> 0.13755564E+01</totfact>
</mgrwt>
</event>
<event>
 4    1  0.2514307E-008  0.1097717E+04  0.7818608E-02  0.9263602E-01
          1   -1    0    0  501    0  0.00000000000E+00  0.00000000000E+00  0.24485030607E+04  0.24485030608E+04  0.50400000000E-02 0. -1.
         -1   -1    0    0    0  501 -0.00000000000E+00 -0.00000000000E+00 -0.99329179690E+03  0.99329179691E+03  0.50400000000E-02 0.  1.
    8880023    1    1    2    0    0  0.44700594125E+03  0.75588219229E+03  0.20809345501E+04  0.23527156667E+04  0.65864270000E+03 0. -1.
    8880022    1    1    2    0    0 -0.44700594125E+03 -0.75588219229E+03 -0.62572328630E+03  0.10890791910E+04  0.15294330000E+03 0.  0.
<mgrwt>
<rscale>  0 0.10420387E+04</rscale>
<asrwt>0</asrwt>
<pdfrwt beam="1">  1        1 0.37669277E+00 0.10977169E+04</pdfrwt>
<pdfrwt beam="2">  1       -1 0.15281412E+00 0.10977169E+04</pdfrwt>
<totfact> 0.48863119E-01</totfact>
</mgrwt>
</event>
<event>
 4    1  0.2514307E-008  0.7099620E+03  0.7818608E-02  0.9958142E-01
          1   -1    0    0  501    0  0.00000000000E+00  0.00000000000E+00  0.94702049968E+03  0.94702049969E+03  0.50400000000E-02 0. -1.
         -1   -1    0    0    0  501 -0.00000000000E+00 -0.00000000000E+00 -0.11271738076E+04  0.11271738076E+04  0.50400000000E-02 0.  1.
    8880023    1    1    2    0    0  0.26333333476E+03  0.29855975365E+02 -0.98439828527E+03  0.12137075491E+04  0.65864270000E+03 0.  0.
    8880022    1    1    2    0    0 -0.26333333476E+03 -0.29855975365E+02  0.80424497734E+03  0.86048675821E+03  0.15294330000E+03 0. -1.
<mgrwt>
<rscale>  0 0.57524353E+03</rscale>
<asrwt>0</asrwt>
<pdfrwt beam="1">  1        1 0.14569546E+00 0.70996199E+03</pdfrwt>
<pdfrwt beam="2">  1       -1 0.17341136E+00 0.70996199E+03</pdfrwt>
<totfact> 0.40448452E+00</totfact>
</mgrwt>
</event>
<event>
 4    1  0.2514307E-008  0.7287139E+03  0.7818608E-02  0.9894133E-01
          1   -1    0    0  501    0  0.00000000000E+00  0.00000000000E+00  0.22507783243E+04  0.22507783243E+04  0.50400000000E-02 0. -1.
         -1   -1    0    0    0  501 -0.00000000000E+00 -0.00000000000E+00 -0.43204487250E+03  0.43204487253E+03  0.50400000000E-02 0.  1.
    8880023    1    1    2    0    0 -0.26629360801E+03  0.16217732265E+03 -0.97649536551E+02  0.73522745318E+03  0.65864270000E+03 0.  1.
    8880022    1    1    2    0    0  0.26629360801E+03 -0.16217732265E+03  0.19163829884E+04  0.19475957437E+04  0.15294330000E+03 0.  0.
<mgrwt>
<rscale>  0 0.60546446E+03</rscale>
<asrwt>0</asrwt>
<pdfrwt beam="1">  1        1 0.34627359E+00 0.72871392E+03</pdfrwt>
<pdfrwt beam="2">  1       -1 0.66468442E-01 0.72871392E+03</pdfrwt>
<totfact> 0.48827278E+00</totfact>
</mgrwt>
</event>
<event>
 4    1  0.2514307E-008  0.1327199E+04  0.7818608E-02  0.9042421E-01
         -1   -1    0    0    0  501 -0.00000000000E+00  0.00000000000E+00  0.17500830291E+04  0.17500830291E+04  0.50400000000E-02 0.  1.
          1   -1    0    0  501    0  0.00000000000E+00 -0.00000000000E+00 -0.11776436111E+04  0.11776436112E+04  0.50400000000E-02 0. -1.
    8880023    1    1    2    0    0 -0.10181243026E+03 -0.11477285898E+04  0.10285487157E+04  0.16790977797E+04  0.65864270000E+03 0.  0.
    8880022    1    1    2    0    0  0.10181243026E+03  0.11477285898E+04 -0.45610929776E+03  0.12486288606E+04  0.15294330000E+03 0.  0.
<mgrwt>
<rscale>  0 0.12839126E+04</rscale>
<asrwt>0</asrwt>
<pdfrwt beam="1">  1        1 0.18117594E+00 0.13271989E+04</pdfrwt>
<pdfrwt beam="2">  1       -1 0.26924354E+00 0.13271989E+04</pdfrwt>
<totfact> 0.56080256E-01</totfact>
</mgrwt>
</event>
<event>
 4    1  0.2514307E-008  0.6815558E+03  0.7818608E-02  0.1008457E+00
         -1   -1    0    0    0  501 -0.00000000000E+00  0.00000000000E+00  0.10695986547E+04  0.10695986547E+04  0.50400000000E-02 0.  1.
          1   -1    0    0  501    0  0.00000000000E+00 -0.00000000000E+00 -0.23136399940E+03  0.23136399945E+03  0.50400000000E-02 0. -1.
    8880023    1    1    2    0    0  0.30718814971E+02  0.17252383748E+03  0.82200088256E+03  0.10678032484E+04  0.65864270000E+03 0.  1.
    8880022    1    1    2    0    0 -0.30718814971E+02 -0.17252383748E+03  0.16233772712E+02  0.23315940574E+03  0.15294330000E+03 0. -1.
<mgrwt>
<rscale>  0 0.52092536E+03</rscale>
<asrwt>0</asrwt>
<pdfrwt beam="1">  1        1 0.35594461E-01 0.68155581E+03</pdfrwt>
<pdfrwt beam="2">  1       -1 0.16455364E+00 0.68155581E+03</pdfrwt>
<totfact> 0.34163898E+01</totfact>
</mgrwt>
</event>
<event>
 4    1  0.2514307E-008  0.7994337E+03  0.7818608E-02  0.9712022E-01
          1   -1    0    0  501    0  0.00000000000E+00  0.00000000000E+00  0.23773400546E+04  0.23773400546E+04  0.50400000000E-02 0. -1.
         -1   -1    0    0    0  501 -0.00000000000E+00 -0.00000000000E+00 -0.17544025771E+04  0.17544025771E+04  0.50400000000E-02 0.  1.
    8880023    1    1    2    0    0 -0.40122543527E+03  0.21048089127E+03 -0.16369952113E+04  0.18217704531E+04  0.65864270000E+03 0.  1.
    8880022    1    1    2    0    0  0.40122543527E+03 -0.21048089127E+03  0.22599326888E+04  0.23099721787E+04  0.15294330000E+03 0.  0.
<mgrwt>
<rscale>  0 0.70305508E+03</rscale>
<asrwt>0</asrwt>
<pdfrwt beam="1">  1        1 0.36574462E+00 0.79943371E+03</pdfrwt>
<pdfrwt beam="2">  1       -1 0.26990809E+00 0.79943371E+03</pdfrwt>
<totfact> 0.91480285E-02</totfact>
</mgrwt>
</event>
<event>
 4    1  0.2514307E-008  0.6943032E+03  0.7818608E-02  0.1002171E+00
          1   -1    0    0  501    0  0.00000000000E+00  0.00000000000E+00  0.26287454869E+04  0.26287454869E+04  0.50400000000E-02 0. -1.
         -1   -1    0    0    0  501 -0.00000000000E+00 -0.00000000000E+00 -0.29159279242E+03  0.29159279246E+03  0.50400000000E-02 0.  1.
    8880023    1    1    2    0    0 -0.21427475766E+03 -0.48301502787E+02  0.14168085092E+03  0.70861158382E+03  0.65864270000E+03 0.  1.
    8880022    1    1    2    0    0  0.21427475766E+03  0.48301502787E+02  0.21954718436E+04  0.22117266956E+04  0.15294330000E+03 0.  0.
<mgrwt>
<rscale>  0 0.54708533E+03</rscale>
<asrwt>0</asrwt>
<pdfrwt beam="1">  1        1 0.40442239E+00 0.69430319E+03</pdfrwt>
<pdfrwt beam="2">  1       -1 0.44860429E-01 0.69430319E+03</pdfrwt>
<totfact> 0.58114425E+00</totfact>
</mgrwt>
</event>
<event>
 4    1  0.2514307E-008  0.6941267E+03  0.7818608E-02  0.1002250E+00
          1   -1    0    0  501    0  0.00000000000E+00  0.00000000000E+00  0.17417121852E+04  0.17417121852E+04  0.50400000000E-02 0. -1.
         -1   -1    0    0    0  501 -0.00000000000E+00 -0.00000000000E+00 -0.40872414777E+03  0.40872414781E+03  0.50400000000E-02 0.  1.
    8880023    1    1    2    0    0 -0.14820963180E+02  0.21859095277E+03 -0.92374304692E+02  0.70024630239E+03  0.65864270000E+03 0.  1.
    8880022    1    1    2    0    0  0.14820963180E+02 -0.21859095277E+03  0.14253623421E+04  0.14501900306E+04  0.15294330000E+03 0.  0.
<mgrwt>
<rscale>  0 0.54674681E+03</rscale>
<asrwt>0</asrwt>
<pdfrwt beam="1">  1        1 0.26795572E+00 0.69412670E+03</pdfrwt>
<pdfrwt beam="2">  1       -1 0.62880637E-01 0.69412670E+03</pdfrwt>
<totfact> 0.12022962E+01</totfact>
</mgrwt>
</event>
<event>
 4    1  0.2514307E-008  0.7033765E+03  0.7818608E-02  0.9983472E-01
          1   -1    0    0  501    0  0.00000000000E+00  0.00000000000E+00  0.39500760814E+03  0.39500760817E+03  0.50400000000E-02 0. -1.
         -1   -1    0    0    0  501 -0.00000000000E+00 -0.00000000000E+00 -0.15172360758E+04  0.15172360758E+04  0.50400000000E-02 0.  1.
    8880023    1    1    2    0    0  0.70596393063E+02  0.23652588465E+03 -0.13638119502E+04  0.15345102107E+04  0.65864270000E+03 0.  0.
    8880022    1    1    2    0    0 -0.70596393063E+02 -0.23652588465E+03  0.24158348254E+03  0.37773347333E+03  0.15294330000E+03 0. -1.
<mgrwt>
<rscale>  0 0.56380929E+03</rscale>
<asrwt>0</asrwt>
<pdfrwt beam="1">  1        1 0.60770402E-01 0.70337654E+03</pdfrwt>
<pdfrwt beam="2">  1       -1 0.23342093E+00 0.70337654E+03</pdfrwt>
<totfact> 0.57078103E+00</totfact>
</mgrwt>
</event>
<event>
 4    1  0.2514307E-008  0.1086708E+04  0.7818608E-02  0.9276001E-01
         -1   -1    0    0    0  501 -0.00000000000E+00  0.00000000000E+00  0.53732453942E+03  0.53732453945E+03  0.50400000000E-02 0.  1.
          1   -1    0    0  501    0  0.00000000000E+00 -0.00000000000E+00 -0.38292361832E+04  0.38292361832E+04  0.50400000000E-02 0. -1.
    8880023    1    1    2    0    0  0.59432713071E+03  0.62761413524E+03 -0.14118266137E+03  0.10958407691E+04  0.65864270000E+03 0.  1.
    8880022    1    1    2    0    0 -0.59432713071E+03 -0.62761413524E+03 -0.31507289824E+04  0.32707199536E+04  0.15294330000E+03 0.  0.
<mgrwt>
<rscale>  0 0.10302257E+04</rscale>
<asrwt>0</asrwt>
<pdfrwt beam="1">  1        1 0.58911324E+00 0.10867081E+04</pdfrwt>
<pdfrwt beam="2">  1       -1 0.82665316E-01 0.10867081E+04</pdfrwt>
<totfact> 0.20213512E-01</totfact>
</mgrwt>
</event>
<event>
 4    1  0.2514307E-008  0.1363232E+04  0.7818608E-02  0.9012792E-01
         -1   -1    0    0    0  501 -0.00000000000E+00  0.00000000000E+00  0.17325058360E+04  0.17325058360E+04  0.50400000000E-02 0.  1.
          1   -1    0    0  501    0  0.00000000000E+00 -0.00000000000E+00 -0.25261332724E+04  0.25261332724E+04  0.50400000000E-02 0. -1.
    8880023    1    1    2    0    0 -0.63765189028E+03  0.10089552059E+04  0.12743067672E+04  0.18660810497E+04  0.65864270000E+03 0.  0.
    8880022    1    1    2    0    0  0.63765189028E+03 -0.10089552059E+04 -0.20679342037E+04  0.23925580588E+04  0.15294330000E+03 0.  0.
<mgrwt>
<rscale>  0 0.13213646E+04</rscale>
<asrwt>0</asrwt>
<pdfrwt beam="1">  1        1 0.38863589E+00 0.13632317E+04</pdfrwt>
<pdfrwt beam="2">  1       -1 0.26653936E+00 0.13632317E+04</pdfrwt>
<totfact> 0.68020739E-02</totfact>
</mgrwt>
</event>
<event>
 4    1  0.2514307E-008  0.9387900E+03  0.7818608E-02  0.9466430E-01
          1   -1    0    0  501    0  0.00000000000E+00  0.00000000000E+00  0.13019347090E+04  0.13019347090E+04  0.50400000000E-02 0. -1.
         -1   -1    0    0    0  501 -0.00000000000E+00 -0.00000000000E+00 -0.11756252042E+04  0.11756252042E+04  0.50400000000E-02 0.  1.
    8880023    1    1    2    0    0  0.28976041422E+03 -0.60295557205E+03 -0.86190842529E+03  0.12744460990E+04  0.65864270000E+03 0.  1.
    8880022    1    1    2    0    0 -0.28976041422E+03  0.60295557205E+03  0.98821793007E+03  0.12031138142E+04  0.15294330000E+03 0.  0.
<mgrwt>
<rscale>  0 0.86804728E+03</rscale>
<asrwt>0</asrwt>
<pdfrwt beam="1">  1        1 0.20029765E+00 0.93879003E+03</pdfrwt>
<pdfrwt beam="2">  1       -1 0.18086542E+00 0.93879003E+03</pdfrwt>
<totfact> 0.18749981E+00</totfact>
</mgrwt>
</event>
<event>
 4    1  0.2514307E-008  0.7141525E+03  0.7818608E-02  0.9942892E-01
         -1   -1    0    0    0  501 -0.00000000000E+00  0.00000000000E+00  0.67039291300E+03  0.67039291302E+03  0.50400000000E-02 0.  1.
          1   -1    0    0  501    0  0.00000000000E+00 -0.00000000000E+00 -0.41654643937E+03  0.41654643940E+03  0.50400000000E-02 0. -1.
    8880023    1    1    2    0    0 -0.24394888203E+03 -0.12919970612E+03  0.28689813478E+03  0.76962612164E+03  0.65864270000E+03 0.  0.
    8880022    1    1    2    0    0  0.24394888203E+03  0.12919970612E+03 -0.33051661147E+02  0.31731323078E+03  0.15294330000E+03 0.  1.
<mgrwt>
<rscale>  0 0.58226820E+03</rscale>
<asrwt>0</asrwt>
<pdfrwt beam="1">  1        1 0.64084068E-01 0.71415252E+03</pdfrwt>
<pdfrwt beam="2">  1       -1 0.10313737E+00 0.71415252E+03</pdfrwt>
<totfact> 0.51638003E+01</totfact>
</mgrwt>
</event>
<event>
 4    1  0.2514307E-008  0.7819407E+03  0.7818608E-02  0.9751298E-01
         -1   -1    0    0    0  501 -0.00000000000E+00  0.00000000000E+00  0.49132478021E+03  0.49132478024E+03  0.50400000000E-02 0.  1.
          1   -1    0    0  501    0  0.00000000000E+00 -0.00000000000E+00 -0.15864132670E+04  0.15864132670E+04  0.50400000000E-02 0. -1.
    8880023    1    1    2    0    0 -0.38058072509E+03  0.18105081856E+03  0.11214289751E+03  0.78994134145E+03  0.65864270000E+03 0.  0.
    8880022    1    1    2    0    0  0.38058072509E+03 -0.18105081856E+03 -0.12072313843E+04  0.12877967058E+04  0.15294330000E+03 0. -1.
<mgrwt>
<rscale>  0 0.68042979E+03</rscale>
<asrwt>0</asrwt>
<pdfrwt beam="1">  1        1 0.24406358E+00 0.78194072E+03</pdfrwt>
<pdfrwt beam="2">  1       -1 0.75588428E-01 0.78194072E+03</pdfrwt>
<totfact> 0.10375101E+01</totfact>
</mgrwt>
</event>
<event>
 4    1  0.2514307E-008  0.7284902E+03  0.7818608E-02  0.9894840E-01
         -1   -1    0    0    0  501 -0.00000000000E+00  0.00000000000E+00  0.32071732280E+03  0.32071732284E+03  0.50400000000E-02 0.  1.
          1   -1    0    0  501    0  0.00000000000E+00 -0.00000000000E+00 -0.12948092030E+04  0.12948092030E+04  0.50400000000E-02 0. -1.
    8880023    1    1    2    0    0 -0.14622050392E+03 -0.27478600975E+03 -0.18206590723E+03  0.75089678902E+03  0.65864270000E+03 0.  1.
    8880022    1    1    2    0    0  0.14622050392E+03  0.27478600975E+03 -0.79202597294E+03  0.86462973679E+03  0.15294330000E+03 0.  0.
<mgrwt>
<rscale>  0 0.60512029E+03</rscale>
<asrwt>0</asrwt>
<pdfrwt beam="1">  1        1 0.19920141E+00 0.72849021E+03</pdfrwt>
<pdfrwt beam="2">  1       -1 0.49341127E-01 0.72849021E+03</pdfrwt>
<totfact> 0.38706131E+01</totfact>
</mgrwt>
</event>
<event>
 4    1  0.2514307E-008  0.1136229E+04  0.7818608E-02  0.9221753E-01
         -1   -1    0    0    0  501 -0.00000000000E+00  0.00000000000E+00  0.73777811822E+03  0.73777811824E+03  0.50400000000E-02 0.  1.
          1   -1    0    0  501    0  0.00000000000E+00 -0.00000000000E+00 -0.18565189761E+04  0.18565189761E+04  0.50400000000E-02 0. -1.
    8880023    1    1    2    0    0  0.72524148576E+03  0.57552569515E+03 -0.11997610617E+04  0.16524048686E+04  0.65864270000E+03 0.  0.
    8880022    1    1    2    0    0 -0.72524148576E+03 -0.57552569515E+03  0.81020203795E+02  0.94189222573E+03  0.15294330000E+03 0.  0.
<mgrwt>
<rscale>  0 0.10831694E+04</rscale>
<asrwt>0</asrwt>
<pdfrwt beam="1">  1        1 0.28561830E+00 0.11362285E+04</pdfrwt>
<pdfrwt beam="2">  1       -1 0.11350433E+00 0.11362285E+04</pdfrwt>
<totfact> 0.26194497E+00</totfact>
</mgrwt>
</event>
<event>
 4    1  0.2514307E-008  0.7087896E+03  0.7818608E-02  0.9962523E-01
          1   -1    0    0  501    0  0.00000000000E+00  0.00000000000E+00  0.20556583727E+04  0.20556583727E+04  0.50400000000E-02 0. -1.
         -1   -1    0    0    0  501 -0.00000000000E+00 -0.00000000000E+00 -0.11098101501E+04  0.11098101501E+04  0.50400000000E-02 0.  1.
    8880023    1    1    2    0    0  0.19054068191E+02  0.26116937874E+03 -0.98357753015E+03  0.12123561630E+04  0.65864270000E+03 0.  1.
    8880022    1    1    2    0    0 -0.19054068191E+02 -0.26116937874E+03  0.19294257527E+04  0.19531123598E+04  0.15294330000E+03 0.  0.
<mgrwt>
<rscale>  0 0.57324507E+03</rscale>
<asrwt>0</asrwt>
<pdfrwt beam="1">  1        1 0.31625513E+00 0.70878961E+03</pdfrwt>
<pdfrwt beam="2">  1       -1 0.17074003E+00 0.70878961E+03</pdfrwt>
<totfact> 0.71167434E-01</totfact>
</mgrwt>
</event>
<event>
 4    1  0.2514307E-008  0.1698083E+04  0.7818608E-02  0.8781112E-01
          1   -1    0    0  501    0  0.00000000000E+00  0.00000000000E+00  0.27950980146E+04  0.27950980146E+04  0.50400000000E-02 0. -1.
         -1   -1    0    0    0  501 -0.00000000000E+00 -0.00000000000E+00 -0.15861590421E+04  0.15861590422E+04  0.50400000000E-02 0.  1.
    8880023    1    1    2    0    0  0.10038363741E+04 -0.12008278207E+04 -0.76082298246E+03  0.18607355367E+04  0.65864270000E+03 0.  0.
    8880022    1    1    2    0    0 -0.10038363741E+04  0.12008278207E+04  0.19697619549E+04  0.25205215200E+04  0.15294330000E+03 0.  0.
<mgrwt>
<rscale>  0 0.16658029E+04</rscale>
<asrwt>0</asrwt>
<pdfrwt beam="1">  1        1 0.43001508E+00 0.16980828E+04</pdfrwt>
<pdfrwt beam="2">  1       -1 0.24402447E+00 0.16980828E+04</pdfrwt>
<totfact> 0.59020985E-02</totfact>
</mgrwt>
</event>
<event>
 4    1  0.2514307E-008  0.7843814E+03  0.7818608E-02  0.9745644E-01
          1   -1    0    0  501    0  0.00000000000E+00  0.00000000000E+00  0.12133168862E+04  0.12133168862E+04  0.50400000000E-02 0. -1.
         -1   -1    0    0    0  501 -0.00000000000E+00 -0.00000000000E+00 -0.49477757100E+03  0.49477757103E+03  0.50400000000E-02 0.  1.
    8880023    1    1    2    0    0  0.39246260157E+03  0.16558083580E+03 -0.81815011798E+02  0.78863667758E+03  0.65864270000E+03 0.  1.
    8880022    1    1    2    0    0 -0.39246260157E+03 -0.16558083580E+03  0.80035432700E+03  0.91945777966E+03  0.15294330000E+03 0.  0.
<mgrwt>
<rscale>  0 0.68363001E+03</rscale>
<asrwt>0</asrwt>
<pdfrwt beam="1">  1        1 0.18666413E+00 0.78438136E+03</pdfrwt>
<pdfrwt beam="2">  1       -1 0.76119628E-01 0.78438136E+03</pdfrwt>
<totfact> 0.18602559E+01</totfact>
</mgrwt>
</event>
<event>
 4    1  0.2514307E-008  0.6773003E+03  0.7818608E-02  0.1010894E+00
         -1   -1    0    0    0  501 -0.00000000000E+00  0.00000000000E+00  0.14906508404E+03  0.14906508413E+03  0.50400000000E-02 0.  1.
          1   -1    0    0  501    0  0.00000000000E+00 -0.00000000000E+00 -0.28958890650E+04  0.28958890650E+04  0.50400000000E-02 0. -1.
    8880023    1    1    2    0    0  0.10110260942E+03  0.12125875847E+03 -0.65700020925E+03  0.94360209059E+03  0.65864270000E+03 0.  1.
    8880022    1    1    2    0    0 -0.10110260942E+03 -0.12125875847E+03 -0.20898237717E+04  0.21013520585E+04  0.15294330000E+03 0.  0.
<mgrwt>
<rscale>  0 0.51120902E+03</rscale>
<asrwt>0</asrwt>
<pdfrwt beam="1">  1        1 0.44552135E+00 0.67730025E+03</pdfrwt>
<pdfrwt beam="2">  1       -1 0.22933092E-01 0.67730025E+03</pdfrwt>
<totfact> 0.12373910E+01</totfact>
</mgrwt>
</event>
<event>
 4    1  0.2514307E-008  0.1107864E+04  0.7818608E-02  0.9252351E-01
          1   -1    0    0  501    0  0.00000000000E+00  0.00000000000E+00  0.22860865418E+04  0.22860865418E+04  0.50400000000E-02 0. -1.
         -1   -1    0    0    0  501 -0.00000000000E+00 -0.00000000000E+00 -0.49752808737E+03  0.49752808740E+03  0.50400000000E-02 0.  1.
    8880023    1    1    2    0    0  0.28082252088E+03  0.84539405633E+03  0.14354209409E+04  0.18132280283E+04  0.65864270000E+03 0.  0.
    8880022    1    1    2    0    0 -0.28082252088E+03 -0.84539405633E+03  0.35313751348E+03  0.97038660087E+03  0.15294330000E+03 0.  0.
<mgrwt>
<rscale>  0 0.10529042E+04</rscale>
<asrwt>0</asrwt>
<pdfrwt beam="1">  1        1 0.35170561E+00 0.11078640E+04</pdfrwt>
<pdfrwt beam="2">  1       -1 0.76542784E-01 0.11078640E+04</pdfrwt>
<totfact> 0.32630369E+00</totfact>
</mgrwt>
</event>
<event>
 4    1  0.2514307E-008  0.7867652E+03  0.7818608E-02  0.9740179E-01
         -1   -1    0    0    0  501 -0.00000000000E+00  0.00000000000E+00  0.16981944883E+04  0.16981944883E+04  0.50400000000E-02 0.  1.
          1   -1    0    0  501    0  0.00000000000E+00 -0.00000000000E+00 -0.53031593604E+03  0.53031593606E+03  0.50400000000E-02 0. -1.
    8880023    1    1    2    0    0 -0.23386272059E+03  0.36124441926E+03  0.14794544961E+04  0.16756446863E+04  0.65864270000E+03 0.  1.
    8880022    1    1    2    0    0  0.23386272059E+03 -0.36124441926E+03 -0.31157594383E+03  0.55286573805E+03  0.15294330000E+03 0.  0.
<mgrwt>
<rscale>  0 0.68674135E+03</rscale>
<asrwt>0</asrwt>
<pdfrwt beam="1">  1        1 0.81587068E-01 0.78676522E+03</pdfrwt>
<pdfrwt beam="2">  1       -1 0.26126069E+00 0.78676522E+03</pdfrwt>
<totfact> 0.24990811E+00</totfact>
</mgrwt>
</event>
<event>
 4    1  0.2514307E-008  0.6900192E+03  0.7818608E-02  0.1004143E+00
          1   -1    0    0  501    0  0.00000000000E+00  0.00000000000E+00  0.18616991615E+04  0.18616991615E+04  0.50400000000E-02 0. -1.
         -1   -1    0    0    0  501 -0.00000000000E+00 -0.00000000000E+00 -0.25257349497E+03  0.25257349502E+03  0.50400000000E-02 0.  1.
    8880023    1    1    2    0    0  0.11465856273E+03 -0.17079141382E+03  0.17059850593E+04  0.18402476795E+04  0.65864270000E+03 0. -1.
    8880022    1    1    2    0    0 -0.11465856273E+03  0.17079141382E+03 -0.96859392790E+02  0.27402497702E+03  0.15294330000E+03 0.  0.
<mgrwt>
<rscale>  0 0.53870142E+03</rscale>
<asrwt>0</asrwt>
<pdfrwt beam="1">  1        1 0.28641526E+00 0.69001920E+03</pdfrwt>
<pdfrwt beam="2">  1       -1 0.38857460E-01 0.69001920E+03</pdfrwt>
<totfact> 0.24853025E+01</totfact>
</mgrwt>
</event>
<event>
 4    1  0.2514307E-008  0.8046998E+03  0.7818608E-02  0.9700725E-01
          1   -1    0    0  501    0  0.00000000000E+00  0.00000000000E+00  0.11812518108E+04  0.11812518108E+04  0.50400000000E-02 0. -1.
         -1   -1    0    0    0  501 -0.00000000000E+00 -0.00000000000E+00 -0.63726935762E+03  0.63726935764E+03  0.50400000000E-02 0.  1.
    8880023    1    1    2    0    0 -0.45818761693E+03  0.61609288683E+02 -0.28785424677E+03  0.85463551904E+03  0.65864270000E+03 0.  1.
    8880022    1    1    2    0    0  0.45818761693E+03 -0.61609288683E+02  0.83183669995E+03  0.96388564942E+03  0.15294330000E+03 0.  0.
<mgrwt>
<rscale>  0 0.70973659E+03</rscale>
<asrwt>0</asrwt>
<pdfrwt beam="1">  1        1 0.18173105E+00 0.80469982E+03</pdfrwt>
<pdfrwt beam="2">  1       -1 0.98041441E-01 0.80469982E+03</pdfrwt>
<totfact> 0.11286528E+01</totfact>
</mgrwt>
</event>
<event>
 4    1  0.2514307E-008  0.6640723E+03  0.7818608E-02  0.1020325E+00
          1   -1    0    0  501    0  0.00000000000E+00  0.00000000000E+00  0.99410512827E+03  0.99410512828E+03  0.50400000000E-02 0. -1.
         -1   -1    0    0    0  501 -0.00000000000E+00 -0.00000000000E+00 -0.58475090831E+03  0.58475090833E+03  0.50400000000E-02 0.  1.
    8880023    1    1    2    0    0 -0.76709013696E+02  0.36021687908E+02 -0.38356539579E+03  0.76688620661E+03  0.65864270000E+03 0.  1.
    8880022    1    1    2    0    0  0.76709013696E+02 -0.36021687908E+02  0.79291961575E+03  0.81196983000E+03  0.15294330000E+03 0.  0.
<mgrwt>
<rscale>  0 0.47569617E+03</rscale>
<asrwt>0</asrwt>
<pdfrwt beam="1">  1        1 0.15293925E+00 0.66407232E+03</pdfrwt>
<pdfrwt beam="2">  1       -1 0.89961680E-01 0.66407232E+03</pdfrwt>
<totfact> 0.19246177E+01</totfact>
</mgrwt>
</event>
<event>
 4    1  0.2514307E-008  0.6846546E+03  0.7818608E-02  0.1006804E+00
         -1   -1    0    0    0  501 -0.00000000000E+00  0.00000000000E+00  0.13017621337E+04  0.13017621337E+04  0.50400000000E-02 0.  1.
          1   -1    0    0  501    0  0.00000000000E+00 -0.00000000000E+00 -0.11036786092E+04  0.11036786092E+04  0.50400000000E-02 0. -1.
    8880023    1    1    2    0    0 -0.10034485704E+03  0.15771040880E+03  0.11963313543E+04  0.13783905756E+04  0.65864270000E+03 0.  1.
    8880022    1    1    2    0    0  0.10034485704E+03 -0.15771040880E+03 -0.99824782982E+03  0.10270501673E+04  0.15294330000E+03 0.  0.
<mgrwt>
<rscale>  0 0.52764668E+03</rscale>
<asrwt>0</asrwt>
<pdfrwt beam="1">  1        1 0.16979671E+00 0.68465456E+03</pdfrwt>
<pdfrwt beam="2">  1       -1 0.20027110E+00 0.68465456E+03</pdfrwt>
<totfact> 0.19968729E+00</totfact>
</mgrwt>
</event>
<event>
 4    1  0.2514307E-008  0.7060713E+03  0.7818608E-02  0.9972890E-01
          1   -1    0    0  501    0  0.00000000000E+00  0.00000000000E+00  0.19132010956E+04  0.19132010956E+04  0.50400000000E-02 0. -1.
         -1   -1    0    0    0  501 -0.00000000000E+00 -0.00000000000E+00 -0.36243300035E+03  0.36243300039E+03  0.50400000000E-02 0.  1.
    8880023    1    1    2    0    0  0.20735402602E+03  0.14741381553E+03  0.95983128359E+01  0.70613657247E+03  0.65864270000E+03 0.  1.
    8880022    1    1    2    0    0 -0.20735402602E+03 -0.14741381553E+03  0.15411697824E+04  0.15694975235E+04  0.15294330000E+03 0.  0.
<mgrwt>
<rscale>  0 0.56855126E+03</rscale>
<asrwt>0</asrwt>
<pdfrwt beam="1">  1        1 0.29433864E+00 0.70607134E+03</pdfrwt>
<pdfrwt beam="2">  1       -1 0.55758922E-01 0.70607134E+03</pdfrwt>
<totfact> 0.11667264E+01</totfact>
</mgrwt>
</event>
<event>
 4    1  0.2514307E-008  0.8688129E+03  0.7818608E-02  0.9578075E-01
         -1   -1    0    0    0  501 -0.00000000000E+00  0.00000000000E+00  0.93945368168E+03  0.93945368169E+03  0.50400000000E-02 0.  1.
          1   -1    0    0  501    0  0.00000000000E+00 -0.00000000000E+00 -0.14364298598E+04  0.14364298598E+04  0.50400000000E-02 0. -1.
    8880023    1    1    2    0    0  0.53013753504E+03 -0.19994968750E+03  0.65163337105E+03  0.10860303587E+04  0.65864270000E+03 0.  1.
    8880022    1    1    2    0    0 -0.53013753504E+03  0.19994968750E+03 -0.11486095492E+04  0.12898531828E+04  0.15294330000E+03 0.  0.
<mgrwt>
<rscale>  0 0.78764465E+03</rscale>
<asrwt>0</asrwt>
<pdfrwt beam="1">  1        1 0.22098921E+00 0.86881292E+03</pdfrwt>
<pdfrwt beam="2">  1       -1 0.14453134E+00 0.86881292E+03</pdfrwt>
<totfact> 0.28579620E+00</totfact>
</mgrwt>
</event>
<event>
 4    1  0.2514307E-008  0.9943519E+03  0.7818608E-02  0.9388985E-01
          1   -1    0    0  501    0  0.00000000000E+00  0.00000000000E+00  0.32623113915E+04  0.32623113915E+04  0.50400000000E-02 0. -1.
         -1   -1    0    0    0  501 -0.00000000000E+00 -0.00000000000E+00 -0.60198746402E+03  0.60198746404E+03  0.50400000000E-02 0.  1.
    8880023    1    1    2    0    0  0.73489774169E+03  0.12186353862E+03 -0.10165987105E+03  0.99953506613E+03  0.65864270000E+03 0.  1.
    8880022    1    1    2    0    0 -0.73489774169E+03 -0.12186353862E+03  0.27619837985E+04  0.28647637894E+04  0.15294330000E+03 0.  0.
<mgrwt>
<rscale>  0 0.92987767E+03</rscale>
<asrwt>0</asrwt>
<pdfrwt beam="1">  1        1 0.50189405E+00 0.99435186E+03</pdfrwt>
<pdfrwt beam="2">  1       -1 0.92613457E-01 0.99435186E+03</pdfrwt>
<totfact> 0.44753304E-01</totfact>
</mgrwt>
</event>
<event>
 4    1  0.2514307E-008  0.1037506E+04  0.7818608E-02  0.9334053E-01
          1   -1    0    0  501    0  0.00000000000E+00  0.00000000000E+00  0.21317121992E+04  0.21317121992E+04  0.50400000000E-02 0. -1.
         -1   -1    0    0    0  501 -0.00000000000E+00 -0.00000000000E+00 -0.11260802161E+04  0.11260802161E+04  0.50400000000E-02 0.  1.
    8880023    1    1    2    0    0  0.78929445130E+03 -0.14008414612E+03 -0.77768363046E+03  0.12966153378E+04  0.65864270000E+03 0.  1.
    8880022    1    1    2    0    0 -0.78929445130E+03  0.14008414612E+03  0.17833156136E+04  0.19611770776E+04  0.15294330000E+03 0.  0.
<mgrwt>
<rscale>  0 0.97707396E+03</rscale>
<asrwt>0</asrwt>
<pdfrwt beam="1">  1        1 0.32795572E+00 0.10375064E+04</pdfrwt>
<pdfrwt beam="2">  1       -1 0.17324311E+00 0.10375064E+04</pdfrwt>
<totfact> 0.56889646E-01</totfact>
</mgrwt>
</event>
<event>
 4    1  0.2514307E-008  0.9241797E+03  0.7818608E-02  0.9488280E-01
         -1   -1    0    0    0  501 -0.00000000000E+00  0.00000000000E+00  0.10790688695E+04  0.10790688695E+04  0.50400000000E-02 0.  1.
          1   -1    0    0  501    0  0.00000000000E+00 -0.00000000000E+00 -0.16966396544E+04  0.16966396544E+04  0.50400000000E-02 0. -1.
    8880023    1    1    2    0    0 -0.69732274972E+02  0.64454274241E+03  0.79171741534E+03  0.12169324587E+04  0.65864270000E+03 0.  1.
    8880022    1    1    2    0    0  0.69732274972E+02 -0.64454274241E+03 -0.14092882003E+04  0.15587760652E+04  0.15294330000E+03 0.  0.
<mgrwt>
<rscale>  0 0.85153446E+03</rscale>
<asrwt>0</asrwt>
<pdfrwt beam="1">  1        1 0.26102148E+00 0.92417971E+03</pdfrwt>
<pdfrwt beam="2">  1       -1 0.16601060E+00 0.92417971E+03</pdfrwt>
<totfact> 0.12868360E+00</totfact>
</mgrwt>
</event>
<event>
 4    1  0.2514307E-008  0.9106882E+03  0.7818608E-02  0.9509087E-01
          1   -1    0    0  501    0  0.00000000000E+00  0.00000000000E+00  0.18500999459E+04  0.18500999459E+04  0.50400000000E-02 0. -1.
         -1   -1    0    0    0  501 -0.00000000000E+00 -0.00000000000E+00 -0.56088718055E+03  0.56088718057E+03  0.50400000000E-02 0.  1.
    8880023    1    1    2    0    0  0.21261151222E+03  0.59189459092E+03 -0.61953654693E+02  0.91279314386E+03  0.65864270000E+03 0.  1.
    8880022    1    1    2    0    0 -0.21261151222E+03 -0.59189459092E+03  0.13511664200E+04  0.14981939826E+04  0.15294330000E+03 0.  0.
<mgrwt>
<rscale>  0 0.83617189E+03</rscale>
<asrwt>0</asrwt>
<pdfrwt beam="1">  1        1 0.28463076E+00 0.91068824E+03</pdfrwt>
<pdfrwt beam="2">  1       -1 0.86290335E-01 0.91068824E+03</pdfrwt>
<totfact> 0.50977940E+00</totfact>
</mgrwt>
</event>
<event>
 4    1  0.2514307E-008  0.1282159E+04  0.7818608E-02  0.9081122E-01
         -1   -1    0    0    0  501 -0.00000000000E+00  0.00000000000E+00  0.16568506292E+04  0.16568506292E+04  0.50400000000E-02 0.  1.
          1   -1    0    0  501    0  0.00000000000E+00 -0.00000000000E+00 -0.10338216927E+04  0.10338216927E+04  0.50400000000E-02 0. -1.
    8880023    1    1    2    0    0  0.60588464471E+03  0.91816406722E+03  0.87441044827E+03  0.15519424266E+04  0.65864270000E+03 0.  0.
    8880022    1    1    2    0    0 -0.60588464471E+03 -0.91816406722E+03 -0.25138151176E+03  0.11387298953E+04  0.15294330000E+03 0.  0.
<mgrwt>
<rscale>  0 0.12369421E+04</rscale>
<asrwt>0</asrwt>
<pdfrwt beam="1">  1        1 0.15904949E+00 0.12821590E+04</pdfrwt>
<pdfrwt beam="2">  1       -1 0.25490009E+00 0.12821590E+04</pdfrwt>
<totfact> 0.89735524E-01</totfact>
</mgrwt>
</event>
<event>
 4    1  0.2514307E-008  0.9961634E+03  0.7818608E-02  0.9386594E-01
         -1   -1    0    0    0  501 -0.00000000000E+00  0.00000000000E+00  0.51565081364E+03  0.51565081367E+03  0.50400000000E-02 0.  1.
          1   -1    0    0  501    0  0.00000000000E+00 -0.00000000000E+00 -0.29529566994E+04  0.29529566994E+04  0.50400000000E-02 0. -1.
    8880023    1    1    2    0    0 -0.72394144857E+03 -0.18558060922E+03 -0.89725932941E+02  0.10001961472E+04  0.65864270000E+03 0.  0.
    8880022    1    1    2    0    0  0.72394144857E+03  0.18558060922E+03 -0.23475799528E+04  0.24684113659E+04  0.15294330000E+03 0.  0.
<mgrwt>
<rscale>  0 0.93187174E+03</rscale>
<asrwt>0</asrwt>
<pdfrwt beam="1">  1        1 0.45430102E+00 0.99616344E+03</pdfrwt>
<pdfrwt beam="2">  1       -1 0.79330896E-01 0.99616344E+03</pdfrwt>
<totfact> 0.10558102E+00</totfact>
</mgrwt>
</event>
<event>
 4    1  0.2514307E-008  0.8565902E+03  0.7818608E-02  0.9599658E-01
          1   -1    0    0  501    0  0.00000000000E+00  0.00000000000E+00  0.62492393593E+03  0.62492393595E+03  0.50400000000E-02 0. -1.
         -1   -1    0    0    0  501 -0.00000000000E+00 -0.00000000000E+00 -0.13123294956E+04  0.13123294956E+04  0.50400000000E-02 0.  1.
    8880023    1    1    2    0    0 -0.43139287546E+03 -0.33739707102E+03  0.20342613752E+03  0.88041410496E+03  0.65864270000E+03 0.  1.
    8880022    1    1    2    0    0  0.43139287546E+03  0.33739707102E+03 -0.89083169720E+03  0.10568393266E+04  0.15294330000E+03 0.  0.
<mgrwt>
<rscale>  0 0.77318833E+03</rscale>
<asrwt>0</asrwt>
<pdfrwt beam="1">  1        1 0.96142144E-01 0.85659022E+03</pdfrwt>
<pdfrwt beam="2">  1       -1 0.20189684E+00 0.85659022E+03</pdfrwt>
<totfact> 0.48145771E+00</totfact>
</mgrwt>
</event>
<event>
 4    1  0.2514307E-008  0.1405560E+04  0.7818608E-02  0.8979375E-01
          1   -1    0    0  501    0  0.00000000000E+00  0.00000000000E+00  0.21684243331E+04  0.21684243332E+04  0.50400000000E-02 0. -1.
         -1   -1    0    0    0  501 -0.00000000000E+00 -0.00000000000E+00 -0.14939244912E+04  0.14939244912E+04  0.50400000000E-02 0.  1.
    8880023    1    1    2    0    0  0.97448242426E+03 -0.76952677999E+03 -0.88657905293E+03  0.16618122889E+04  0.65864270000E+03 0.  0.
    8880022    1    1    2    0    0 -0.97448242426E+03  0.76952677999E+03  0.15610788949E+04  0.20005365354E+04  0.15294330000E+03 0.  0.
<mgrwt>
<rscale>  0 0.13652351E+04</rscale>
<asrwt>0</asrwt>
<pdfrwt beam="1">  1        1 0.33360374E+00 0.14055596E+04</pdfrwt>
<pdfrwt beam="2">  1       -1 0.22983454E+00 0.14055596E+04</pdfrwt>
<totfact> 0.20691036E-01</totfact>
</mgrwt>
</event>
<event>
 4    1  0.2514307E-008  0.7089942E+03  0.7818608E-02  0.9961755E-01
         -1   -1    0    0    0  501 -0.00000000000E+00  0.00000000000E+00  0.10499641163E+04  0.10499641163E+04  0.50400000000E-02 0.  1.
          1   -1    0    0  501    0  0.00000000000E+00 -0.00000000000E+00 -0.11317781641E+04  0.11317781641E+04  0.50400000000E-02 0. -1.
    8880023    1    1    2    0    0  0.17325304869E+03 -0.19709362042E+03  0.90476545266E+03  0.11494665044E+04  0.65864270000E+03 0.  0.
    8880022    1    1    2    0    0 -0.17325304869E+03  0.19709362042E+03 -0.98657950044E+03  0.10322757760E+04  0.15294330000E+03 0.  0.
<mgrwt>
<rscale>  0 0.57359485E+03</rscale>
<asrwt>0</asrwt>
<pdfrwt beam="1">  1        1 0.17411972E+00 0.70899416E+03</pdfrwt>
<pdfrwt beam="2">  1       -1 0.16153294E+00 0.70899416E+03</pdfrwt>
<totfact> 0.35760374E+00</totfact>
</mgrwt>
</event>
<event>
 4    1  0.1057486E-007  0.1280879E+04  0.7818608E-02  0.9082251E-01
          1   -1    0    0  501    0  0.00000000000E+00  0.00000000000E+00  0.35808672482E+04  0.35808672482E+04  0.50400000000E-02 0. -1.
         -1   -1    0    0    0  501 -0.00000000000E+00 -0.00000000000E+00 -0.19541594983E+04  0.19541594983E+04  0.50400000000E-02 0.  1.
    8880023    1    1    2    0    0  0.10074323952E+04  0.43808633096E+03 -0.16424378645E+04  0.20828470922E+04  0.65864270000E+03 0.  0.
    8880022    1    1    2    0    0 -0.10074323952E+04 -0.43808633096E+03  0.32691456144E+04  0.34521796543E+04  0.15294330000E+03 0.  0.
<mgrwt>
<rscale>  0 0.12356040E+04</rscale>
<asrwt>0</asrwt>
<pdfrwt beam="1">  1        1 0.55090265E+00 0.12808786E+04</pdfrwt>
<pdfrwt beam="2">  1       -1 0.30063992E+00 0.12808786E+04</pdfrwt>
<totfact> 0.69712137E-03</totfact>
</mgrwt>
</event>
<event>
 4    1  0.2514307E-008  0.9027001E+03  0.7818608E-02  0.9521711E-01
          1   -1    0    0  501    0  0.00000000000E+00  0.00000000000E+00  0.67933816089E+03  0.67933816090E+03  0.50400000000E-02 0. -1.
         -1   -1    0    0    0  501 -0.00000000000E+00 -0.00000000000E+00 -0.11713191849E+04  0.11713191849E+04  0.50400000000E-02 0.  1.
    8880023    1    1    2    0    0  0.24640647202E+03  0.56598692450E+03 -0.74079667484E+03  0.11677530851E+04  0.65864270000E+03 0.  0.
    8880022    1    1    2    0    0 -0.24640647202E+03 -0.56598692450E+03  0.24881565081E+03  0.68290426068E+03  0.15294330000E+03 0.  1.
<mgrwt>
<rscale>  0 0.82701923E+03</rscale>
<asrwt>0</asrwt>
<pdfrwt beam="1">  1        1 0.10451356E+00 0.90270015E+03</pdfrwt>
<pdfrwt beam="2">  1       -1 0.18020295E+00 0.90270015E+03</pdfrwt>
<totfact> 0.59966046E+00</totfact>
</mgrwt>
</event>
<event>
 4    1  0.2514307E-008  0.8747406E+03  0.7818608E-02  0.9567862E-01
         -1   -1    0    0    0  501 -0.00000000000E+00  0.00000000000E+00  0.16029885501E+04  0.16029885501E+04  0.50400000000E-02 0.  1.
          1   -1    0    0  501    0  0.00000000000E+00 -0.00000000000E+00 -0.71408752396E+03  0.71408752397E+03  0.50400000000E-02 0. -1.
    8880023    1    1    2    0    0  0.16926756454E+03 -0.55019039511E+03  0.13187954825E+04  0.15825273174E+04  0.65864270000E+03 0.  1.
    8880022    1    1    2    0    0 -0.16926756454E+03  0.55019039511E+03 -0.42989445640E+03  0.73454875668E+03  0.15294330000E+03 0.  0.
<mgrwt>
<rscale>  0 0.79460296E+03</rscale>
<asrwt>0</asrwt>
<pdfrwt beam="1">  1        1 0.10985962E+00 0.87474064E+03</pdfrwt>
<pdfrwt beam="2">  1       -1 0.24661362E+00 0.87474064E+03</pdfrwt>
<totfact> 0.19875484E+00</totfact>
</mgrwt>
</event>
<event>
 4    1  0.2514307E-008  0.8255185E+03  0.7818608E-02  0.9658116E-01
          1   -1    0    0  501    0  0.00000000000E+00  0.00000000000E+00  0.10294669026E+04  0.10294669026E+04  0.50400000000E-02 0. -1.
         -1   -1    0    0    0  501 -0.00000000000E+00 -0.00000000000E+00 -0.13037907038E+04  0.13037907039E+04  0.50400000000E-02 0.  1.
    8880023    1    1    2    0    0  0.46087209670E+03  0.18779647606E+03 -0.10889383034E+04  0.13664799453E+04  0.65864270000E+03 0.  1.
    8880022    1    1    2    0    0 -0.46087209670E+03 -0.18779647606E+03  0.81461450219E+03  0.96677766116E+03  0.15294330000E+03 0.  0.
<mgrwt>
<rscale>  0 0.73566271E+03</rscale>
<asrwt>0</asrwt>
<pdfrwt beam="1">  1        1 0.15837952E+00 0.82551851E+03</pdfrwt>
<pdfrwt beam="2">  1       -1 0.20058319E+00 0.82551851E+03</pdfrwt>
<totfact> 0.22045249E+00</totfact>
</mgrwt>
</event>
<event>
 4    1  0.2514307E-008  0.1367616E+04  0.7818608E-02  0.9009263E-01
         -1   -1    0    0    0  501 -0.00000000000E+00  0.00000000000E+00  0.11486114892E+04  0.11486114892E+04  0.50400000000E-02 0.  1.
          1   -1    0    0  501    0  0.00000000000E+00 -0.00000000000E+00 -0.27832836586E+04  0.27832836586E+04  0.50400000000E-02 0. -1.
    8880023    1    1    2    0    0  0.86235678359E+03  0.83240853653E+03  0.51871209314E+03  0.14626809754E+04  0.65864270000E+03 0.  0.
    8880022    1    1    2    0    0 -0.86235678359E+03 -0.83240853653E+03 -0.21533842626E+04  0.24692141724E+04  0.15294330000E+03 0.  0.
<mgrwt>
<rscale>  0 0.13259146E+04</rscale>
<asrwt>0</asrwt>
<pdfrwt beam="1">  1        1 0.42819748E+00 0.13676160E+04</pdfrwt>
<pdfrwt beam="2">  1       -1 0.17670946E+00 0.13676160E+04</pdfrwt>
<totfact> 0.18167449E-01</totfact>
</mgrwt>
</event>
<event>
 4    1  0.2514307E-008  0.7778920E+03  0.7818608E-02  0.9760812E-01
         -1   -1    0    0    0  501 -0.00000000000E+00  0.00000000000E+00  0.11870713659E+04  0.11870713659E+04  0.50400000000E-02 0.  1.
          1   -1    0    0  501    0  0.00000000000E+00 -0.00000000000E+00 -0.81183812142E+03  0.81183812144E+03  0.50400000000E-02 0. -1.
    8880023    1    1    2    0    0 -0.12688947292E+03  0.39396039644E+03  0.97942052829E+03  0.12507519777E+04  0.65864270000E+03 0.  1.
    8880022    1    1    2    0    0  0.12688947292E+03 -0.39396039644E+03 -0.60418728380E+03  0.74815750963E+03  0.15294330000E+03 0.  0.
<mgrwt>
<rscale>  0 0.67508660E+03</rscale>
<asrwt>0</asrwt>
<pdfrwt beam="1">  1        1 0.12489817E+00 0.77789198E+03</pdfrwt>
<pdfrwt beam="2">  1       -1 0.18262636E+00 0.77789198E+03</pdfrwt>
<totfact> 0.44424498E+00</totfact>
</mgrwt>
</event>
<event>
 4    1  0.2514307E-008  0.7999952E+03  0.7818608E-02  0.9710807E-01
         -1   -1    0    0    0  501 -0.00000000000E+00  0.00000000000E+00  0.13371295686E+04  0.13371295687E+04  0.50400000000E-02 0.  1.
          1   -1    0    0  501    0  0.00000000000E+00 -0.00000000000E+00 -0.50830219067E+03  0.50830219069E+03  0.50400000000E-02 0. -1.
    8880023    1    1    2    0    0 -0.29981675464E+03 -0.34101606116E+03  0.10480823570E+04  0.13185100961E+04  0.65864270000E+03 0.  0.
    8880022    1    1    2    0    0  0.29981675464E+03  0.34101606116E+03 -0.21925497900E+03  0.52692166321E+03  0.15294330000E+03 0.  0.
<mgrwt>
<rscale>  0 0.70377005E+03</rscale>
<asrwt>0</asrwt>
<pdfrwt beam="1">  1        1 0.78200335E-01 0.79999515E+03</pdfrwt>
<pdfrwt beam="2">  1       -1 0.20571225E+00 0.79999515E+03</pdfrwt>
<totfact> 0.61244046E+00</totfact>
</mgrwt>
</event>
<event>
 4    1  0.2514307E-008  0.8265653E+03  0.7818608E-02  0.9656052E-01
          1   -1    0    0  501    0  0.00000000000E+00  0.00000000000E+00  0.23027066330E+04  0.23027066330E+04  0.50400000000E-02 0. -1.
         -1   -1    0    0    0  501 -0.00000000000E+00 -0.00000000000E+00 -0.70386279014E+03  0.70386279016E+03  0.50400000000E-02 0.  1.
    8880023    1    1    2    0    0 -0.86170236392E+02  0.49190927292E+03 -0.41584767842E+03  0.92527808811E+03  0.65864270000E+03 0.  1.
    8880022    1    1    2    0    0  0.86170236392E+02 -0.49190927292E+03  0.20146915213E+04  0.20812913351E+04  0.15294330000E+03 0.  0.
<mgrwt>
<rscale>  0 0.73694790E+03</rscale>
<asrwt>0</asrwt>
<pdfrwt beam="1">  1        1 0.35426257E+00 0.82656533E+03</pdfrwt>
<pdfrwt beam="2">  1       -1 0.10828658E+00 0.82656533E+03</pdfrwt>
<totfact> 0.15346102E+00</totfact>
</mgrwt>
</event>
<event>
 4    1  0.2514307E-008  0.9955632E+03  0.7818608E-02  0.9387385E-01
         -1   -1    0    0    0  501 -0.00000000000E+00  0.00000000000E+00  0.13258924013E+04  0.13258924013E+04  0.50400000000E-02 0.  1.
          1   -1    0    0  501    0  0.00000000000E+00 -0.00000000000E+00 -0.15402766023E+04  0.15402766023E+04  0.50400000000E-02 0. -1.
    8880023    1    1    2    0    0  0.54662034470E+03  0.50847035676E+03  0.10137245598E+04  0.14208390459E+04  0.65864270000E+03 0.  1.
    8880022    1    1    2    0    0 -0.54662034470E+03 -0.50847035676E+03 -0.12281087609E+04  0.14453299577E+04  0.15294330000E+03 0.  0.
<mgrwt>
<rscale>  0 0.93121119E+03</rscale>
<asrwt>0</asrwt>
<pdfrwt beam="1">  1        1 0.23696563E+00 0.99556321E+03</pdfrwt>
<pdfrwt beam="2">  1       -1 0.20398345E+00 0.99556321E+03</pdfrwt>
<totfact> 0.87423358E-01</totfact>
</mgrwt>
</event>
<event>
 4    1  0.2881474E-008  0.1309049E+04  0.7818608E-02  0.9057785E-01
         -1   -1    0    0    0  501 -0.00000000000E+00  0.00000000000E+00  0.21341744494E+04  0.21341744494E+04  0.50400000000E-02 0.  1.
          1   -1    0    0  501    0  0.00000000000E+00 -0.00000000000E+00 -0.18800427768E+04  0.18800427768E+04  0.50400000000E-02 0. -1.
    8880023    1    1    2    0    0 -0.87141506652E+03  0.72141134311E+03  0.17167105076E+04  0.21588663037E+04  0.65864270000E+03 0.  1.
    8880022    1    1    2    0    0  0.87141506652E+03 -0.72141134311E+03 -0.14625788350E+04  0.18553509225E+04  0.15294330000E+03 0.  0.
<mgrwt>
<rscale>  0 0.12650068E+04</rscale>
<asrwt>0</asrwt>
<pdfrwt beam="1">  1        1 0.28923735E+00 0.13090488E+04</pdfrwt>
<pdfrwt beam="2">  1       -1 0.32833453E+00 0.13090488E+04</pdfrwt>
<totfact> 0.75283720E-02</totfact>
</mgrwt>
</event>
<event>
 4    1  0.2514307E-008  0.7009802E+03  0.7818608E-02  0.9993159E-01
          1   -1    0    0  501    0  0.00000000000E+00  0.00000000000E+00  0.57317458240E+03  0.57317458242E+03  0.50400000000E-02 0. -1.
         -1   -1    0    0    0  501 -0.00000000000E+00 -0.00000000000E+00 -0.58903857810E+03  0.58903857812E+03  0.50400000000E-02 0.  1.
    8880023    1    1    2    0    0  0.20746239459E+03  0.12050889050E+03 -0.29784095905E+03  0.76163146009E+03  0.65864270000E+03 0.  1.
    8880022    1    1    2    0    0 -0.20746239459E+03 -0.12050889050E+03  0.28197696335E+03  0.40058170045E+03  0.15294330000E+03 0.  0.
<mgrwt>
<rscale>  0 0.55951221E+03</rscale>
<asrwt>0</asrwt>
<pdfrwt beam="1">  1        1 0.88180705E-01 0.70098020E+03</pdfrwt>
<pdfrwt beam="2">  1       -1 0.90621320E-01 0.70098020E+03</pdfrwt>
<totfact> 0.44688085E+01</totfact>
</mgrwt>
</event>
<event>
 4    1  0.2514307E-008  0.7954317E+03  0.7818608E-02  0.9720762E-01
          1   -1    0    0  501    0  0.00000000000E+00  0.00000000000E+00  0.14603555174E+04  0.14603555174E+04  0.50400000000E-02 0. -1.
         -1   -1    0    0    0  501 -0.00000000000E+00 -0.00000000000E+00 -0.33075787549E+03  0.33075787553E+03  0.50400000000E-02 0.  1.
    8880023    1    1    2    0    0  0.38595291239E+03  0.22347634336E+03  0.32647409235E+03  0.85982374116E+03  0.65864270000E+03 0.  0.
    8880022    1    1    2    0    0 -0.38595291239E+03 -0.22347634336E+03  0.80312354953E+03  0.93128965175E+03  0.15294330000E+03 0.  1.
<mgrwt>
<rscale>  0 0.69793966E+03</rscale>
<asrwt>0</asrwt>
<pdfrwt beam="1">  1        1 0.22467007E+00 0.79543166E+03</pdfrwt>
<pdfrwt beam="2">  1       -1 0.50885828E-01 0.79543166E+03</pdfrwt>
<totfact> 0.27770558E+01</totfact>
</mgrwt>
</event>
<event>
 4    1  0.2514307E-008  0.1073995E+04  0.7818608E-02  0.9290577E-01
          1   -1    0    0  501    0  0.00000000000E+00  0.00000000000E+00  0.19838510165E+04  0.19838510166E+04  0.50400000000E-02 0. -1.
         -1   -1    0    0    0  501 -0.00000000000E+00 -0.00000000000E+00 -0.85600036797E+03  0.85600036798E+03  0.50400000000E-02 0.  1.
    8880023    1    1    2    0    0  0.82960827003E+02  0.84425816864E+03 -0.34948163568E+03  0.11294255062E+04  0.65864270000E+03 0.  0.
    8880022    1    1    2    0    0 -0.82960827003E+02 -0.84425816864E+03  0.14773322843E+04  0.17104258783E+04  0.15294330000E+03 0.  0.
<mgrwt>
<rscale>  0 0.10165496E+04</rscale>
<asrwt>0</asrwt>
<pdfrwt beam="1">  1        1 0.30520784E+00 0.10739947E+04</pdfrwt>
<pdfrwt beam="2">  1       -1 0.13169237E+00 0.10739947E+04</pdfrwt>
<totfact> 0.14999240E+00</totfact>
</mgrwt>
</event>
<event>
 4    1  0.2514307E-008  0.8068734E+03  0.7818608E-02  0.9696127E-01
          1   -1    0    0  501    0  0.00000000000E+00  0.00000000000E+00  0.12141949033E+04  0.12141949033E+04  0.50400000000E-02 0. -1.
         -1   -1    0    0    0  501 -0.00000000000E+00 -0.00000000000E+00 -0.10316914711E+04  0.10316914711E+04  0.50400000000E-02 0.  1.
    8880023    1    1    2    0    0  0.25523143960E+03  0.38998901950E+03 -0.80717819099E+03  0.11413068656E+04  0.65864270000E+03 0.  1.
    8880022    1    1    2    0    0 -0.25523143960E+03 -0.38998901950E+03  0.98968162319E+03  0.11045795089E+04  0.15294330000E+03 0.  0.
<mgrwt>
<rscale>  0 0.71247876E+03</rscale>
<asrwt>0</asrwt>
<pdfrwt beam="1">  1        1 0.18679922E+00 0.80687343E+03</pdfrwt>
<pdfrwt beam="2">  1       -1 0.15872176E+00 0.80687343E+03</pdfrwt>
<totfact> 0.32159745E+00</totfact>
</mgrwt>
</event>
<event>
 4    1  0.2514307E-008  0.9796937E+03  0.7818608E-02  0.9408620E-01
          1   -1    0    0  501    0  0.00000000000E+00  0.00000000000E+00  0.65396323343E+03  0.65396323345E+03  0.50400000000E-02 0. -1.
         -1   -1    0    0    0  501 -0.00000000000E+00 -0.00000000000E+00 -0.30059105465E+04  0.30059105465E+04  0.50400000000E-02 0.  1.
    8880023    1    1    2    0    0 -0.12150798872E+03  0.71500021258E+03 -0.26769191274E+04  0.28505605968E+04  0.65864270000E+03 0.  0.
    8880022    1    1    2    0    0  0.12150798872E+03 -0.71500021258E+03  0.32497181429E+03  0.80931318315E+03  0.15294330000E+03 0.  0.
<mgrwt>
<rscale>  0 0.91369647E+03</rscale>
<asrwt>0</asrwt>
<pdfrwt beam="1">  1        1 0.10060973E+00 0.97969368E+03</pdfrwt>
<pdfrwt beam="2">  1       -1 0.46244777E+00 0.97969368E+03</pdfrwt>
<totfact> 0.82553286E-02</totfact>
</mgrwt>
</event>
<event>
 4    1  0.2514307E-008  0.1069785E+04  0.7818608E-02  0.9295467E-01
          1   -1    0    0  501    0  0.00000000000E+00  0.00000000000E+00  0.16101296667E+04  0.16101296667E+04  0.50400000000E-02 0. -1.
         -1   -1    0    0    0  501 -0.00000000000E+00 -0.00000000000E+00 -0.74406137857E+03  0.74406137859E+03  0.50400000000E-02 0.  1.
    8880023    1    1    2    0    0 -0.84245623748E+03  0.29947696193E+02 -0.86185175265E+02  0.10732508874E+04  0.65864270000E+03 0.  0.
    8880022    1    1    2    0    0  0.84245623748E+03 -0.29947696193E+02  0.95225346337E+03  0.12809401579E+04  0.15294330000E+03 0.  1.
<mgrwt>
<rscale>  0 0.10120125E+04</rscale>
<asrwt>0</asrwt>
<pdfrwt beam="1">  1        1 0.24771225E+00 0.10697848E+04</pdfrwt>
<pdfrwt beam="2">  1       -1 0.11447098E+00 0.10697848E+04</pdfrwt>
<totfact> 0.38030329E+00</totfact>
</mgrwt>
</event>
<event>
 4    1  0.2514307E-008  0.6594416E+03  0.7818608E-02  0.1024736E+00
          1   -1    0    0  501    0  0.00000000000E+00  0.00000000000E+00  0.12487344895E+04  0.12487344895E+04  0.50400000000E-02 0. -1.
         -1   -1    0    0    0  501 -0.00000000000E+00 -0.00000000000E+00 -0.62544904124E+03  0.62544904126E+03  0.50400000000E-02 0.  1.
    8880023    1    1    2    0    0  0.31020857187E+02  0.95256756224E+01 -0.44433800953E+03  0.79517262595E+03  0.65864270000E+03 0.  1.
    8880022    1    1    2    0    0 -0.31020857187E+02 -0.95256756224E+01  0.10676234578E+04  0.10790109048E+04  0.15294330000E+03 0.  0.
<mgrwt>
<rscale>  0 0.46015624E+03</rscale>
<asrwt>0</asrwt>
<pdfrwt beam="1">  1        1 0.19211300E+00 0.65944161E+03</pdfrwt>
<pdfrwt beam="2">  1       -1 0.96222931E-01 0.65944161E+03</pdfrwt>
<totfact> 0.10749774E+01</totfact>
</mgrwt>
</event>
<event>
 4    1  0.2514307E-008  0.1150597E+04  0.7818608E-02  0.9206709E-01
         -1   -1    0    0    0  501 -0.00000000000E+00  0.00000000000E+00  0.61594830043E+03  0.61594830046E+03  0.50400000000E-02 0.  1.
          1   -1    0    0  501    0  0.00000000000E+00 -0.00000000000E+00 -0.23516016525E+04  0.23516016525E+04  0.50400000000E-02 0. -1.
    8880023    1    1    2    0    0 -0.63650549853E+03  0.69636463044E+03 -0.21353046258E+03  0.11702428863E+04  0.65864270000E+03 0.  1.
    8880022    1    1    2    0    0  0.63650549853E+03 -0.69636463044E+03 -0.15221228895E+04  0.17973070667E+04  0.15294330000E+03 0.  0.
<mgrwt>
<rscale>  0 0.10984449E+04</rscale>
<asrwt>0</asrwt>
<pdfrwt beam="1">  1        1 0.36178486E+00 0.11505969E+04</pdfrwt>
<pdfrwt beam="2">  1       -1 0.94761278E-01 0.11505969E+04</pdfrwt>
<totfact> 0.18387145E+00</totfact>
</mgrwt>
</event>
<event>
 4    1  0.2514307E-008  0.7335613E+03  0.7818608E-02  0.9879116E-01
         -1   -1    0    0    0  501 -0.00000000000E+00  0.00000000000E+00  0.70094405031E+03  0.70094405032E+03  0.50400000000E-02 0.  1.
          1   -1    0    0  501    0  0.00000000000E+00 -0.00000000000E+00 -0.17128916377E+04  0.17128916377E+04  0.50400000000E-02 0. -1.
    8880023    1    1    2    0    0  0.30891133453E+03 -0.94211507882E+02  0.48200034985E+03  0.87774515911E+03  0.65864270000E+03 0.  1.
    8880022    1    1    2    0    0 -0.30891133453E+03  0.94211507882E+02 -0.14939479373E+04  0.15360905289E+04  0.15294330000E+03 0.  0.
<mgrwt>
<rscale>  0 0.61284196E+03</rscale>
<asrwt>0</asrwt>
<pdfrwt beam="1">  1        1 0.26352179E+00 0.73356133E+03</pdfrwt>
<pdfrwt beam="2">  1       -1 0.10783755E+00 0.73356133E+03</pdfrwt>
<totfact> 0.39199602E+00</totfact>
</mgrwt>
</event>
<event>
 4    1  0.2514307E-008  0.1053586E+04  0.7818608E-02  0.9314583E-01
          1   -1    0    0  501    0  0.00000000000E+00  0.00000000000E+00  0.72066462487E+03  0.72066462489E+03  0.50400000000E-02 0. -1.
         -1   -1    0    0    0  501 -0.00000000000E+00 -0.00000000000E+00 -0.17715543499E+04  0.17715543499E+04  0.50400000000E-02 0.  1.
    8880023    1    1    2    0    0  0.16218797853E+03 -0.80618150280E+03 -0.12476061510E+04  0.16329619929E+04  0.65864270000E+03 0.  0.
    8880022    1    1    2    0    0 -0.16218797853E+03  0.80618150280E+03  0.19671642593E+03  0.85925698198E+03  0.15294330000E+03 0.  0.
<mgrwt>
<rscale>  0 0.99451358E+03</rscale>
<asrwt>0</asrwt>
<pdfrwt beam="1">  1        1 0.11087148E+00 0.10535861E+04</pdfrwt>
<pdfrwt beam="2">  1       -1 0.27254682E+00 0.10535861E+04</pdfrwt>
<totfact> 0.13003868E+00</totfact>
</mgrwt>
</event>
<event>
 4    1  0.2514307E-008  0.8743245E+03  0.7818608E-02  0.9568574E-01
         -1   -1    0    0    0  501 -0.00000000000E+00  0.00000000000E+00  0.10646635379E+04  0.10646635379E+04  0.50400000000E-02 0.  1.
          1   -1    0    0  501    0  0.00000000000E+00 -0.00000000000E+00 -0.92267198868E+03  0.92267198869E+03  0.50400000000E-02 0. -1.
    8880023    1    1    2    0    0 -0.37216282462E+03  0.43832401212E+03  0.73874765504E+03  0.11446359298E+04  0.65864270000E+03 0.  1.
    8880022    1    1    2    0    0  0.37216282462E+03 -0.43832401212E+03 -0.59675610583E+03  0.84269959683E+03  0.15294330000E+03 0.  0.
<mgrwt>
<rscale>  0 0.79411553E+03</rscale>
<asrwt>0</asrwt>
<pdfrwt beam="1">  1        1 0.14194954E+00 0.87432449E+03</pdfrwt>
<pdfrwt beam="2">  1       -1 0.16379439E+00 0.87432449E+03</pdfrwt>
<totfact> 0.48575277E+00</totfact>
</mgrwt>
</event>
<event>
 4    1  0.2514307E-008  0.1530267E+04  0.7818608E-02  0.8888554E-01
          1   -1    0    0  501    0  0.00000000000E+00  0.00000000000E+00  0.19926042818E+04  0.19926042818E+04  0.50400000000E-02 0. -1.
         -1   -1    0    0    0  501 -0.00000000000E+00 -0.00000000000E+00 -0.24052519789E+04  0.24052519789E+04  0.50400000000E-02 0.  1.
    8880023    1    1    2    0    0 -0.12691376468E+04 -0.54515854344E+03 -0.18484268369E+04  0.23996666813E+04  0.65864270000E+03 0.  0.
    8880022    1    1    2    0    0  0.12691376468E+04  0.54515854344E+03  0.14357791398E+04  0.19981895794E+04  0.15294330000E+03 0.  0.
<mgrwt>
<rscale>  0 0.14938490E+04</rscale>
<asrwt>0</asrwt>
<pdfrwt beam="1">  1        1 0.30655451E+00 0.15302674E+04</pdfrwt>
<pdfrwt beam="2">  1       -1 0.37003876E+00 0.15302674E+04</pdfrwt>
<totfact> 0.32372756E-02</totfact>
</mgrwt>
</event>
<event>
 4    1  0.2514307E-008  0.7990587E+03  0.7818608E-02  0.9712835E-01
          1   -1    0    0  501    0  0.00000000000E+00  0.00000000000E+00  0.12091044437E+04  0.12091044437E+04  0.50400000000E-02 0. -1.
         -1   -1    0    0    0  501 -0.00000000000E+00 -0.00000000000E+00 -0.59637468806E+03  0.59637468808E+03  0.50400000000E-02 0.  1.
    8880023    1    1    2    0    0 -0.19928895710E+03  0.40616314874E+03 -0.23463951706E+03  0.83279679457E+03  0.65864270000E+03 0.  1.
    8880022    1    1    2    0    0  0.19928895710E+03 -0.40616314874E+03  0.84736927272E+03  0.97268233724E+03  0.15294330000E+03 0.  0.
<mgrwt>
<rscale>  0 0.70257715E+03</rscale>
<asrwt>0</asrwt>
<pdfrwt beam="1">  1        1 0.18601607E+00 0.79905870E+03</pdfrwt>
<pdfrwt beam="2">  1       -1 0.91749953E-01 0.79905870E+03</pdfrwt>
<totfact> 0.12507591E+01</totfact>
</mgrwt>
</event>
<event>
 4    1  0.2514307E-008  0.1041302E+04  0.7818608E-02  0.9329412E-01
         -1   -1    0    0    0  501 -0.00000000000E+00  0.00000000000E+00  0.14660926616E+04  0.14660926616E+04  0.50400000000E-02 0.  1.
          1   -1    0    0  501    0  0.00000000000E+00 -0.00000000000E+00 -0.12865667198E+04  0.12865667198E+04  0.50400000000E-02 0. -1.
    8880023    1    1    2    0    0  0.78725796223E+03 -0.17528246363E+03  0.11031265271E+04  0.15169698026E+04  0.65864270000E+03 0.  0.
    8880022    1    1    2    0    0 -0.78725796223E+03  0.17528246363E+03 -0.92360058524E+03  0.12356895788E+04  0.15294330000E+03 0.  0.
<mgrwt>
<rscale>  0 0.98119679E+03</rscale>
<asrwt>0</asrwt>
<pdfrwt beam="1">  1        1 0.19793334E+00 0.10413017E+04</pdfrwt>
<pdfrwt beam="2">  1       -1 0.22555272E+00 0.10413017E+04</pdfrwt>
<totfact> 0.93556494E-01</totfact>
</mgrwt>
</event>
<event>
 4    1  0.2514307E-008  0.7230769E+03  0.7818608E-02  0.9912309E-01
          1   -1    0    0  501    0  0.00000000000E+00  0.00000000000E+00  0.15192682394E+04  0.15192682394E+04  0.50400000000E-02 0. -1.
         -1   -1    0    0    0  501 -0.00000000000E+00 -0.00000000000E+00 -0.12137510963E+04  0.12137510963E+04  0.50400000000E-02 0.  1.
    8880023    1    1    2    0    0 -0.32384044581E+02  0.29661645195E+03 -0.10843256694E+04  0.13033044193E+04  0.65864270000E+03 0.  0.
    8880022    1    1    2    0    0  0.32384044581E+02 -0.29661645195E+03  0.13898428125E+04  0.14297149164E+04  0.15294330000E+03 0. -1.
<mgrwt>
<rscale>  0 0.59668435E+03</rscale>
<asrwt>0</asrwt>
<pdfrwt beam="1">  1        1 0.23373357E+00 0.72307693E+03</pdfrwt>
<pdfrwt beam="2">  1       -1 0.18673094E+00 0.72307693E+03</pdfrwt>
<totfact> 0.12493628E+00</totfact>
</mgrwt>
</event>
<event>
 4    1  0.2514307E-008  0.1257249E+04  0.7818608E-02  0.9103386E-01
          1   -1    0    0  501    0  0.00000000000E+00  0.00000000000E+00  0.17970476542E+04  0.17970476542E+04  0.50400000000E-02 0. -1.
         -1   -1    0    0    0  501 -0.00000000000E+00 -0.00000000000E+00 -0.13247492265E+04  0.13247492265E+04  0.50400000000E-02 0.  1.
    8880023    1    1    2    0    0 -0.16256893127E+03  0.10585069283E+04 -0.77015841995E+03  0.14743879315E+04  0.65864270000E+03 0.  0.
    8880022    1    1    2    0    0  0.16256893127E+03 -0.10585069283E+04  0.12424568476E+04  0.16474089492E+04  0.15294330000E+03 0.  0.
<mgrwt>
<rscale>  0 0.12108803E+04</rscale>
<asrwt>0</asrwt>
<pdfrwt beam="1">  1        1 0.27646887E+00 0.12572493E+04</pdfrwt>
<pdfrwt beam="2">  1       -1 0.20380757E+00 0.12572493E+04</pdfrwt>
<totfact> 0.56437839E-01</totfact>
</mgrwt>
</event>
<event>
 4    1  0.2514307E-008  0.1292954E+04  0.7818608E-02  0.9071668E-01
          1   -1    0    0  501    0  0.00000000000E+00  0.00000000000E+00  0.25136741536E+04  0.25136741536E+04  0.50400000000E-02 0. -1.
         -1   -1    0    0    0  501 -0.00000000000E+00 -0.00000000000E+00 -0.99929835622E+03  0.99929835623E+03  0.50400000000E-02 0.  1.
    8880023    1    1    2    0    0 -0.56522702879E+03  0.95835197521E+03 -0.34728743157E+03  0.13387826070E+04  0.65864270000E+03 0.  0.
    8880022    1    1    2    0    0  0.56522702879E+03 -0.95835197521E+03  0.18616632290E+04  0.21741899028E+04  0.15294330000E+03 0.  0.
<mgrwt>
<rscale>  0 0.12482171E+04</rscale>
<asrwt>0</asrwt>
<pdfrwt beam="1">  1        1 0.38671909E+00 0.12929541E+04</pdfrwt>
<pdfrwt beam="2">  1       -1 0.15373821E+00 0.12929541E+04</pdfrwt>
<totfact> 0.42134176E-01</totfact>
</mgrwt>
</event>
<event>
 4    1  0.2514307E-008  0.1416934E+04  0.7818608E-02  0.8970635E-01
         -1   -1    0    0    0  501 -0.00000000000E+00  0.00000000000E+00  0.12443871644E+04  0.12443871644E+04  0.50400000000E-02 0.  1.
          1   -1    0    0  501    0  0.00000000000E+00 -0.00000000000E+00 -0.22003426896E+04  0.22003426896E+04  0.50400000000E-02 0. -1.
    8880023    1    1    2    0    0  0.40786218305E+03  0.11863977107E+04  0.51297972880E+03  0.15069338064E+04  0.65864270000E+03 0.  1.
    8880022    1    1    2    0    0 -0.40786218305E+03 -0.11863977107E+04 -0.14689352540E+04  0.19377960476E+04  0.15294330000E+03 0.  0.
<mgrwt>
<rscale>  0 0.13770030E+04</rscale>
<asrwt>0</asrwt>
<pdfrwt beam="1">  1        1 0.33851426E+00 0.14169338E+04</pdfrwt>
<pdfrwt beam="2">  1       -1 0.19144418E+00 0.14169338E+04</pdfrwt>
<totfact> 0.35902198E-01</totfact>
</mgrwt>
</event>
<event>
 4    1  0.2514307E-008  0.1129755E+04  0.7818608E-02  0.9228629E-01
          1   -1    0    0  501    0  0.00000000000E+00  0.00000000000E+00  0.85199491567E+03  0.85199491568E+03  0.50400000000E-02 0. -1.
         -1   -1    0    0    0  501 -0.00000000000E+00 -0.00000000000E+00 -0.14758046615E+04  0.14758046615E+04  0.50400000000E-02 0.  1.
    8880023    1    1    2    0    0  0.25417770742E+02 -0.91754566741E+03 -0.79525567872E+03  0.13815852908E+04  0.65864270000E+03 0.  0.
    8880022    1    1    2    0    0 -0.25417770742E+02  0.91754566741E+03  0.17144593292E+03  0.94621428640E+03  0.15294330000E+03 0.  0.
<mgrwt>
<rscale>  0 0.10762754E+04</rscale>
<asrwt>0</asrwt>
<pdfrwt beam="1">  1        1 0.13107614E+00 0.11297550E+04</pdfrwt>
<pdfrwt beam="2">  1       -1 0.22704687E+00 0.11297550E+04</pdfrwt>
<totfact> 0.19508651E+00</totfact>
</mgrwt>
</event>
<event>
 4    1  0.2514307E-008  0.6596025E+03  0.7818608E-02  0.1024567E+00
         -1   -1    0    0    0  501 -0.00000000000E+00  0.00000000000E+00  0.16456414916E+03  0.16456414924E+03  0.50400000000E-02 0.  1.
          1   -1    0    0  501    0  0.00000000000E+00 -0.00000000000E+00 -0.16944583292E+04  0.16944583292E+04  0.50400000000E-02 0. -1.
    8880023    1    1    2    0    0  0.14420204693E+02 -0.32516885063E+02 -0.52801178158E+03  0.84490942584E+03  0.65864270000E+03 0.  1.
    8880022    1    1    2    0    0 -0.14420204693E+02  0.32516885063E+02 -0.10018823984E+04  0.10141130526E+04  0.15294330000E+03 0.  0.
<mgrwt>
<rscale>  0 0.46073811E+03</rscale>
<asrwt>0</asrwt>
<pdfrwt beam="1">  1        1 0.26068588E+00 0.65960253E+03</pdfrwt>
<pdfrwt beam="2">  1       -1 0.25317563E-01 0.65960253E+03</pdfrwt>
<totfact> 0.68385801E+01</totfact>
</mgrwt>
</event>
<event>
 4    1  0.2514307E-008  0.7035170E+03  0.7818608E-02  0.9982913E-01
         -1   -1    0    0    0  501 -0.00000000000E+00  0.00000000000E+00  0.10085413483E+04  0.10085413483E+04  0.50400000000E-02 0.  1.
          1   -1    0    0  501    0  0.00000000000E+00 -0.00000000000E+00 -0.84803247077E+03  0.84803247079E+03  0.50400000000E-02 0. -1.
    8880023    1    1    2    0    0 -0.19807178707E+03 -0.14796455095E+03  0.85290898779E+03  0.11056174243E+04  0.65864270000E+03 0.  1.
    8880022    1    1    2    0    0  0.19807178707E+03  0.14796455095E+03 -0.69240011027E+03  0.75095639480E+03  0.15294330000E+03 0.  0.
<mgrwt>
<rscale>  0 0.56405874E+03</rscale>
<asrwt>0</asrwt>
<pdfrwt beam="1">  1        1 0.13046653E+00 0.70351698E+03</pdfrwt>
<pdfrwt beam="2">  1       -1 0.15516021E+00 0.70351698E+03</pdfrwt>
<totfact> 0.66609388E+00</totfact>
</mgrwt>
</event>
<event>
 4    1  0.2514307E-008  0.1121009E+04  0.7818608E-02  0.9238018E-01
         -1   -1    0    0    0  501 -0.00000000000E+00  0.00000000000E+00  0.68286502874E+03  0.68286502876E+03  0.50400000000E-02 0.  1.
          1   -1    0    0  501    0  0.00000000000E+00 -0.00000000000E+00 -0.16806537908E+04  0.16806537908E+04  0.50400000000E-02 0. -1.
    8880023    1    1    2    0    0  0.27342418016E+03  0.86492177626E+03 -0.18539689804E+03  0.11362361891E+04  0.65864270000E+03 0.  0.
    8880022    1    1    2    0    0 -0.27342418016E+03 -0.86492177626E+03 -0.81239186406E+03  0.12272826305E+04  0.15294330000E+03 0.  0.
<mgrwt>
<rscale>  0 0.10669488E+04</rscale>
<asrwt>0</asrwt>
<pdfrwt beam="1">  1        1 0.25856212E+00 0.11210088E+04</pdfrwt>
<pdfrwt beam="2">  1       -1 0.10505616E+00 0.11210088E+04</pdfrwt>
<totfact> 0.41477764E+00</totfact>
</mgrwt>
</event>
<event>
 4    1  0.2514307E-008  0.8837180E+03  0.7818608E-02  0.9552692E-01
          1   -1    0    0  501    0  0.00000000000E+00  0.00000000000E+00  0.24438048358E+04  0.24438048358E+04  0.50400000000E-02 0. -1.
         -1   -1    0    0    0  501 -0.00000000000E+00 -0.00000000000E+00 -0.48725442516E+03  0.48725442518E+03  0.50400000000E-02 0.  1.
    8880023    1    1    2    0    0 -0.54221042539E+03  0.23055397514E+03  0.17972651848E+01  0.88371981831E+03  0.65864270000E+03 0.  1.
    8880022    1    1    2    0    0  0.54221042539E+03 -0.23055397514E+03  0.19547531455E+04  0.20473394427E+04  0.15294330000E+03 0.  0.
<mgrwt>
<rscale>  0 0.80508086E+03</rscale>
<asrwt>0</asrwt>
<pdfrwt beam="1">  1        1 0.37596997E+00 0.88371799E+03</pdfrwt>
<pdfrwt beam="2">  1       -1 0.74962221E-01 0.88371799E+03</pdfrwt>
<totfact> 0.27479425E+00</totfact>
</mgrwt>
</event>
<event>
 4    1  0.2514307E-008  0.1316853E+04  0.7818608E-02  0.9051141E-01
         -1   -1    0    0    0  501 -0.00000000000E+00  0.00000000000E+00  0.96661331368E+03  0.96661331369E+03  0.50400000000E-02 0.  1.
          1   -1    0    0  501    0  0.00000000000E+00 -0.00000000000E+00 -0.25782010489E+04  0.25782010489E+04  0.50400000000E-02 0. -1.
    8880023    1    1    2    0    0  0.42079533624E+03 -0.10598218812E+04  0.26534868131E+03  0.13433209832E+04  0.65864270000E+03 0.  0.
    8880022    1    1    2    0    0 -0.42079533624E+03  0.10598218812E+04 -0.18769364166E+04  0.22014933794E+04  0.15294330000E+03 0.  0.
<mgrwt>
<rscale>  0 0.12731393E+04</rscale>
<asrwt>0</asrwt>
<pdfrwt beam="1">  1        1 0.39664631E+00 0.13168528E+04</pdfrwt>
<pdfrwt beam="2">  1       -1 0.14870974E+00 0.13168528E+04</pdfrwt>
<totfact> 0.41477901E-01</totfact>
</mgrwt>
</event>
<event>
 4    1  0.2514307E-008  0.1045725E+04  0.7818608E-02  0.9324038E-01
          1   -1    0    0  501    0  0.00000000000E+00  0.00000000000E+00  0.10233941525E+04  0.10233941525E+04  0.50400000000E-02 0. -1.
         -1   -1    0    0    0  501 -0.00000000000E+00 -0.00000000000E+00 -0.10148271020E+04  0.10148271020E+04  0.50400000000E-02 0.  1.
    8880023    1    1    2    0    0 -0.13377864437E+03 -0.80114552178E+03 -0.39576289742E+03  0.11181097218E+04  0.65864270000E+03 0.  0.
    8880022    1    1    2    0    0  0.13377864437E+03  0.80114552178E+03  0.40432994791E+03  0.92011153267E+03  0.15294330000E+03 0.  0.
<mgrwt>
<rscale>  0 0.98599676E+03</rscale>
<asrwt>0</asrwt>
<pdfrwt beam="1">  1        1 0.15744525E+00 0.10457251E+04</pdfrwt>
<pdfrwt beam="2">  1       -1 0.15612725E+00 0.10457251E+04</pdfrwt>
<totfact> 0.45275065E+00</totfact>
</mgrwt>
</event>
<event>
 4    1  0.2514307E-008  0.9578441E+03  0.7818608E-02  0.9438917E-01
          1   -1    0    0  501    0  0.00000000000E+00  0.00000000000E+00  0.38095564292E+04  0.38095564292E+04  0.50400000000E-02 0. -1.
         -1   -1    0    0    0  501 -0.00000000000E+00 -0.00000000000E+00 -0.28069968479E+03  0.28069968484E+03  0.50400000000E-02 0.  1.
    8880023    1    1    2    0    0 -0.13300349298E+03 -0.68261648296E+03  0.73573505698E+03  0.12077961220E+04  0.65864270000E+03 0.  0.
    8880022    1    1    2    0    0  0.13300349298E+03  0.68261648296E+03  0.27931216874E+04  0.28824599921E+04  0.15294330000E+03 0.  0.
<mgrwt>
<rscale>  0 0.88941028E+03</rscale>
<asrwt>0</asrwt>
<pdfrwt beam="1">  1        1 0.58608559E+00 0.95784414E+03</pdfrwt>
<pdfrwt beam="2">  1       -1 0.43184568E-01 0.95784414E+03</pdfrwt>
<totfact> 0.78097807E-01</totfact>
</mgrwt>
</event>
<event>
 4    1  0.2514307E-008  0.7388098E+03  0.7818608E-02  0.9863428E-01
         -1   -1    0    0    0  501 -0.00000000000E+00  0.00000000000E+00  0.52256480287E+03  0.52256480289E+03  0.50400000000E-02 0.  1.
          1   -1    0    0  501    0  0.00000000000E+00 -0.00000000000E+00 -0.22663750674E+04  0.22663750674E+04  0.50400000000E-02 0. -1.
    8880023    1    1    2    0    0 -0.12994191941E+03 -0.30845547383E+03  0.23571411056E+03  0.77550050286E+03  0.65864270000E+03 0.  1.
    8880022    1    1    2    0    0  0.12994191941E+03  0.30845547383E+03 -0.19795243751E+04  0.20134393674E+04  0.15294330000E+03 0.  0.
<mgrwt>
<rscale>  0 0.62066944E+03</rscale>
<asrwt>0</asrwt>
<pdfrwt beam="1">  1        1 0.34867308E+00 0.73880978E+03</pdfrwt>
<pdfrwt beam="2">  1       -1 0.80394586E-01 0.73880978E+03</pdfrwt>
<totfact> 0.32088430E+00</totfact>
</mgrwt>
</event>
<event>
 4    1  0.2514307E-008  0.8126510E+03  0.7818608E-02  0.9684081E-01
         -1   -1    0    0    0  501 -0.00000000000E+00  0.00000000000E+00  0.38592829416E+03  0.38592829420E+03  0.50400000000E-02 0.  1.
          1   -1    0    0  501    0  0.00000000000E+00 -0.00000000000E+00 -0.31343914286E+04  0.31343914286E+04  0.50400000000E-02 0. -1.
    8880023    1    1    2    0    0 -0.44428676240E+03  0.17088201051E+03 -0.92721796002E+02  0.81792354562E+03  0.65864270000E+03 0.  1.
    8880022    1    1    2    0    0  0.44428676240E+03 -0.17088201051E+03 -0.26557413384E+04  0.27023961772E+04  0.15294330000E+03 0.  0.
<mgrwt>
<rscale>  0 0.71972545E+03</rscale>
<asrwt>0</asrwt>
<pdfrwt beam="1">  1        1 0.48221405E+00 0.81265097E+03</pdfrwt>
<pdfrwt beam="2">  1       -1 0.59373586E-01 0.81265097E+03</pdfrwt>
<totfact> 0.14585153E+00</totfact>
</mgrwt>
</event>
<event>
 4    1  0.2514307E-008  0.7439708E+03  0.7818608E-02  0.9848528E-01
         -1   -1    0    0    0  501 -0.00000000000E+00  0.00000000000E+00  0.65229141419E+03  0.65229141421E+03  0.50400000000E-02 0.  1.
          1   -1    0    0  501    0  0.00000000000E+00 -0.00000000000E+00 -0.17853128643E+04  0.17853128643E+04  0.50400000000E-02 0. -1.
    8880023    1    1    2    0    0  0.31765888474E+03  0.13702253800E+03  0.40960891529E+03  0.84927734735E+03  0.65864270000E+03 0.  0.
    8880022    1    1    2    0    0 -0.31765888474E+03 -0.13702253800E+03 -0.15426303654E+04  0.15883269312E+04  0.15294330000E+03 0.  0.
<mgrwt>
<rscale>  0 0.62822036E+03</rscale>
<asrwt>0</asrwt>
<pdfrwt beam="1">  1        1 0.27466352E+00 0.74397080E+03</pdfrwt>
<pdfrwt beam="2">  1       -1 0.10035253E+00 0.74397080E+03</pdfrwt>
<totfact> 0.41319725E+00</totfact>
</mgrwt>
</event>
<event>
 4    1  0.2514307E-008  0.7386671E+03  0.7818608E-02  0.9863847E-01
         -1   -1    0    0    0  501 -0.00000000000E+00  0.00000000000E+00  0.77708756063E+03  0.77708756064E+03  0.50400000000E-02 0.  1.
          1   -1    0    0  501    0  0.00000000000E+00 -0.00000000000E+00 -0.46136511567E+03  0.46136511570E+03  0.50400000000E-02 0. -1.
    8880023    1    1    2    0    0  0.31992821125E+03 -0.97287360523E+02  0.42834973542E+03  0.85388090093E+03  0.65864270000E+03 0. -1.
    8880022    1    1    2    0    0 -0.31992821125E+03  0.97287360523E+02 -0.11262729046E+03  0.38457177541E+03  0.15294330000E+03 0.  0.
<mgrwt>
<rscale>  0 0.62045872E+03</rscale>
<asrwt>0</asrwt>
<pdfrwt beam="1">  1        1 0.70979249E-01 0.73866711E+03</pdfrwt>
<pdfrwt beam="2">  1       -1 0.11955193E+00 0.73866711E+03</pdfrwt>
<totfact> 0.31682462E+01</totfact>
</mgrwt>
</event>
<event>
 4    1  0.2514307E-008  0.1321320E+04  0.7818608E-02  0.9047364E-01
          1   -1    0    0  501    0  0.00000000000E+00  0.00000000000E+00  0.16157630933E+04  0.16157630933E+04  0.50400000000E-02 0. -1.
         -1   -1    0    0    0  501 -0.00000000000E+00 -0.00000000000E+00 -0.15225041558E+04  0.15225041558E+04  0.50400000000E-02 0.  1.
    8880023    1    1    2    0    0 -0.84349206067E+03 -0.77498246881E+03 -0.91289552295E+03  0.16060090677E+04  0.65864270000E+03 0.  0.
    8880022    1    1    2    0    0  0.84349206067E+03  0.77498246881E+03  0.10061544605E+04  0.15322581815E+04  0.15294330000E+03 0.  0.
<mgrwt>
<rscale>  0 0.12777922E+04</rscale>
<asrwt>0</asrwt>
<pdfrwt beam="1">  1        1 0.24857894E+00 0.13213201E+04</pdfrwt>
<pdfrwt beam="2">  1       -1 0.23423141E+00 0.13213201E+04</pdfrwt>
<totfact> 0.46487698E-01</totfact>
</mgrwt>
</event>
<event>
 4    1  0.2514307E-008  0.8076087E+03  0.7818608E-02  0.9694580E-01
         -1   -1    0    0    0  501 -0.00000000000E+00  0.00000000000E+00  0.26477080119E+03  0.26477080124E+03  0.50400000000E-02 0.  1.
          1   -1    0    0  501    0  0.00000000000E+00 -0.00000000000E+00 -0.18367112126E+04  0.18367112126E+04  0.50400000000E-02 0. -1.
    8880023    1    1    2    0    0 -0.37798867953E+03 -0.27485650060E+03 -0.13237352344E+04  0.15506471922E+04  0.65864270000E+03 0.  0.
    8880022    1    1    2    0    0  0.37798867953E+03  0.27485650060E+03 -0.24820517701E+03  0.55083482160E+03  0.15294330000E+03 0.  0.
<mgrwt>
<rscale>  0 0.71340430E+03</rscale>
<asrwt>0</asrwt>
<pdfrwt beam="1">  1        1 0.28257095E+00 0.80760866E+03</pdfrwt>
<pdfrwt beam="2">  1       -1 0.40733971E-01 0.80760866E+03</pdfrwt>
<totfact> 0.23337031E+01</totfact>
</mgrwt>
</event>
<event>
 4    1  0.2514307E-008  0.1112276E+04  0.7818608E-02  0.9247510E-01
         -1   -1    0    0    0  501 -0.00000000000E+00  0.00000000000E+00  0.70755567835E+03  0.70755567837E+03  0.50400000000E-02 0.  1.
          1   -1    0    0  501    0  0.00000000000E+00 -0.00000000000E+00 -0.18420409263E+04  0.18420409263E+04  0.50400000000E-02 0. -1.
    8880023    1    1    2    0    0  0.85035202001E+03 -0.28328274271E+03 -0.21583940536E+02  0.11124853900E+04  0.65864270000E+03 0.  0.
    8880022    1    1    2    0    0 -0.85035202001E+03  0.28328274271E+03 -0.11129013074E+04  0.14371112147E+04  0.15294330000E+03 0.  0.
<mgrwt>
<rscale>  0 0.10576220E+04</rscale>
<asrwt>0</asrwt>
<pdfrwt beam="1">  1        1 0.28339091E+00 0.11122760E+04</pdfrwt>
<pdfrwt beam="2">  1       -1 0.10885472E+00 0.11122760E+04</pdfrwt>
<totfact> 0.29683886E+00</totfact>
</mgrwt>
</event>
<event>
 4    1  0.2514307E-008  0.1206003E+04  0.7818608E-02  0.9151309E-01
         -1   -1    0    0    0  501 -0.00000000000E+00  0.00000000000E+00  0.17777270089E+04  0.17777270089E+04  0.50400000000E-02 0.  1.
          1   -1    0    0  501    0  0.00000000000E+00 -0.00000000000E+00 -0.14078727916E+04  0.14078727916E+04  0.50400000000E-02 0. -1.
    8880023    1    1    2    0    0 -0.19363379846E+03 -0.99153312713E+03  0.13216554018E+04  0.17891940078E+04  0.65864270000E+03 0.  0.
    8880022    1    1    2    0    0  0.19363379846E+03  0.99153312713E+03 -0.95180118452E+03  0.13964057927E+04  0.15294330000E+03 0.  0.
<mgrwt>
<rscale>  0 0.11570442E+04</rscale>
<asrwt>0</asrwt>
<pdfrwt beam="1">  1        1 0.21659582E+00 0.12060026E+04</pdfrwt>
<pdfrwt beam="2">  1       -1 0.27349646E+00 0.12060026E+04</pdfrwt>
<totfact> 0.36508864E-01</totfact>
</mgrwt>
</event>
<event>
 4    1  0.2514307E-008  0.8642006E+03  0.7818608E-02  0.9586135E-01
          1   -1    0    0  501    0  0.00000000000E+00  0.00000000000E+00  0.13973953334E+04  0.13973953334E+04  0.50400000000E-02 0. -1.
         -1   -1    0    0    0  501 -0.00000000000E+00 -0.00000000000E+00 -0.49890212175E+03  0.49890212177E+03  0.50400000000E-02 0.  1.
    8880023    1    1    2    0    0  0.55895192089E+03 -0.24601039587E+02  0.46293882351E+02  0.86543965175E+03  0.65864270000E+03 0.  1.
    8880022    1    1    2    0    0 -0.55895192089E+03  0.24601039587E+02  0.85219932928E+03  0.10308578034E+04  0.15294330000E+03 0.  0.
<mgrwt>
<rscale>  0 0.78220720E+03</rscale>
<asrwt>0</asrwt>
<pdfrwt beam="1">  1        1 0.21498390E+00 0.86420059E+03</pdfrwt>
<pdfrwt beam="2">  1       -1 0.76754173E-01 0.86420059E+03</pdfrwt>
<totfact> 0.13406454E+01</totfact>
</mgrwt>
</event>
<event>
 4    1  0.2514307E-008  0.7883150E+03  0.7818608E-02  0.9736655E-01
          1   -1    0    0  501    0  0.00000000000E+00  0.00000000000E+00  0.11939099075E+04  0.11939099075E+04  0.50400000000E-02 0. -1.
         -1   -1    0    0    0  501 -0.00000000000E+00 -0.00000000000E+00 -0.15868067814E+04  0.15868067814E+04  0.50400000000E-02 0.  1.
    8880023    1    1    2    0    0 -0.34246919724E+03  0.26522653281E+03 -0.14375579260E+04  0.16395161669E+04  0.65864270000E+03 0.  1.
    8880022    1    1    2    0    0  0.34246919724E+03 -0.26522653281E+03  0.10446610521E+04  0.11412005220E+04  0.15294330000E+03 0.  0.
<mgrwt>
<rscale>  0 0.68875660E+03</rscale>
<asrwt>0</asrwt>
<pdfrwt beam="1">  1        1 0.18367845E+00 0.78831496E+03</pdfrwt>
<pdfrwt beam="2">  1       -1 0.24412412E+00 0.78831496E+03</pdfrwt>
<totfact> 0.86013100E-01</totfact>
</mgrwt>
</event>
<event>
 4    1  0.2514307E-008  0.7889383E+03  0.7818608E-02  0.9735245E-01
          1   -1    0    0  501    0  0.00000000000E+00  0.00000000000E+00  0.30070672732E+03  0.30070672736E+03  0.50400000000E-02 0. -1.
         -1   -1    0    0    0  501 -0.00000000000E+00 -0.00000000000E+00 -0.15299804597E+04  0.15299804597E+04  0.50400000000E-02 0.  1.
    8880023    1    1    2    0    0  0.42811016021E+03 -0.73041409852E+02 -0.10977277740E+04  0.13518246295E+04  0.65864270000E+03 0.  1.
    8880022    1    1    2    0    0 -0.42811016021E+03  0.73041409852E+02 -0.13154595830E+03  0.47886255751E+03  0.15294330000E+03 0.  0.
<mgrwt>
<rscale>  0 0.68956550E+03</rscale>
<asrwt>0</asrwt>
<pdfrwt beam="1">  1        1 0.46262574E-01 0.78893825E+03</pdfrwt>
<pdfrwt beam="2">  1       -1 0.23538160E+00 0.78893825E+03</pdfrwt>
<totfact> 0.78299945E+00</totfact>
</mgrwt>
</event>
<event>
 4    1  0.2514307E-008  0.8803917E+03  0.7818608E-02  0.9558272E-01
         -1   -1    0    0    0  501 -0.00000000000E+00  0.00000000000E+00  0.57325114001E+03  0.57325114003E+03  0.50400000000E-02 0.  1.
          1   -1    0    0  501    0  0.00000000000E+00 -0.00000000000E+00 -0.27736399417E+04  0.27736399417E+04  0.50400000000E-02 0. -1.
    8880023    1    1    2    0    0 -0.54567263255E+03  0.20861605415E+03  0.17356253583E+03  0.89733685986E+03  0.65864270000E+03 0.  1.
    8880022    1    1    2    0    0  0.54567263255E+03 -0.20861605415E+03 -0.23739513375E+04  0.24495542218E+04  0.15294330000E+03 0.  0.
<mgrwt>
<rscale>  0 0.80120672E+03</rscale>
<asrwt>0</asrwt>
<pdfrwt beam="1">  1        1 0.42671383E+00 0.88039167E+03</pdfrwt>
<pdfrwt beam="2">  1       -1 0.88192484E-01 0.88039167E+03</pdfrwt>
<totfact> 0.11485531E+00</totfact>
</mgrwt>
</event>
<event>
 4    1  0.2514307E-008  0.1002020E+04  0.7818608E-02  0.9378920E-01
          1   -1    0    0  501    0  0.00000000000E+00  0.00000000000E+00  0.69709793543E+03  0.69709793545E+03  0.50400000000E-02 0. -1.
         -1   -1    0    0    0  501 -0.00000000000E+00 -0.00000000000E+00 -0.15306623565E+04  0.15306623565E+04  0.50400000000E-02 0.  1.
    8880023    1    1    2    0    0 -0.56410425206E+03  0.50201584647E+03 -0.10254720316E+04  0.14337491452E+04  0.65864270000E+03 0.  0.
    8880022    1    1    2    0    0  0.56410425206E+03 -0.50201584647E+03  0.19190761053E+03  0.79401114684E+03  0.15294330000E+03 0.  0.
<mgrwt>
<rscale>  0 0.93830984E+03</rscale>
<asrwt>0</asrwt>
<pdfrwt beam="1">  1        1 0.10724584E+00 0.10020198E+04</pdfrwt>
<pdfrwt beam="2">  1       -1 0.23548652E+00 0.10020198E+04</pdfrwt>
<totfact> 0.23956751E+00</totfact>
</mgrwt>
</event>
<event>
 4    1  0.3526499E-008  0.1143342E+04  0.7818608E-02  0.9214268E-01
          1   -1    0    0  501    0  0.00000000000E+00  0.00000000000E+00  0.26534266190E+04  0.26534266190E+04  0.50400000000E-02 0. -1.
         -1   -1    0    0    0  501 -0.00000000000E+00 -0.00000000000E+00 -0.11448201878E+04  0.11448201878E+04  0.50400000000E-02 0.  1.
    8880023    1    1    2    0    0 -0.69090442993E+03  0.62934201796E+03 -0.73756827826E+03  0.13606018809E+04  0.65864270000E+03 0.  0.
    8880022    1    1    2    0    0  0.69090442993E+03 -0.62934201796E+03  0.22461747094E+04  0.24376449259E+04  0.15294330000E+03 0.  0.
<mgrwt>
<rscale>  0 0.10907362E+04</rscale>
<asrwt>0</asrwt>
<pdfrwt beam="1">  1        1 0.40821948E+00 0.11433418E+04</pdfrwt>
<pdfrwt beam="2">  1       -1 0.17612618E+00 0.11433418E+04</pdfrwt>
<totfact> 0.23411514E-01</totfact>
</mgrwt>
</event>
<event>
 4    1  0.2514307E-008  0.8871764E+03  0.7818608E-02  0.9546939E-01
          1   -1    0    0  501    0  0.00000000000E+00  0.00000000000E+00  0.88945873821E+03  0.88945873822E+03  0.50400000000E-02 0. -1.
         -1   -1    0    0    0  501 -0.00000000000E+00 -0.00000000000E+00 -0.12342312050E+04  0.12342312050E+04  0.50400000000E-02 0.  1.
    8880023    1    1    2    0    0 -0.54929065965E+03  0.22704974725E+03 -0.92316837657E+03  0.12803600565E+04  0.65864270000E+03 0.  0.
    8880022    1    1    2    0    0  0.54929065965E+03 -0.22704974725E+03  0.57839590974E+03  0.84332988678E+03  0.15294330000E+03 0.  0.
<mgrwt>
<rscale>  0 0.80909904E+03</rscale>
<asrwt>0</asrwt>
<pdfrwt beam="1">  1        1 0.13683981E+00 0.88717643E+03</pdfrwt>
<pdfrwt beam="2">  1       -1 0.18988172E+00 0.88717643E+03</pdfrwt>
<totfact> 0.33460780E+00</totfact>
</mgrwt>
</event>
<event>
 4    1  0.2514307E-008  0.9471478E+03  0.7818608E-02  0.9454230E-01
          1   -1    0    0  501    0  0.00000000000E+00  0.00000000000E+00  0.21432431293E+04  0.21432431293E+04  0.50400000000E-02 0. -1.
         -1   -1    0    0    0  501 -0.00000000000E+00 -0.00000000000E+00 -0.40878392184E+03  0.40878392187E+03  0.50400000000E-02 0.  1.
    8880023    1    1    2    0    0  0.36632294838E+03  0.57366031262E+03  0.36485998536E+03  0.10149934344E+04  0.65864270000E+03 0.  0.
    8880022    1    1    2    0    0 -0.36632294838E+03 -0.57366031262E+03  0.13695992221E+04  0.15370336167E+04  0.15294330000E+03 0.  0.
<mgrwt>
<rscale>  0 0.87744046E+03</rscale>
<asrwt>0</asrwt>
<pdfrwt beam="1">  1        1 0.32972971E+00 0.94714775E+03</pdfrwt>
<pdfrwt beam="2">  1       -1 0.62889835E-01 0.94714775E+03</pdfrwt>
<totfact> 0.62310643E+00</totfact>
</mgrwt>
</event>
<event>
 4    1  0.2514307E-008  0.8532127E+03  0.7818608E-02  0.9605753E-01
          1   -1    0    0  501    0  0.00000000000E+00  0.00000000000E+00  0.16723479247E+04  0.16723479247E+04  0.50400000000E-02 0. -1.
         -1   -1    0    0    0  501 -0.00000000000E+00 -0.00000000000E+00 -0.38182947541E+03  0.38182947545E+03  0.50400000000E-02 0.  1.
    8880023    1    1    2    0    0 -0.14502579004E+03  0.52261767978E+03  0.28147531433E+03  0.89844325243E+03  0.65864270000E+03 0.  1.
    8880022    1    1    2    0    0  0.14502579004E+03 -0.52261767978E+03  0.10090431350E+04  0.11557341477E+04  0.15294330000E+03 0. -1.
<mgrwt>
<rscale>  0 0.76916600E+03</rscale>
<asrwt>0</asrwt>
<pdfrwt beam="1">  1        1 0.25728429E+00 0.85321271E+03</pdfrwt>
<pdfrwt beam="2">  1       -1 0.58742997E-01 0.85321271E+03</pdfrwt>
<totfact> 0.14976374E+01</totfact>
</mgrwt>
</event>
<event>
 4    1  0.2514307E-008  0.7260699E+03  0.7818608E-02  0.9902558E-01
          1   -1    0    0  501    0  0.00000000000E+00  0.00000000000E+00  0.72845107185E+03  0.72845107186E+03  0.50400000000E-02 0. -1.
         -1   -1    0    0    0  501 -0.00000000000E+00 -0.00000000000E+00 -0.77565779350E+03  0.77565779352E+03  0.50400000000E-02 0.  1.
    8880023    1    1    2    0    0 -0.28220546175E+03  0.11716362661E+03 -0.53970081616E+03  0.90468470489E+03  0.65864270000E+03 0.  0.
    8880022    1    1    2    0    0  0.28220546175E+03 -0.11716362661E+03  0.49249409450E+03  0.59942416049E+03  0.15294330000E+03 0.  0.
<mgrwt>
<rscale>  0 0.60137456E+03</rscale>
<asrwt>0</asrwt>
<pdfrwt beam="1">  1        1 0.11206940E+00 0.72606986E+03</pdfrwt>
<pdfrwt beam="2">  1       -1 0.11933197E+00 0.72606986E+03</pdfrwt>
<totfact> 0.16582787E+01</totfact>
</mgrwt>
</event>
<event>
 4    1  0.2514307E-008  0.6770352E+03  0.7818608E-02  0.1011053E+00
          1   -1    0    0  501    0  0.00000000000E+00  0.00000000000E+00  0.58360422880E+03  0.58360422883E+03  0.50400000000E-02 0. -1.
         -1   -1    0    0    0  501 -0.00000000000E+00 -0.00000000000E+00 -0.91950306836E+03  0.91950306837E+03  0.50400000000E-02 0.  1.
    8880023    1    1    2    0    0  0.14432728511E+03  0.61123254763E+02 -0.76486956932E+03  0.10214705487E+04  0.65864270000E+03 0.  1.
    8880022    1    1    2    0    0 -0.14432728511E+03 -0.61123254763E+02  0.42897072977E+03  0.48163674851E+03  0.15294330000E+03 0.  0.
<mgrwt>
<rscale>  0 0.51058275E+03</rscale>
<asrwt>0</asrwt>
<pdfrwt beam="1">  1        1 0.89785266E-01 0.67703517E+03</pdfrwt>
<pdfrwt beam="2">  1       -1 0.14146201E+00 0.67703517E+03</pdfrwt>
<totfact> 0.15080369E+01</totfact>
</mgrwt>
</event>
<event>
 4    1  0.2514307E-008  0.7182769E+03  0.7818608E-02  0.9928460E-01
         -1   -1    0    0    0  501 -0.00000000000E+00  0.00000000000E+00  0.53530517277E+03  0.53530517279E+03  0.50400000000E-02 0.  1.
          1   -1    0    0  501    0  0.00000000000E+00 -0.00000000000E+00 -0.11348392059E+04  0.11348392059E+04  0.50400000000E-02 0. -1.
    8880023    1    1    2    0    0  0.16048877378E+02 -0.28610137401E+03  0.25007314374E+03  0.76056449178E+03  0.65864270000E+03 0.  1.
    8880022    1    1    2    0    0 -0.16048877378E+02  0.28610137401E+03 -0.84960717683E+03  0.90957988688E+03  0.15294330000E+03 0.  0.
<mgrwt>
<rscale>  0 0.58901609E+03</rscale>
<asrwt>0</asrwt>
<pdfrwt beam="1">  1        1 0.17459065E+00 0.71827694E+03</pdfrwt>
<pdfrwt beam="2">  1       -1 0.82354642E-01 0.71827694E+03</pdfrwt>
<totfact> 0.18116813E+01</totfact>
</mgrwt>
</event>
<event>
 4    1  0.2514307E-008  0.7606154E+03  0.7818608E-02  0.9803517E-01
          1   -1    0    0  501    0  0.00000000000E+00  0.00000000000E+00  0.12521160024E+04  0.12521160024E+04  0.50400000000E-02 0. -1.
         -1   -1    0    0    0  501 -0.00000000000E+00 -0.00000000000E+00 -0.63965565983E+03  0.63965565985E+03  0.50400000000E-02 0.  1.
    8880023    1    1    2    0    0  0.29310937250E+03 -0.24251275279E+03 -0.35621281648E+03  0.83989482461E+03  0.65864270000E+03 0.  0.
    8880022    1    1    2    0    0 -0.29310937250E+03  0.24251275279E+03  0.96867315906E+03  0.10518768377E+04  0.15294330000E+03 0. -1.
<mgrwt>
<rscale>  0 0.65174145E+03</rscale>
<asrwt>0</asrwt>
<pdfrwt beam="1">  1        1 0.19263323E+00 0.76061537E+03</pdfrwt>
<pdfrwt beam="2">  1       -1 0.98408564E-01 0.76061537E+03</pdfrwt>
<totfact> 0.10007260E+01</totfact>
</mgrwt>
</event>
<event>
 4    1  0.2514307E-008  0.8519672E+03  0.7818608E-02  0.9608015E-01
         -1   -1    0    0    0  501 -0.00000000000E+00  0.00000000000E+00  0.70963985492E+03  0.70963985493E+03  0.50400000000E-02 0.  1.
          1   -1    0    0  501    0  0.00000000000E+00 -0.00000000000E+00 -0.25065358119E+04  0.25065358119E+04  0.50400000000E-02 0. -1.
    8880023    1    1    2    0    0 -0.53890589816E+01 -0.54037848536E+03  0.40532220091E+03  0.94346925875E+03  0.65864270000E+03 0.  0.
    8880022    1    1    2    0    0  0.53890589816E+01  0.54037848536E+03 -0.22022181579E+04  0.22727064081E+04  0.15294330000E+03 0. -1.
<mgrwt>
<rscale>  0 0.76767955E+03</rscale>
<asrwt>0</asrwt>
<pdfrwt beam="1">  1        1 0.38562089E+00 0.85196723E+03</pdfrwt>
<pdfrwt beam="2">  1       -1 0.10917536E+00 0.85196723E+03</pdfrwt>
<totfact> 0.10886574E+00</totfact>
</mgrwt>
</event>
<event>
 4    1  0.2514307E-008  0.7456653E+03  0.7818608E-02  0.9843741E-01
          1   -1    0    0  501    0  0.00000000000E+00  0.00000000000E+00  0.46211079681E+04  0.46211079681E+04  0.50400000000E-02 0. -1.
         -1   -1    0    0    0  501 -0.00000000000E+00 -0.00000000000E+00 -0.37947306445E+03  0.37947306449E+03  0.50400000000E-02 0.  1.
    8880023    1    1    2    0    0  0.44090641204E+02  0.34678896658E+03  0.38732489568E+01  0.74567538534E+03  0.65864270000E+03 0.  0.
    8880022    1    1    2    0    0 -0.44090641204E+02 -0.34678896658E+03  0.42377616547E+04  0.42549056473E+04  0.15294330000E+03 0. -1.
<mgrwt>
<rscale>  0 0.63067043E+03</rscale>
<asrwt>0</asrwt>
<pdfrwt beam="1">  1        1 0.71093967E+00 0.74566533E+03</pdfrwt>
<pdfrwt beam="2">  1       -1 0.58380473E-01 0.74566533E+03</pdfrwt>
<totfact> 0.82201737E-02</totfact>
</mgrwt>
</event>
<event>
 4    1  0.2514307E-008  0.7196329E+03  0.7818608E-02  0.9923830E-01
          1   -1    0    0  501    0  0.00000000000E+00  0.00000000000E+00  0.16279719310E+04  0.16279719311E+04  0.50400000000E-02 0. -1.
         -1   -1    0    0    0  501 -0.00000000000E+00 -0.00000000000E+00 -0.75625785113E+03  0.75625785114E+03  0.50400000000E-02 0.  1.
    8880023    1    1    2    0    0  0.87791878059E+02  0.27632212184E+03 -0.56227611733E+03  0.91325022160E+03  0.65864270000E+03 0.  0.
    8880022    1    1    2    0    0 -0.87791878059E+02 -0.27632212184E+03  0.14339901973E+04  0.14709795606E+04  0.15294330000E+03 0.  0.
<mgrwt>
<rscale>  0 0.59120156E+03</rscale>
<asrwt>0</asrwt>
<pdfrwt beam="1">  1        1 0.25045722E+00 0.71963292E+03</pdfrwt>
<pdfrwt beam="2">  1       -1 0.11634736E+00 0.71963292E+03</pdfrwt>
<totfact> 0.37447816E+00</totfact>
</mgrwt>
</event>
<event>
 4    1  0.2514307E-008  0.6751665E+03  0.7818608E-02  0.1012202E+00
          1   -1    0    0  501    0  0.00000000000E+00  0.00000000000E+00  0.10492105774E+04  0.10492105774E+04  0.50400000000E-02 0. -1.
         -1   -1    0    0    0  501 -0.00000000000E+00 -0.00000000000E+00 -0.41599203419E+03  0.41599203423E+03  0.50400000000E-02 0.  1.
    8880023    1    1    2    0    0 -0.22454265484E+02 -0.14674951895E+03 -0.11705640321E+03  0.68523866145E+03  0.65864270000E+03 0.  1.
    8880022    1    1    2    0    0  0.22454265484E+02  0.14674951895E+03  0.75027494641E+03  0.77996395018E+03  0.15294330000E+03 0.  0.
<mgrwt>
<rscale>  0 0.50608974E+03</rscale>
<asrwt>0</asrwt>
<pdfrwt beam="1">  1        1 0.16141701E+00 0.67516651E+03</pdfrwt>
<pdfrwt beam="2">  1       -1 0.63998774E-01 0.67516651E+03</pdfrwt>
<totfact> 0.35526533E+01</totfact>
</mgrwt>
</event>
<event>
 4    1  0.2514307E-008  0.7989190E+03  0.7818608E-02  0.9713138E-01
          1   -1    0    0  501    0  0.00000000000E+00  0.00000000000E+00  0.10715698918E+04  0.10715698918E+04  0.50400000000E-02 0. -1.
         -1   -1    0    0    0  501 -0.00000000000E+00 -0.00000000000E+00 -0.58475090233E+03  0.58475090235E+03  0.50400000000E-02 0.  1.
    8880023    1    1    2    0    0  0.36415354752E+03  0.26805498766E+03 -0.19655482441E+03  0.82274254043E+03  0.65864270000E+03 0.  0.
    8880022    1    1    2    0    0 -0.36415354752E+03 -0.26805498766E+03  0.68337381387E+03  0.83357825372E+03  0.15294330000E+03 0.  0.
<mgrwt>
<rscale>  0 0.70239898E+03</rscale>
<asrwt>0</asrwt>
<pdfrwt beam="1">  1        1 0.16485690E+00 0.79891895E+03</pdfrwt>
<pdfrwt beam="2">  1       -1 0.89961678E-01 0.79891895E+03</pdfrwt>
<totfact> 0.16505183E+01</totfact>
</mgrwt>
</event>
<event>
 4    1  0.2514307E-008  0.9477249E+03  0.7818608E-02  0.9453395E-01
         -1   -1    0    0    0  501 -0.00000000000E+00  0.00000000000E+00  0.60419445248E+03  0.60419445250E+03  0.50400000000E-02 0.  1.
          1   -1    0    0  501    0  0.00000000000E+00 -0.00000000000E+00 -0.23832995328E+04  0.23832995328E+04  0.50400000000E-02 0. -1.
    8880023    1    1    2    0    0 -0.15833582594E+03  0.66279860754E+03  0.12818694820E+03  0.95635470820E+03  0.65864270000E+03 0.  1.
    8880022    1    1    2    0    0  0.15833582594E+03 -0.66279860754E+03 -0.19072920285E+04  0.20311392771E+04  0.15294330000E+03 0.  0.
<mgrwt>
<rscale>  0 0.87808774E+03</rscale>
<asrwt>0</asrwt>
<pdfrwt beam="1">  1        1 0.36666146E+00 0.94772487E+03</pdfrwt>
<pdfrwt beam="2">  1       -1 0.92952994E-01 0.94772487E+03</pdfrwt>
<totfact> 0.18800756E+00</totfact>
</mgrwt>
</event>
<event>
 4    1  0.2514307E-008  0.1124674E+04  0.7818608E-02  0.9234069E-01
          1   -1    0    0  501    0  0.00000000000E+00  0.00000000000E+00  0.20765327449E+04  0.20765327449E+04  0.50400000000E-02 0. -1.
         -1   -1    0    0    0  501 -0.00000000000E+00 -0.00000000000E+00 -0.57672817680E+03  0.57672817682E+03  0.50400000000E-02 0.  1.
    8880023    1    1    2    0    0  0.30339819553E+03 -0.85966910305E+03  0.12784679548E+04  0.17027542246E+04  0.65864270000E+03 0.  0.
    8880022    1    1    2    0    0 -0.30339819553E+03  0.85966910305E+03  0.22133661330E+03  0.95050669708E+03  0.15294330000E+03 0.  0.
<mgrwt>
<rscale>  0 0.10708590E+04</rscale>
<asrwt>0</asrwt>
<pdfrwt beam="1">  1        1 0.31946657E+00 0.11246740E+04</pdfrwt>
<pdfrwt beam="2">  1       -1 0.88727413E-01 0.11246740E+04</pdfrwt>
<totfact> 0.32834068E+00</totfact>
</mgrwt>
</event>
<event>
 4    1  0.2514307E-008  0.1858995E+04  0.7818608E-02  0.8690586E-01
         -1   -1    0    0    0  501 -0.00000000000E+00  0.00000000000E+00  0.20490714325E+04  0.20490714325E+04  0.50400000000E-02 0.  1.
          1   -1    0    0  501    0  0.00000000000E+00 -0.00000000000E+00 -0.23848145522E+04  0.23848145522E+04  0.50400000000E-02 0. -1.
    8880023    1    1    2    0    0 -0.11648713036E+04 -0.12903983179E+04  0.11121935181E+04  0.21662958248E+04  0.65864270000E+03 0.  0.
    8880022    1    1    2    0    0  0.11648713036E+04  0.12903983179E+04 -0.14479366378E+04  0.22675901598E+04  0.15294330000E+03 0.  0.
<mgrwt>
<rscale>  0 0.18298481E+04</rscale>
<asrwt>0</asrwt>
<pdfrwt beam="1">  1        1 0.36689455E+00 0.18589952E+04</pdfrwt>
<pdfrwt beam="2">  1       -1 0.31524176E+00 0.18589952E+04</pdfrwt>
<totfact> 0.38567484E-02</totfact>
</mgrwt>
</event>
<event>
 4    1  0.2514307E-008  0.6602629E+03  0.7818608E-02  0.1023889E+00
         -1   -1    0    0    0  501 -0.00000000000E+00  0.00000000000E+00  0.30258227545E+03  0.30258227549E+03  0.50400000000E-02 0.  1.
          1   -1    0    0  501    0  0.00000000000E+00 -0.00000000000E+00 -0.72756969168E+03  0.72756969170E+03  0.50400000000E-02 0. -1.
    8880023    1    1    2    0    0 -0.35447364589E+02 -0.29671282268E+02 -0.99706851316E+02  0.66774887728E+03  0.65864270000E+03 0.  0.
    8880022    1    1    2    0    0  0.35447364589E+02  0.29671282268E+02 -0.32528056491E+03  0.36240308991E+03  0.15294330000E+03 0. -1.
<mgrwt>
<rscale>  0 0.46309058E+03</rscale>
<asrwt>0</asrwt>
<pdfrwt beam="1">  1        1 0.11193380E+00 0.66026291E+03</pdfrwt>
<pdfrwt beam="2">  1       -1 0.46551120E-01 0.66026291E+03</pdfrwt>
<totfact> 0.12080979E+02</totfact>
</mgrwt>
</event>
<event>
 4    1  0.2514307E-008  0.6686467E+03  0.7818608E-02  0.1016652E+00
          1   -1    0    0  501    0  0.00000000000E+00  0.00000000000E+00  0.14397195595E+04  0.14397195595E+04  0.50400000000E-02 0. -1.
         -1   -1    0    0    0  501 -0.00000000000E+00 -0.00000000000E+00 -0.41474063073E+03  0.41474063076E+03  0.50400000000E-02 0.  1.
    8880023    1    1    2    0    0  0.10952847853E+03  0.35800133270E+02 -0.13216070407E+03  0.68158256662E+03  0.65864270000E+03 0.  1.
    8880022    1    1    2    0    0 -0.10952847853E+03 -0.35800133270E+02  0.11571396328E+04  0.11728776236E+04  0.15294330000E+03 0.  0.
<mgrwt>
<rscale>  0 0.48914324E+03</rscale>
<asrwt>0</asrwt>
<pdfrwt beam="1">  1        1 0.22149532E+00 0.66864665E+03</pdfrwt>
<pdfrwt beam="2">  1       -1 0.63806251E-01 0.66864665E+03</pdfrwt>
<totfact> 0.18779093E+01</totfact>
</mgrwt>
</event>
<event>
 4    1  0.2514307E-008  0.9517115E+03  0.7818608E-02  0.9447656E-01
         -1   -1    0    0    0  501 -0.00000000000E+00  0.00000000000E+00  0.11267922049E+04  0.11267922049E+04  0.50400000000E-02 0.  1.
          1   -1    0    0  501    0  0.00000000000E+00 -0.00000000000E+00 -0.99566215013E+03  0.99566215014E+03  0.50400000000E-02 0. -1.
    8880023    1    1    2    0    0  0.48719455026E+02  0.68525247391E+03  0.72912739688E+03  0.11989084642E+04  0.65864270000E+03 0.  0.
    8880022    1    1    2    0    0 -0.48719455026E+02 -0.68525247391E+03 -0.59799734214E+03  0.92354589086E+03  0.15294330000E+03 0.  0.
<mgrwt>
<rscale>  0 0.88255441E+03</rscale>
<asrwt>0</asrwt>
<pdfrwt beam="1">  1        1 0.15317879E+00 0.95171148E+03</pdfrwt>
<pdfrwt beam="2">  1       -1 0.17335265E+00 0.95171148E+03</pdfrwt>
<totfact> 0.35785005E+00</totfact>
</mgrwt>
</event>
<event>
 4    1  0.2514307E-008  0.9150018E+03  0.7818608E-02  0.9502366E-01
          1   -1    0    0  501    0  0.00000000000E+00  0.00000000000E+00  0.94628335942E+03  0.94628335944E+03  0.50400000000E-02 0. -1.
         -1   -1    0    0    0  501 -0.00000000000E+00 -0.00000000000E+00 -0.88559404365E+03  0.88559404367E+03  0.50400000000E-02 0.  1.
    8880023    1    1    2    0    0 -0.58339594135E+03 -0.25113212168E+03 -0.43370764271E+03  0.10125861408E+04  0.65864270000E+03 0.  0.
    8880022    1    1    2    0    0  0.58339594135E+03  0.25113212168E+03  0.49439695849E+03  0.81929126231E+03  0.15294330000E+03 0.  0.
<mgrwt>
<rscale>  0 0.84109641E+03</rscale>
<asrwt>0</asrwt>
<pdfrwt beam="1">  1        1 0.14558206E+00 0.91500184E+03</pdfrwt>
<pdfrwt beam="2">  1       -1 0.13624524E+00 0.91500184E+03</pdfrwt>
<totfact> 0.75969781E+00</totfact>
</mgrwt>
</event>
<event>
 4    1  0.2514307E-008  0.7230269E+03  0.7818608E-02  0.9912474E-01
          1   -1    0    0  501    0  0.00000000000E+00  0.00000000000E+00  0.16649748254E+04  0.16649748254E+04  0.50400000000E-02 0. -1.
         -1   -1    0    0    0  501 -0.00000000000E+00 -0.00000000000E+00 -0.98680802479E+03  0.98680802480E+03  0.50400000000E-02 0.  1.
    8880023    1    1    2    0    0  0.29823459396E+03  0.37133049996E+01 -0.83350105242E+03  0.11034001415E+04  0.65864270000E+03 0.  1.
    8880022    1    1    2    0    0 -0.29823459396E+03 -0.37133049996E+01  0.15116678531E+04  0.15483827087E+04  0.15294330000E+03 0.  0.
<mgrwt>
<rscale>  0 0.59660534E+03</rscale>
<asrwt>0</asrwt>
<pdfrwt beam="1">  1        1 0.25614997E+00 0.72302688E+03</pdfrwt>
<pdfrwt beam="2">  1       -1 0.15181662E+00 0.72302688E+03</pdfrwt>
<totfact> 0.17953936E+00</totfact>
</mgrwt>
</event>
<event>
 4    1  0.2514307E-008  0.7457994E+03  0.7818608E-02  0.9843365E-01
          1   -1    0    0  501    0  0.00000000000E+00  0.00000000000E+00  0.64643085325E+03  0.64643085327E+03  0.50400000000E-02 0. -1.
         -1   -1    0    0    0  501 -0.00000000000E+00 -0.00000000000E+00 -0.70231403082E+03  0.70231403084E+03  0.50400000000E-02 0.  1.
    8880023    1    1    2    0    0  0.15775421837E+03  0.31228226780E+03 -0.38977837536E+03  0.84151292108E+03  0.65864270000E+03 0.  0.
    8880022    1    1    2    0    0 -0.15775421837E+03 -0.31228226780E+03  0.33389519779E+03  0.50723196303E+03  0.15294330000E+03 0.  0.
<mgrwt>
<rscale>  0 0.63086377E+03</rscale>
<asrwt>0</asrwt>
<pdfrwt beam="1">  1        1 0.99450901E-01 0.74579945E+03</pdfrwt>
<pdfrwt beam="2">  1       -1 0.10804831E+00 0.74579945E+03</pdfrwt>
<totfact> 0.25080760E+01</totfact>
</mgrwt>
</event>
<event>
 4    1  0.2514307E-008  0.6742645E+03  0.7818608E-02  0.1012774E+00
          1   -1    0    0  501    0  0.00000000000E+00  0.00000000000E+00  0.13512026378E+04  0.13512026378E+04  0.50400000000E-02 0. -1.
         -1   -1    0    0    0  501 -0.00000000000E+00 -0.00000000000E+00 -0.49591172882E+03  0.49591172884E+03  0.50400000000E-02 0.  1.
    8880023    1    1    2    0    0 -0.99845221869E+02 -0.10417952500E+03 -0.25216373098E+03  0.71987443019E+03  0.65864270000E+03 0.  1.
    8880022    1    1    2    0    0  0.99845221869E+02  0.10417952500E+03  0.11074546399E+04  0.11272399364E+04  0.15294330000E+03 0.  0.
<mgrwt>
<rscale>  0 0.50386921E+03</rscale>
<asrwt>0</asrwt>
<pdfrwt beam="1">  1        1 0.20787733E+00 0.67426452E+03</pdfrwt>
<pdfrwt beam="2">  1       -1 0.76294113E-01 0.67426452E+03</pdfrwt>
<totfact> 0.15002669E+01</totfact>
</mgrwt>
</event>
<event>
 4    1  0.2514307E-008  0.1048354E+04  0.7818608E-02  0.9320863E-01
         -1   -1    0    0    0  501 -0.00000000000E+00  0.00000000000E+00  0.68958500835E+03  0.68958500837E+03  0.50400000000E-02 0.  1.
          1   -1    0    0  501    0  0.00000000000E+00 -0.00000000000E+00 -0.19037258480E+04  0.19037258480E+04  0.50400000000E-02 0. -1.
    8880023    1    1    2    0    0 -0.77367526989E+03 -0.25818987233E+03  0.84957918384E+02  0.10517906101E+04  0.65864270000E+03 0.  1.
    8880022    1    1    2    0    0  0.77367526989E+03  0.25818987233E+03 -0.12990987580E+04  0.15415202462E+04  0.15294330000E+03 0. -1.
<mgrwt>
<rscale>  0 0.98884657E+03</rscale>
<asrwt>0</asrwt>
<pdfrwt beam="1">  1        1 0.29288090E+00 0.10483538E+04</pdfrwt>
<pdfrwt beam="2">  1       -1 0.10609000E+00 0.10483538E+04</pdfrwt>
<totfact> 0.28882280E+00</totfact>
</mgrwt>
</event>
<event>
 4    1  0.2514307E-008  0.6777704E+03  0.7818608E-02  0.1010614E+00
          1   -1    0    0  501    0  0.00000000000E+00  0.00000000000E+00  0.49151915650E+03  0.49151915652E+03  0.50400000000E-02 0. -1.
         -1   -1    0    0    0  501 -0.00000000000E+00 -0.00000000000E+00 -0.48914564243E+03  0.48914564246E+03  0.50400000000E-02 0.  1.
    8880023    1    1    2    0    0  0.10621111248E+03 -0.11950587031E+03 -0.17165403200E+03  0.69916934030E+03  0.65864270000E+03 0.  0.
    8880022    1    1    2    0    0 -0.10621111248E+03  0.11950587031E+03  0.17402754606E+03  0.28149545868E+03  0.15294330000E+03 0.  0.
<mgrwt>
<rscale>  0 0.51231323E+03</rscale>
<asrwt>0</asrwt>
<pdfrwt beam="1">  1        1 0.75618332E-01 0.67777036E+03</pdfrwt>
<pdfrwt beam="2">  1       -1 0.75253176E-01 0.67777036E+03</pdfrwt>
<totfact> 0.82529172E+01</totfact>
</mgrwt>
</event>
<event>
 4    1  0.2514307E-008  0.1279195E+04  0.7818608E-02  0.9083738E-01
         -1   -1    0    0    0  501 -0.00000000000E+00  0.00000000000E+00  0.16651307014E+04  0.16651307014E+04  0.50400000000E-02 0.  1.
          1   -1    0    0  501    0  0.00000000000E+00 -0.00000000000E+00 -0.15230896575E+04  0.15230896575E+04  0.50400000000E-02 0. -1.
    8880023    1    1    2    0    0 -0.95603325072E+03  0.53714981620E+03  0.11281091011E+04  0.17055702424E+04  0.65864270000E+03 0.  0.
    8880022    1    1    2    0    0  0.95603325072E+03 -0.53714981620E+03 -0.98606805718E+03  0.14826501165E+04  0.15294330000E+03 0.  0.
<mgrwt>
<rscale>  0 0.12338443E+04</rscale>
<asrwt>0</asrwt>
<pdfrwt beam="1">  1        1 0.23432149E+00 0.12791949E+04</pdfrwt>
<pdfrwt beam="2">  1       -1 0.25617395E+00 0.12791949E+04</pdfrwt>
<totfact> 0.38895002E-01</totfact>
</mgrwt>
</event>
<event>
 4    1  0.2514307E-008  0.1082929E+04  0.7818608E-02  0.9280304E-01
          1   -1    0    0  501    0  0.00000000000E+00  0.00000000000E+00  0.17758032768E+04  0.17758032768E+04  0.50400000000E-02 0. -1.
         -1   -1    0    0    0  501 -0.00000000000E+00 -0.00000000000E+00 -0.10196514920E+04  0.10196514920E+04  0.50400000000E-02 0.  1.
    8880023    1    1    2    0    0 -0.18406209538E+03 -0.83967071591E+03 -0.55758387994E+03  0.12180458758E+04  0.65864270000E+03 0.  0.
    8880022    1    1    2    0    0  0.18406209538E+03  0.83967071591E+03  0.13137356648E+04  0.15774088931E+04  0.15294330000E+03 0.  0.
<mgrwt>
<rscale>  0 0.10261647E+04</rscale>
<asrwt>0</asrwt>
<pdfrwt beam="1">  1        1 0.27320050E+00 0.10829293E+04</pdfrwt>
<pdfrwt beam="2">  1       -1 0.15686946E+00 0.10829293E+04</pdfrwt>
<totfact> 0.13018338E+00</totfact>
</mgrwt>
</event>
<event>
 4    1  0.2514307E-008  0.1591837E+04  0.7818608E-02  0.8847369E-01
          1   -1    0    0  501    0  0.00000000000E+00  0.00000000000E+00  0.25549103475E+04  0.25549103475E+04  0.50400000000E-02 0. -1.
         -1   -1    0    0    0  501 -0.00000000000E+00 -0.00000000000E+00 -0.11446390076E+04  0.11446390076E+04  0.50400000000E-02 0.  1.
    8880023    1    1    2    0    0 -0.13731085216E+04  0.46336475289E+03  0.15672588103E+04  0.22338854696E+04  0.65864270000E+03 0.  0.
    8880022    1    1    2    0    0  0.13731085216E+04 -0.46336475289E+03 -0.15698747048E+03  0.14656638855E+04  0.15294330000E+03 0.  0.
<mgrwt>
<rscale>  0 0.15570626E+04</rscale>
<asrwt>0</asrwt>
<pdfrwt beam="1">  1        1 0.39306313E+00 0.15918367E+04</pdfrwt>
<pdfrwt beam="2">  1       -1 0.17609831E+00 0.15918367E+04</pdfrwt>
<totfact> 0.25828427E-01</totfact>
</mgrwt>
</event>
<event>
 4    1  0.2514307E-008  0.9673051E+03  0.7818608E-02  0.9425641E-01
          1   -1    0    0  501    0  0.00000000000E+00  0.00000000000E+00  0.75846651401E+03  0.75846651402E+03  0.50400000000E-02 0. -1.
         -1   -1    0    0    0  501 -0.00000000000E+00 -0.00000000000E+00 -0.12233801471E+04  0.12233801471E+04  0.50400000000E-02 0.  1.
    8880023    1    1    2    0    0  0.12970470659E+03  0.69645218652E+03 -0.72818968434E+03  0.12107598365E+04  0.65864270000E+03 0.  0.
    8880022    1    1    2    0    0 -0.12970470659E+03 -0.69645218652E+03  0.26327605122E+03  0.77108682467E+03  0.15294330000E+03 0.  0.
<mgrwt>
<rscale>  0 0.89995224E+03</rscale>
<asrwt>0</asrwt>
<pdfrwt beam="1">  1        1 0.11668716E+00 0.96730510E+03</pdfrwt>
<pdfrwt beam="2">  1       -1 0.18821233E+00 0.96730510E+03</pdfrwt>
<totfact> 0.44089594E+00</totfact>
</mgrwt>
</event>
<event>
 4    1  0.2514307E-008  0.7567208E+03  0.7818608E-02  0.9813672E-01
          1   -1    0    0  501    0  0.00000000000E+00  0.00000000000E+00  0.10298176424E+04  0.10298176424E+04  0.50400000000E-02 0. -1.
         -1   -1    0    0    0  501 -0.00000000000E+00 -0.00000000000E+00 -0.11070391796E+04  0.11070391796E+04  0.50400000000E-02 0.  1.
    8880023    1    1    2    0    0  0.35658112056E+03 -0.10800953282E+03 -0.92689547100E+03  0.11965623992E+04  0.65864270000E+03 0.  1.
    8880022    1    1    2    0    0 -0.35658112056E+03  0.10800953282E+03  0.84967393381E+03  0.94029442279E+03  0.15294330000E+03 0.  0.
<mgrwt>
<rscale>  0 0.64633953E+03</rscale>
<asrwt>0</asrwt>
<pdfrwt beam="1">  1        1 0.15843348E+00 0.75672079E+03</pdfrwt>
<pdfrwt beam="2">  1       -1 0.17031372E+00 0.75672079E+03</pdfrwt>
<totfact> 0.36437557E+00</totfact>
</mgrwt>
</event>
<event>
 4    1  0.2514307E-008  0.8349083E+03  0.7818608E-02  0.9639857E-01
         -1   -1    0    0    0  501 -0.00000000000E+00  0.00000000000E+00  0.11417794641E+04  0.11417794641E+04  0.50400000000E-02 0.  1.
          1   -1    0    0  501    0  0.00000000000E+00 -0.00000000000E+00 -0.13070954459E+04  0.13070954459E+04  0.50400000000E-02 0. -1.
    8880023    1    1    2    0    0 -0.30720866221E+02 -0.51216973006E+03  0.91775026878E+03  0.12407003531E+04  0.65864270000E+03 0.  0.
    8880022    1    1    2    0    0  0.30720866221E+02  0.51216973006E+03 -0.10830662505E+04  0.12081745569E+04  0.15294330000E+03 0.  0.
<mgrwt>
<rscale>  0 0.74713431E+03</rscale>
<asrwt>0</asrwt>
<pdfrwt beam="1">  1        1 0.20109161E+00 0.83490826E+03</pdfrwt>
<pdfrwt beam="2">  1       -1 0.17565838E+00 0.83490826E+03</pdfrwt>
<totfact> 0.20595692E+00</totfact>
</mgrwt>
</event>
<event>
 4    1  0.2514307E-008  0.1424314E+04  0.7818608E-02  0.8965017E-01
         -1   -1    0    0    0  501 -0.00000000000E+00  0.00000000000E+00  0.13081735786E+04  0.13081735786E+04  0.50400000000E-02 0.  1.
          1   -1    0    0  501    0  0.00000000000E+00 -0.00000000000E+00 -0.15479214099E+04  0.15479214099E+04  0.50400000000E-02 0. -1.
    8880023    1    1    2    0    0  0.34495239932E+03 -0.12148532986E+04 -0.58218691347E+03  0.15387048136E+04  0.65864270000E+03 0.  1.
    8880022    1    1    2    0    0 -0.34495239932E+03  0.12148532986E+04  0.34243908212E+03  0.13173901749E+04  0.15294330000E+03 0.  0.
<mgrwt>
<rscale>  0 0.13846344E+04</rscale>
<asrwt>0</asrwt>
<pdfrwt beam="1">  1        1 0.23814176E+00 0.14243142E+04</pdfrwt>
<pdfrwt beam="2">  1       -1 0.20125747E+00 0.14243142E+04</pdfrwt>
<totfact> 0.85372315E-01</totfact>
</mgrwt>
</event>
<event>
 4    1  0.2514307E-008  0.7441847E+03  0.7818608E-02  0.9847921E-01
         -1   -1    0    0    0  501 -0.00000000000E+00  0.00000000000E+00  0.71014252019E+03  0.71014252020E+03  0.50400000000E-02 0.  1.
          1   -1    0    0  501    0  0.00000000000E+00 -0.00000000000E+00 -0.61464405317E+03  0.61464405320E+03  0.50400000000E-02 0. -1.
    8880023    1    1    2    0    0 -0.31553391255E+03 -0.14296497484E+03  0.39451451769E+03  0.84229005986E+03  0.65864270000E+03 0.  1.
    8880022    1    1    2    0    0  0.31553391255E+03  0.14296497484E+03 -0.29901605068E+03  0.48249651354E+03  0.15294330000E+03 0.  0.
<mgrwt>
<rscale>  0 0.62853037E+03</rscale>
<asrwt>0</asrwt>
<pdfrwt beam="1">  1        1 0.94560623E-01 0.74418468E+03</pdfrwt>
<pdfrwt beam="2">  1       -1 0.10925270E+00 0.74418468E+03</pdfrwt>
<totfact> 0.26307229E+01</totfact>
</mgrwt>
</event>
<event>
 4    1  0.2514307E-008  0.9734899E+03  0.7818608E-02  0.9417093E-01
          1   -1    0    0  501    0  0.00000000000E+00  0.00000000000E+00  0.38365561485E+04  0.38365561485E+04  0.50400000000E-02 0. -1.
         -1   -1    0    0    0  501 -0.00000000000E+00 -0.00000000000E+00 -0.34619618043E+03  0.34619618047E+03  0.50400000000E-02 0.  1.
    8880023    1    1    2    0    0 -0.12042216462E+03 -0.70666182489E+03  0.48180416744E+03  0.10861942250E+04  0.65864270000E+03 0.  1.
    8880022    1    1    2    0    0  0.12042216462E+03  0.70666182489E+03  0.30085558006E+04  0.30965581039E+04  0.15294330000E+03 0.  0.
<mgrwt>
<rscale>  0 0.90682205E+03</rscale>
<asrwt>0</asrwt>
<pdfrwt beam="1">  1        1 0.59023938E+00 0.97348993E+03</pdfrwt>
<pdfrwt beam="2">  1       -1 0.53260954E-01 0.97348993E+03</pdfrwt>
<totfact> 0.49770156E-01</totfact>
</mgrwt>
</event>
<event>
 4    1  0.2514307E-008  0.7739253E+03  0.7818608E-02  0.9770305E-01
          1   -1    0    0  501    0  0.00000000000E+00  0.00000000000E+00  0.11428082397E+04  0.11428082397E+04  0.50400000000E-02 0. -1.
         -1   -1    0    0    0  501 -0.00000000000E+00 -0.00000000000E+00 -0.37361863983E+03  0.37361863986E+03  0.50400000000E-02 0.  1.
    8880023    1    1    2    0    0 -0.37999543760E+03  0.14406117597E+03  0.19785452113E+03  0.79881585664E+03  0.65864270000E+03 0.  0.
    8880022    1    1    2    0    0  0.37999543760E+03 -0.14406117597E+03  0.57133507873E+03  0.71761102292E+03  0.15294330000E+03 0.  0.
<mgrwt>
<rscale>  0 0.66980786E+03</rscale>
<asrwt>0</asrwt>
<pdfrwt beam="1">  1        1 0.17581665E+00 0.77392529E+03</pdfrwt>
<pdfrwt beam="2">  1       -1 0.57479791E-01 0.77392529E+03</pdfrwt>
<totfact> 0.36980872E+01</totfact>
</mgrwt>
</event>
<event>
 4    1  0.2514307E-008  0.6650647E+03  0.7818608E-02  0.1019479E+00
         -1   -1    0    0    0  501 -0.00000000000E+00  0.00000000000E+00  0.33392489137E+03  0.33392489141E+03  0.50400000000E-02 0.  1.
          1   -1    0    0  501    0  0.00000000000E+00 -0.00000000000E+00 -0.16409358565E+04  0.16409358566E+04  0.50400000000E-02 0. -1.
    8880023    1    1    2    0    0  0.80862487096E+02  0.44295408902E+02 -0.95153175826E+01  0.66513274810E+03  0.65864270000E+03 0.  1.
    8880022    1    1    2    0    0 -0.80862487096E+02 -0.44295408902E+02 -0.12974956476E+04  0.13097279999E+04  0.15294330000E+03 0.  0.
<mgrwt>
<rscale>  0 0.47875018E+03</rscale>
<asrwt>0</asrwt>
<pdfrwt beam="1">  1        1 0.25245167E+00 0.66506468E+03</pdfrwt>
<pdfrwt beam="2">  1       -1 0.51373061E-01 0.66506468E+03</pdfrwt>
<totfact> 0.20906379E+01</totfact>
</mgrwt>
</event>
<event>
 4    1  0.2514307E-008  0.1119376E+04  0.7818608E-02  0.9239784E-01
         -1   -1    0    0    0  501 -0.00000000000E+00  0.00000000000E+00  0.64797549466E+03  0.64797549468E+03  0.50400000000E-02 0.  1.
          1   -1    0    0  501    0  0.00000000000E+00 -0.00000000000E+00 -0.17028378024E+04  0.17028378024E+04  0.50400000000E-02 0. -1.
    8880023    1    1    2    0    0  0.48395662273E+03 -0.76483893941E+03 -0.29087429005E+03  0.11565511985E+04  0.65864270000E+03 0.  0.
    8880022    1    1    2    0    0 -0.48395662273E+03  0.76483893941E+03 -0.76398801773E+03  0.11942620986E+04  0.15294330000E+03 0.  0.
<mgrwt>
<rscale>  0 0.10652062E+04</rscale>
<asrwt>0</asrwt>
<pdfrwt beam="1">  1        1 0.26197505E+00 0.11193761E+04</pdfrwt>
<pdfrwt beam="2">  1       -1 0.99688538E-01 0.11193761E+04</pdfrwt>
<totfact> 0.45248543E+00</totfact>
</mgrwt>
</event>
<event>
 4    1  0.2514307E-008  0.7634842E+03  0.7818608E-02  0.9796169E-01
          1   -1    0    0  501    0  0.00000000000E+00  0.00000000000E+00  0.20805451711E+04  0.20805451711E+04  0.50400000000E-02 0. -1.
         -1   -1    0    0    0  501 -0.00000000000E+00 -0.00000000000E+00 -0.60862214528E+03  0.60862214530E+03  0.50400000000E-02 0.  1.
    8880023    1    1    2    0    0  0.35798876950E+03 -0.14471327714E+03 -0.33600367042E+03  0.83415020498E+03  0.65864270000E+03 0.  1.
    8880022    1    1    2    0    0 -0.35798876950E+03  0.14471327714E+03  0.18079266962E+04  0.18550171114E+04  0.15294330000E+03 0.  0.
<mgrwt>
<rscale>  0 0.65568520E+03</rscale>
<asrwt>0</asrwt>
<pdfrwt beam="1">  1        1 0.32008387E+00 0.76348418E+03</pdfrwt>
<pdfrwt beam="2">  1       -1 0.93634177E-01 0.76348418E+03</pdfrwt>
<totfact> 0.30548360E+00</totfact>
</mgrwt>
</event>
<event>
 4    1  0.2514307E-008  0.1201952E+04  0.7818608E-02  0.9155227E-01
          1   -1    0    0  501    0  0.00000000000E+00  0.00000000000E+00  0.15610399792E+04  0.15610399792E+04  0.50400000000E-02 0. -1.
         -1   -1    0    0    0  501 -0.00000000000E+00 -0.00000000000E+00 -0.10261200336E+04  0.10261200337E+04  0.50400000000E-02 0.  1.
    8880023    1    1    2    0    0 -0.29830428216E+03 -0.96015282531E+03  0.90538347568E+03  0.15047951146E+04  0.65864270000E+03 0.  0.
    8880022    1    1    2    0    0  0.29830428216E+03  0.96015282531E+03 -0.37046353014E+03  0.10823648982E+04  0.15294330000E+03 0.  0.
<mgrwt>
<rscale>  0 0.11527753E+04</rscale>
<asrwt>0</asrwt>
<pdfrwt beam="1">  1        1 0.24016000E+00 0.12019522E+04</pdfrwt>
<pdfrwt beam="2">  1       -1 0.15786462E+00 0.12019522E+04</pdfrwt>
<totfact> 0.17657651E+00</totfact>
</mgrwt>
</event>
<event>
 4    1  0.2514307E-008  0.9113635E+03  0.7818608E-02  0.9508030E-01
          1   -1    0    0  501    0  0.00000000000E+00  0.00000000000E+00  0.12880389909E+04  0.12880389909E+04  0.50400000000E-02 0. -1.
         -1   -1    0    0    0  501 -0.00000000000E+00 -0.00000000000E+00 -0.93437026115E+03  0.93437026116E+03  0.50400000000E-02 0.  1.
    8880023    1    1    2    0    0 -0.57876487963E+03  0.24860515512E+03  0.96787900597E+03  0.13294259233E+04  0.65864270000E+03 0.  0.
    8880022    1    1    2    0    0  0.57876487963E+03 -0.24860515512E+03 -0.61421027622E+03  0.89298332878E+03  0.15294330000E+03 0.  0.
<mgrwt>
<rscale>  0 0.83694365E+03</rscale>
<asrwt>0</asrwt>
<pdfrwt beam="1">  1        1 0.19815985E+00 0.91136355E+03</pdfrwt>
<pdfrwt beam="2">  1       -1 0.14374927E+00 0.91136355E+03</pdfrwt>
<totfact> 0.36632899E+00</totfact>
</mgrwt>
</event>
<event>
 4    1  0.2514307E-008  0.9788587E+03  0.7818608E-02  0.9409755E-01
         -1   -1    0    0    0  501 -0.00000000000E+00  0.00000000000E+00  0.17639507523E+04  0.17639507524E+04  0.50400000000E-02 0.  1.
          1   -1    0    0  501    0  0.00000000000E+00 -0.00000000000E+00 -0.73429538356E+03  0.73429538358E+03  0.50400000000E-02 0. -1.
    8880023    1    1    2    0    0  0.10344361660E+03  0.71669628587E+03  0.13698999818E+04  0.16836835553E+04  0.65864270000E+03 0.  1.
    8880022    1    1    2    0    0 -0.10344361660E+03 -0.71669628587E+03 -0.34024461305E+03  0.81456258060E+03  0.15294330000E+03 0.  0.
<mgrwt>
<rscale>  0 0.91277216E+03</rscale>
<asrwt>0</asrwt>
<pdfrwt beam="1">  1        1 0.11296852E+00 0.97885870E+03</pdfrwt>
<pdfrwt beam="2">  1       -1 0.27137704E+00 0.97885870E+03</pdfrwt>
<totfact> 0.12983418E+00</totfact>
</mgrwt>
</event>
<event>
 4    1  0.2514307E-008  0.8271454E+03  0.7818608E-02  0.9654912E-01
         -1   -1    0    0    0  501 -0.00000000000E+00  0.00000000000E+00  0.96795984961E+03  0.96795984963E+03  0.50400000000E-02 0.  1.
          1   -1    0    0  501    0  0.00000000000E+00 -0.00000000000E+00 -0.11599557828E+04  0.11599557828E+04  0.50400000000E-02 0. -1.
    8880023    1    1    2    0    0 -0.75619165654E+02 -0.49461209904E+03  0.70675145872E+03  0.10879647133E+04  0.65864270000E+03 0.  1.
    8880022    1    1    2    0    0  0.75619165654E+02  0.49461209904E+03 -0.89874739193E+03  0.10399509192E+04  0.15294330000E+03 0.  0.
<mgrwt>
<rscale>  0 0.73765941E+03</rscale>
<asrwt>0</asrwt>
<pdfrwt beam="1">  1        1 0.17845473E+00 0.82714545E+03</pdfrwt>
<pdfrwt beam="2">  1       -1 0.14891690E+00 0.82714545E+03</pdfrwt>
<totfact> 0.41768641E+00</totfact>
</mgrwt>
</event>
<event>
 4    1  0.2730309E-008  0.1083838E+04  0.7818608E-02  0.9279268E-01
          1   -1    0    0  501    0  0.00000000000E+00  0.00000000000E+00  0.16774972669E+04  0.16774972669E+04  0.50400000000E-02 0. -1.
         -1   -1    0    0    0  501 -0.00000000000E+00 -0.00000000000E+00 -0.18442045316E+04  0.18442045316E+04  0.50400000000E-02 0.  1.
    8880023    1    1    2    0    0 -0.22582226058E+03  0.83060105950E+03 -0.15463696674E+04  0.18883758016E+04  0.65864270000E+03 0.  1.
    8880022    1    1    2    0    0  0.22582226058E+03 -0.83060105950E+03  0.13796624027E+04  0.16333259968E+04  0.15294330000E+03 0.  0.
<mgrwt>
<rscale>  0 0.10271411E+04</rscale>
<asrwt>0</asrwt>
<pdfrwt beam="1">  1        1 0.25807650E+00 0.10838376E+04</pdfrwt>
<pdfrwt beam="2">  1       -1 0.28372378E+00 0.10838376E+04</pdfrwt>
<totfact> 0.20826093E-01</totfact>
</mgrwt>
</event>
<event>
 4    1  0.2514307E-008  0.1436800E+04  0.7818608E-02  0.8955603E-01
          1   -1    0    0  501    0  0.00000000000E+00  0.00000000000E+00  0.25662025810E+04  0.25662025810E+04  0.50400000000E-02 0. -1.
         -1   -1    0    0    0  501 -0.00000000000E+00 -0.00000000000E+00 -0.91402647988E+03  0.91402647989E+03  0.50400000000E-02 0.  1.
    8880023    1    1    2    0    0 -0.24276819330E+03  0.12536532766E+04  0.66172522760E+02  0.14383226142E+04  0.65864270000E+03 0.  1.
    8880022    1    1    2    0    0  0.24276819330E+03 -0.12536532766E+04  0.15860035784E+04  0.20419064467E+04  0.15294330000E+03 0.  0.
<mgrwt>
<rscale>  0 0.13975368E+04</rscale>
<asrwt>0</asrwt>
<pdfrwt beam="1">  1        1 0.39480039E+00 0.14367996E+04</pdfrwt>
<pdfrwt beam="2">  1       -1 0.14061946E+00 0.14367996E+04</pdfrwt>
<totfact> 0.48370415E-01</totfact>
</mgrwt>
</event>
<event>
 4    1  0.2514307E-008  0.6975183E+03  0.7818608E-02  0.1000766E+00
         -1   -1    0    0    0  501 -0.00000000000E+00  0.00000000000E+00  0.79887149931E+03  0.79887149932E+03  0.50400000000E-02 0.  1.
          1   -1    0    0  501    0  0.00000000000E+00 -0.00000000000E+00 -0.19962006477E+04  0.19962006478E+04  0.50400000000E-02 0. -1.
    8880023    1    1    2    0    0  0.20704663091E+03 -0.99263413415E+02  0.63429036300E+03  0.94279160129E+03  0.65864270000E+03 0.  1.
    8880022    1    1    2    0    0 -0.20704663091E+03  0.99263413415E+02 -0.18316195114E+04  0.18522805458E+04  0.15294330000E+03 0.  0.
<mgrwt>
<rscale>  0 0.55315798E+03</rscale>
<asrwt>0</asrwt>
<pdfrwt beam="1">  1        1 0.30710779E+00 0.69751827E+03</pdfrwt>
<pdfrwt beam="2">  1       -1 0.12290331E+00 0.69751827E+03</pdfrwt>
<totfact> 0.18659015E+00</totfact>
</mgrwt>
</event>
<event>
 4    1  0.2514307E-008  0.7148229E+03  0.7818608E-02  0.9940509E-01
         -1   -1    0    0    0  501 -0.00000000000E+00  0.00000000000E+00  0.14289842892E+04  0.14289842892E+04  0.50400000000E-02 0.  1.
          1   -1    0    0  501    0  0.00000000000E+00 -0.00000000000E+00 -0.13385693303E+04  0.13385693303E+04  0.50400000000E-02 0. -1.
    8880023    1    1    2    0    0  0.16131590569E+03 -0.22613863529E+03  0.13181673332E+04  0.14995121968E+04  0.65864270000E+03 0.  1.
    8880022    1    1    2    0    0 -0.16131590569E+03  0.22613863529E+03 -0.12277523744E+04  0.12680414227E+04  0.15294330000E+03 0.  0.
<mgrwt>
<rscale>  0 0.58337563E+03</rscale>
<asrwt>0</asrwt>
<pdfrwt beam="1">  1        1 0.20593374E+00 0.71482285E+03</pdfrwt>
<pdfrwt beam="2">  1       -1 0.21984374E+00 0.71482285E+03</pdfrwt>
<totfact> 0.99308074E-01</totfact>
</mgrwt>
</event>
<event>
 4    1  0.2514307E-008  0.9719786E+03  0.7818608E-02  0.9419173E-01
         -1   -1    0    0    0  501 -0.00000000000E+00  0.00000000000E+00  0.15898940886E+04  0.15898940886E+04  0.50400000000E-02 0.  1.
          1   -1    0    0  501    0  0.00000000000E+00 -0.00000000000E+00 -0.14154564208E+04  0.14154564208E+04  0.50400000000E-02 0. -1.
    8880023    1    1    2    0    0 -0.71185850520E+03 -0.64727220372E+02  0.13243596265E+04  0.16427631513E+04  0.65864270000E+03 0.  0.
    8880022    1    1    2    0    0  0.71185850520E+03  0.64727220372E+02 -0.11499219587E+04  0.13625873582E+04  0.15294330000E+03 0.  0.
<mgrwt>
<rscale>  0 0.90514485E+03</rscale>
<asrwt>0</asrwt>
<pdfrwt beam="1">  1        1 0.21776253E+00 0.97197858E+03</pdfrwt>
<pdfrwt beam="2">  1       -1 0.24459909E+00 0.97197858E+03</pdfrwt>
<totfact> 0.57502004E-01</totfact>
</mgrwt>
</event>
<event>
 4    1  0.2514307E-008  0.1170890E+04  0.7818608E-02  0.9185952E-01
         -1   -1    0    0    0  501 -0.00000000000E+00  0.00000000000E+00  0.62401464876E+03  0.62401464878E+03  0.50400000000E-02 0.  1.
          1   -1    0    0  501    0  0.00000000000E+00 -0.00000000000E+00 -0.38930560575E+04  0.38930560575E+04  0.50400000000E-02 0. -1.
    8880023    1    1    2    0    0 -0.95554320399E+03  0.15527307149E+03 -0.71917583019E+02  0.11730962818E+04  0.65864270000E+03 0.  0.
    8880022    1    1    2    0    0  0.95554320399E+03 -0.15527307149E+03 -0.31971238257E+04  0.33439744245E+04  0.15294330000E+03 0.  0.
<mgrwt>
<rscale>  0 0.11199607E+04</rscale>
<asrwt>0</asrwt>
<pdfrwt beam="1">  1        1 0.59893169E+00 0.11708897E+04</pdfrwt>
<pdfrwt beam="2">  1       -1 0.96002256E-01 0.11708897E+04</pdfrwt>
<totfact> 0.12649919E-01</totfact>
</mgrwt>
</event>
<event>
 4    1  0.2514307E-008  0.8086189E+03  0.7818608E-02  0.9692461E-01
         -1   -1    0    0    0  501 -0.00000000000E+00  0.00000000000E+00  0.88295796492E+03  0.88295796493E+03  0.50400000000E-02 0.  1.
          1   -1    0    0  501    0  0.00000000000E+00 -0.00000000000E+00 -0.19615644721E+04  0.19615644722E+04  0.50400000000E-02 0. -1.
    8880023    1    1    2    0    0 -0.83734574807E+02  0.46156572732E+03  0.65591070760E+03  0.10411932877E+04  0.65864270000E+03 0.  0.
    8880022    1    1    2    0    0  0.83734574807E+02 -0.46156572732E+03 -0.17345172148E+04  0.18033291494E+04  0.15294330000E+03 0.  0.
<mgrwt>
<rscale>  0 0.71467449E+03</rscale>
<asrwt>0</asrwt>
<pdfrwt beam="1">  1        1 0.30177915E+00 0.80861895E+03</pdfrwt>
<pdfrwt beam="2">  1       -1 0.13583969E+00 0.80861895E+03</pdfrwt>
<totfact> 0.14969282E+00</totfact>
</mgrwt>
</event>
<event>
 4    1  0.2514307E-008  0.1248488E+04  0.7818608E-02  0.9111372E-01
          1   -1    0    0  501    0  0.00000000000E+00  0.00000000000E+00  0.14171252065E+04  0.14171252065E+04  0.50400000000E-02 0. -1.
         -1   -1    0    0    0  501 -0.00000000000E+00 -0.00000000000E+00 -0.14193194089E+04  0.14193194089E+04  0.50400000000E-02 0.  1.
    8880023    1    1    2    0    0  0.97528898220E+03 -0.41680096131E+03 -0.81544741269E+03  0.14911996276E+04  0.65864270000E+03 0.  0.
    8880022    1    1    2    0    0 -0.97528898220E+03  0.41680096131E+03  0.81325321033E+03  0.13452449878E+04  0.15294330000E+03 0. -1.
<mgrwt>
<rscale>  0 0.12016979E+04</rscale>
<asrwt>0</asrwt>
<pdfrwt beam="1">  1        1 0.21801926E+00 0.12484878E+04</pdfrwt>
<pdfrwt beam="2">  1       -1 0.21835683E+00 0.12484878E+04</pdfrwt>
<totfact> 0.82168356E-01</totfact>
</mgrwt>
</event>
<event>
 4    1  0.2514307E-008  0.9337383E+03  0.7818608E-02  0.9473908E-01
         -1   -1    0    0    0  501 -0.00000000000E+00  0.00000000000E+00  0.27849689301E+03  0.27849689305E+03  0.50400000000E-02 0.  1.
          1   -1    0    0  501    0  0.00000000000E+00 -0.00000000000E+00 -0.28351703199E+04  0.28351703199E+04  0.50400000000E-02 0. -1.
    8880023    1    1    2    0    0  0.42204153761E+03 -0.50984108665E+03 -0.79771446514E+03  0.12280942827E+04  0.65864270000E+03 0.  0.
    8880022    1    1    2    0    0 -0.42204153761E+03  0.50984108665E+03 -0.17589589618E+04  0.18855729303E+04  0.15294330000E+03 0.  0.
<mgrwt>
<rscale>  0 0.86235145E+03</rscale>
<asrwt>0</asrwt>
<pdfrwt beam="1">  1        1 0.43618003E+00 0.93373829E+03</pdfrwt>
<pdfrwt beam="2">  1       -1 0.42845678E-01 0.93373829E+03</pdfrwt>
<totfact> 0.43626245E+00</totfact>
</mgrwt>
</event>
<event>
 4    1  0.2514307E-008  0.7466453E+03  0.7818608E-02  0.9840996E-01
          1   -1    0    0  501    0  0.00000000000E+00  0.00000000000E+00  0.30629855999E+04  0.30629855999E+04  0.50400000000E-02 0. -1.
         -1   -1    0    0    0  501 -0.00000000000E+00 -0.00000000000E+00 -0.24051431565E+03  0.24051431571E+03  0.50400000000E-02 0.  1.
    8880023    1    1    2    0    0 -0.17887549974E+03 -0.30277472454E+03  0.39263517467E+03  0.84358850447E+03  0.65864270000E+03 0.  1.
    8880022    1    1    2    0    0  0.17887549974E+03  0.30277472454E+03  0.24298361095E+04  0.24599114111E+04  0.15294330000E+03 0.  0.
<mgrwt>
<rscale>  0 0.63208109E+03</rscale>
<asrwt>0</asrwt>
<pdfrwt beam="1">  1        1 0.47122851E+00 0.74664529E+03</pdfrwt>
<pdfrwt beam="2">  1       -1 0.37002206E-01 0.74664529E+03</pdfrwt>
<totfact> 0.40417152E+00</totfact>
</mgrwt>
</event>
<event>
 4    1  0.2514307E-008  0.6736074E+03  0.7818608E-02  0.1013199E+00
         -1   -1    0    0    0  501 -0.00000000000E+00  0.00000000000E+00  0.22553006324E+04  0.22553006324E+04  0.50400000000E-02 0.  1.
          1   -1    0    0  501    0  0.00000000000E+00 -0.00000000000E+00 -0.21850612930E+03  0.21850612936E+03  0.50400000000E-02 0. -1.
    8880023    1    1    2    0    0 -0.13026350316E+03  0.54481027258E+02  0.21385374889E+04  0.22421172049E+04  0.65864270000E+03 0.  1.
    8880022    1    1    2    0    0  0.13026350316E+03 -0.54481027258E+02 -0.10174298583E+03  0.23168955688E+03  0.15294330000E+03 0.  0.
<mgrwt>
<rscale>  0 0.50222896E+03</rscale>
<asrwt>0</asrwt>
<pdfrwt beam="1">  1        1 0.33616327E-01 0.67360743E+03</pdfrwt>
<pdfrwt beam="2">  1       -1 0.34696934E+00 0.67360743E+03</pdfrwt>
<totfact> 0.23070177E+00</totfact>
</mgrwt>
</event>
<event>
 4    1  0.2514307E-008  0.7620406E+03  0.7818608E-02  0.9799853E-01
         -1   -1    0    0    0  501 -0.00000000000E+00  0.00000000000E+00  0.91892864292E+03  0.91892864294E+03  0.50400000000E-02 0.  1.
          1   -1    0    0  501    0  0.00000000000E+00 -0.00000000000E+00 -0.65548255359E+03  0.65548255361E+03  0.50400000000E-02 0. -1.
    8880023    1    1    2    0    0 -0.35761936957E+03  0.13785517267E+03 -0.34719802779E+03  0.83740810773E+03  0.65864270000E+03 0. -1.
    8880022    1    1    2    0    0  0.35761936957E+03 -0.13785517267E+03  0.61064411713E+03  0.73700308881E+03  0.15294330000E+03 0.  0.
<mgrwt>
<rscale>  0 0.65370434E+03</rscale>
<asrwt>0</asrwt>
<pdfrwt beam="1">  1        1 0.10084347E+00 0.76204059E+03</pdfrwt>
<pdfrwt beam="2">  1       -1 0.14137364E+00 0.76204059E+03</pdfrwt>
<totfact> 0.12628675E+01</totfact>
</mgrwt>
</event>
<event>
 4    1  0.2514307E-008  0.1118402E+04  0.7818608E-02  0.9240840E-01
          1   -1    0    0  501    0  0.00000000000E+00  0.00000000000E+00  0.80702668952E+03  0.80702668953E+03  0.50400000000E-02 0. -1.
         -1   -1    0    0    0  501 -0.00000000000E+00 -0.00000000000E+00 -0.20456497492E+04  0.20456497492E+04  0.50400000000E-02 0.  1.
    8880023    1    1    2    0    0 -0.84713202177E+02 -0.89990857332E+03 -0.15259974575E+04  0.18919540728E+04  0.65864270000E+03 0.  1.
    8880022    1    1    2    0    0  0.84713202177E+02  0.89990857332E+03  0.28737439780E+03  0.96072236597E+03  0.15294330000E+03 0.  0.
<mgrwt>
<rscale>  0 0.10641658E+04</rscale>
<asrwt>0</asrwt>
<pdfrwt beam="1">  1        1 0.12415795E+00 0.11184015E+04</pdfrwt>
<pdfrwt beam="2">  1       -1 0.31471534E+00 0.11184015E+04</pdfrwt>
<totfact> 0.57680536E-01</totfact>
</mgrwt>
</event>
<event>
 4    1  0.2514307E-008  0.7283380E+03  0.7818608E-02  0.9895321E-01
          1   -1    0    0  501    0  0.00000000000E+00  0.00000000000E+00  0.11785618148E+04  0.11785618148E+04  0.50400000000E-02 0. -1.
         -1   -1    0    0    0  501 -0.00000000000E+00 -0.00000000000E+00 -0.56404174253E+03  0.56404174255E+03  0.50400000000E-02 0.  1.
    8880023    1    1    2    0    0 -0.23882336044E+02 -0.30999295307E+03 -0.28233248460E+03  0.78114520740E+03  0.65864270000E+03 0.  1.
    8880022    1    1    2    0    0  0.23882336044E+02  0.30999295307E+03  0.89685255685E+03  0.96145834994E+03  0.15294330000E+03 0.  0.
<mgrwt>
<rscale>  0 0.60488588E+03</rscale>
<asrwt>0</asrwt>
<pdfrwt beam="1">  1        1 0.18131720E+00 0.72833797E+03</pdfrwt>
<pdfrwt beam="2">  1       -1 0.86775655E-01 0.72833797E+03</pdfrwt>
<totfact> 0.15014617E+01</totfact>
</mgrwt>
</event>
<event>
 4    1  0.2514307E-008  0.7436943E+03  0.7818608E-02  0.9849314E-01
          1   -1    0    0  501    0  0.00000000000E+00  0.00000000000E+00  0.12613191537E+04  0.12613191537E+04  0.50400000000E-02 0. -1.
         -1   -1    0    0    0  501 -0.00000000000E+00 -0.00000000000E+00 -0.33216308811E+03  0.33216308815E+03  0.50400000000E-02 0.  1.
    8880023    1    1    2    0    0 -0.23119959486E+03  0.25654983856E+03  0.19653169338E+03  0.76922427490E+03  0.65864270000E+03 0.  0.
    8880022    1    1    2    0    0  0.23119959486E+03 -0.25654983856E+03  0.73262437224E+03  0.82425796699E+03  0.15294330000E+03 0.  0.
<mgrwt>
<rscale>  0 0.62781932E+03</rscale>
<asrwt>0</asrwt>
<pdfrwt beam="1">  1        1 0.19404910E+00 0.74369434E+03</pdfrwt>
<pdfrwt beam="2">  1       -1 0.51102012E-01 0.74369434E+03</pdfrwt>
<totfact> 0.38190665E+01</totfact>
</mgrwt>
</event>
<event>
 4    1  0.2514307E-008  0.1016781E+04  0.7818608E-02  0.9359925E-01
         -1   -1    0    0    0  501 -0.00000000000E+00  0.00000000000E+00  0.59609573824E+03  0.59609573826E+03  0.50400000000E-02 0.  1.
          1   -1    0    0  501    0  0.00000000000E+00 -0.00000000000E+00 -0.15031602048E+04  0.15031602048E+04  0.50400000000E-02 0. -1.
    8880023    1    1    2    0    0 -0.99799698934E+02 -0.76816224798E+03 -0.19352020699E+03  0.10350330893E+04  0.65864270000E+03 0.  1.
    8880022    1    1    2    0    0  0.99799698934E+02  0.76816224798E+03 -0.71354425959E+03  0.10642228538E+04  0.15294330000E+03 0.  0.
<mgrwt>
<rscale>  0 0.95448378E+03</rscale>
<asrwt>0</asrwt>
<pdfrwt beam="1">  1        1 0.23125541E+00 0.10167809E+04</pdfrwt>
<pdfrwt beam="2">  1       -1 0.91707037E-01 0.10167809E+04</pdfrwt>
<totfact> 0.75702308E+00</totfact>
</mgrwt>
</event>
<event>
 4    1  0.2514307E-008  0.8911983E+03  0.7818608E-02  0.9540311E-01
          1   -1    0    0  501    0  0.00000000000E+00  0.00000000000E+00  0.65051785895E+03  0.65051785897E+03  0.50400000000E-02 0. -1.
         -1   -1    0    0    0  501 -0.00000000000E+00 -0.00000000000E+00 -0.10079652957E+04  0.10079652957E+04  0.50400000000E-02 0.  1.
    8880023    1    1    2    0    0  0.21364418124E+03  0.56105288076E+03 -0.50124144425E+03  0.10224858742E+04  0.65864270000E+03 0.  1.
    8880022    1    1    2    0    0 -0.21364418124E+03 -0.56105288076E+03  0.14379400751E+03  0.63599728049E+03  0.15294330000E+03 0.  0.
<mgrwt>
<rscale>  0 0.81375958E+03</rscale>
<asrwt>0</asrwt>
<pdfrwt beam="1">  1        1 0.10007967E+00 0.89119828E+03</pdfrwt>
<pdfrwt beam="2">  1       -1 0.15507158E+00 0.89119828E+03</pdfrwt>
<totfact> 0.98281663E+00</totfact>
</mgrwt>
</event>
<event>
 4    1  0.2514307E-008  0.6606779E+03  0.7818608E-02  0.1023472E+00
         -1   -1    0    0    0  501 -0.00000000000E+00  0.00000000000E+00  0.52653189982E+03  0.52653189984E+03  0.50400000000E-02 0.  1.
          1   -1    0    0  501    0  0.00000000000E+00 -0.00000000000E+00 -0.77540885168E+03  0.77540885170E+03  0.50400000000E-02 0. -1.
    8880023    1    1    2    0    0  0.16233604220E+02  0.49209128732E+02  0.30305667923E+03  0.72686905653E+03  0.65864270000E+03 0.  1.
    8880022    1    1    2    0    0 -0.16233604220E+02 -0.49209128732E+02 -0.55193363109E+03  0.57507169501E+03  0.15294330000E+03 0.  0.
<mgrwt>
<rscale>  0 0.46454090E+03</rscale>
<asrwt>0</asrwt>
<pdfrwt beam="1">  1        1 0.11929367E+00 0.66067789E+03</pdfrwt>
<pdfrwt beam="2">  1       -1 0.81004908E-01 0.66067789E+03</pdfrwt>
<totfact> 0.36507327E+01</totfact>
</mgrwt>
</event>
<event>
 4    1  0.2514307E-008  0.6601037E+03  0.7818608E-02  0.1024050E+00
         -1   -1    0    0    0  501 -0.00000000000E+00  0.00000000000E+00  0.12502880692E+03  0.12502880703E+03  0.50400000000E-02 0.  1.
          1   -1    0    0  501    0  0.00000000000E+00 -0.00000000000E+00 -0.13430098955E+04  0.13430098955E+04  0.50400000000E-02 0. -1.
    8880023    1    1    2    0    0 -0.25413670614E+02  0.35788706251E+02 -0.96469672428E+03  0.11689211531E+04  0.65864270000E+03 0.  0.
    8880022    1    1    2    0    0  0.25413670614E+02 -0.35788706251E+02 -0.25328436431E+03  0.29911754941E+03  0.15294330000E+03 0.  1.
<mgrwt>
<rscale>  0 0.46252853E+03</rscale>
<asrwt>0</asrwt>
<pdfrwt beam="1">  1        1 0.20661690E+00 0.66010370E+03</pdfrwt>
<pdfrwt beam="2">  1       -1 0.19235202E-01 0.66010370E+03</pdfrwt>
<totfact> 0.18838742E+02</totfact>
</mgrwt>
</event>
<event>
 4    1  0.2514307E-008  0.7519422E+03  0.7818608E-02  0.9826433E-01
         -1   -1    0    0    0  501 -0.00000000000E+00  0.00000000000E+00  0.68856342981E+03  0.68856342983E+03  0.50400000000E-02 0.  1.
          1   -1    0    0  501    0  0.00000000000E+00 -0.00000000000E+00 -0.62902914491E+03  0.62902914493E+03  0.50400000000E-02 0. -1.
    8880023    1    1    2    0    0  0.32774566388E+03  0.15553011342E+03  0.34894682767E+03  0.82896376952E+03  0.65864270000E+03 0.  1.
    8880022    1    1    2    0    0 -0.32774566388E+03 -0.15553011342E+03 -0.28941254278E+03  0.48862880524E+03  0.15294330000E+03 0.  0.
<mgrwt>
<rscale>  0 0.63963065E+03</rscale>
<asrwt>0</asrwt>
<pdfrwt beam="1">  1        1 0.96773715E-01 0.75194218E+03</pdfrwt>
<pdfrwt beam="2">  1       -1 0.10593284E+00 0.75194218E+03</pdfrwt>
<totfact> 0.27319957E+01</totfact>
</mgrwt>
</event>
<event>
 4    1  0.2514307E-008  0.7222109E+03  0.7818608E-02  0.9915175E-01
         -1   -1    0    0    0  501 -0.00000000000E+00  0.00000000000E+00  0.24015093532E+04  0.24015093532E+04  0.50400000000E-02 0.  1.
          1   -1    0    0  501    0  0.00000000000E+00 -0.00000000000E+00 -0.44294129427E+03  0.44294129430E+03  0.50400000000E-02 0. -1.
    8880023    1    1    2    0    0  0.13878992597E+03  0.26175504067E+03  0.22737165037E+04  0.23856603468E+04  0.65864270000E+03 0.  1.
    8880022    1    1    2    0    0 -0.13878992597E+03 -0.26175504067E+03 -0.31514844470E+03  0.45879030077E+03  0.15294330000E+03 0.  0.
<mgrwt>
<rscale>  0 0.59531451E+03</rscale>
<asrwt>0</asrwt>
<pdfrwt beam="1">  1        1 0.68144815E-01 0.72221088E+03</pdfrwt>
<pdfrwt beam="2">  1       -1 0.36946297E+00 0.72221088E+03</pdfrwt>
<totfact> 0.64680040E-01</totfact>
</mgrwt>
</event>
<event>
 4    1  0.2514307E-008  0.7845597E+03  0.7818608E-02  0.9745233E-01
         -1   -1    0    0    0  501 -0.00000000000E+00  0.00000000000E+00  0.81955692387E+03  0.81955692389E+03  0.50400000000E-02 0.  1.
          1   -1    0    0  501    0  0.00000000000E+00 -0.00000000000E+00 -0.47104461693E+03  0.47104461696E+03  0.50400000000E-02 0. -1.
    8880023    1    1    2    0    0 -0.38726748449E+03 -0.17817873855E+03  0.16374486232E+03  0.80146512938E+03  0.65864270000E+03 0.  0.
    8880022    1    1    2    0    0  0.38726748449E+03  0.17817873855E+03  0.18476744462E+03  0.48913641146E+03  0.15294330000E+03 0.  0.
<mgrwt>
<rscale>  0 0.68386330E+03</rscale>
<asrwt>0</asrwt>
<pdfrwt beam="1">  1        1 0.72468402E-01 0.78455973E+03</pdfrwt>
<pdfrwt beam="2">  1       -1 0.12608568E+00 0.78455973E+03</pdfrwt>
<totfact> 0.26901074E+01</totfact>
</mgrwt>
</event>
<event>
 4    1  0.2514307E-008  0.1130016E+04  0.7818608E-02  0.9228350E-01
          1   -1    0    0  501    0  0.00000000000E+00  0.00000000000E+00  0.38119289144E+04  0.38119289144E+04  0.50400000000E-02 0. -1.
         -1   -1    0    0    0  501 -0.00000000000E+00 -0.00000000000E+00 -0.37549234690E+03  0.37549234693E+03  0.50400000000E-02 0.  1.
    8880023    1    1    2    0    0  0.29342819947E+02  0.91775028080E+03  0.78124588783E+03  0.13737837976E+04  0.65864270000E+03 0.  0.
    8880022    1    1    2    0    0 -0.29342819947E+02 -0.91775028080E+03  0.26551906796E+04  0.28136374637E+04  0.15294330000E+03 0.  0.
<mgrwt>
<rscale>  0 0.10765538E+04</rscale>
<asrwt>0</asrwt>
<pdfrwt beam="1">  1        1 0.58645066E+00 0.11300163E+04</pdfrwt>
<pdfrwt beam="2">  1       -1 0.57768047E-01 0.11300163E+04</pdfrwt>
<totfact> 0.43357136E-01</totfact>
</mgrwt>
</event>
<event>
 4    1  0.2514307E-008  0.7712507E+03  0.7818608E-02  0.9776806E-01
         -1   -1    0    0    0  501 -0.00000000000E+00  0.00000000000E+00  0.89320584686E+03  0.89320584687E+03  0.50400000000E-02 0.  1.
          1   -1    0    0  501    0  0.00000000000E+00 -0.00000000000E+00 -0.90911799796E+03  0.90911799797E+03  0.50400000000E-02 0. -1.
    8880023    1    1    2    0    0  0.32705703381E+03  0.23248885805E+03  0.65089455078E+03  0.10092032972E+04  0.65864270000E+03 0.  1.
    8880022    1    1    2    0    0 -0.32705703381E+03 -0.23248885805E+03 -0.66680670188E+03  0.79312054769E+03  0.15294330000E+03 0.  0.
<mgrwt>
<rscale>  0 0.66622271E+03</rscale>
<asrwt>0</asrwt>
<pdfrwt beam="1">  1        1 0.13986431E+00 0.77125066E+03</pdfrwt>
<pdfrwt beam="2">  1       -1 0.13741628E+00 0.77125066E+03</pdfrwt>
<totfact> 0.81063544E+00</totfact>
</mgrwt>
</event>
<event>
 4    1  0.2514307E-008  0.8276243E+03  0.7818608E-02  0.9653972E-01
          1   -1    0    0  501    0  0.00000000000E+00  0.00000000000E+00  0.21304250309E+04  0.21304250309E+04  0.50400000000E-02 0. -1.
         -1   -1    0    0    0  501 -0.00000000000E+00 -0.00000000000E+00 -0.41978200392E+03  0.41978200395E+03  0.50400000000E-02 0.  1.
    8880023    1    1    2    0    0  0.40225779030E+03 -0.29889884333E+03  0.73062833585E+02  0.83084308525E+03  0.65864270000E+03 0.  1.
    8880022    1    1    2    0    0 -0.40225779030E+03  0.29889884333E+03  0.16375801934E+04  0.17193639496E+04  0.15294330000E+03 0.  0.
<mgrwt>
<rscale>  0 0.73824640E+03</rscale>
<asrwt>0</asrwt>
<pdfrwt beam="1">  1        1 0.32775770E+00 0.82762434E+03</pdfrwt>
<pdfrwt beam="2">  1       -1 0.64581846E-01 0.82762434E+03</pdfrwt>
<totfact> 0.61303215E+00</totfact>
</mgrwt>
</event>
<event>
 4    1  0.2514307E-008  0.7851713E+03  0.7818608E-02  0.9743827E-01
          1   -1    0    0  501    0  0.00000000000E+00  0.00000000000E+00  0.22420315198E+04  0.22420315198E+04  0.50400000000E-02 0. -1.
         -1   -1    0    0    0  501 -0.00000000000E+00 -0.00000000000E+00 -0.36216562810E+03  0.36216562813E+03  0.50400000000E-02 0.  1.
    8880023    1    1    2    0    0 -0.33631652010E+03  0.26377059439E+03  0.12932142620E+03  0.79574993918E+03  0.65864270000E+03 0.  1.
    8880022    1    1    2    0    0  0.33631652010E+03 -0.26377059439E+03  0.17505444655E+04  0.18084472087E+04  0.15294330000E+03 0.  0.
<mgrwt>
<rscale>  0 0.68466254E+03</rscale>
<asrwt>0</asrwt>
<pdfrwt beam="1">  1        1 0.34492792E+00 0.78517128E+03</pdfrwt>
<pdfrwt beam="2">  1       -1 0.55717789E-01 0.78517128E+03</pdfrwt>
<totfact> 0.69488376E+00</totfact>
</mgrwt>
</event>
<event>
 4    1  0.2514307E-008  0.7191400E+03  0.7818608E-02  0.9925507E-01
         -1   -1    0    0    0  501 -0.00000000000E+00  0.00000000000E+00  0.84838034540E+03  0.84838034542E+03  0.50400000000E-02 0.  1.
          1   -1    0    0  501    0  0.00000000000E+00 -0.00000000000E+00 -0.12866289535E+04  0.12866289535E+04  0.50400000000E-02 0. -1.
    8880023    1    1    2    0    0  0.11252538810E+03 -0.26587624327E+03  0.66800055632E+03  0.98152284192E+03  0.65864270000E+03 0.  1.
    8880022    1    1    2    0    0 -0.11252538810E+03  0.26587624327E+03 -0.11062491644E+04  0.11534864570E+04  0.15294330000E+03 0.  0.
<mgrwt>
<rscale>  0 0.59040893E+03</rscale>
<asrwt>0</asrwt>
<pdfrwt beam="1">  1        1 0.19794292E+00 0.71914000E+03</pdfrwt>
<pdfrwt beam="2">  1       -1 0.13052005E+00 0.71914000E+03</pdfrwt>
<totfact> 0.48502085E+00</totfact>
</mgrwt>
</event>
<event>
 4    1  0.2514307E-008  0.7469107E+03  0.7818608E-02  0.9840255E-01
         -1   -1    0    0    0  501 -0.00000000000E+00  0.00000000000E+00  0.35403517340E+03  0.35403517343E+03  0.50400000000E-02 0.  1.
          1   -1    0    0  501    0  0.00000000000E+00 -0.00000000000E+00 -0.21156591581E+04  0.21156591582E+04  0.50400000000E-02 0. -1.
    8880023    1    1    2    0    0  0.23392409367E+03  0.26333434298E+03 -0.87411208435E+02  0.75200823361E+03  0.65864270000E+03 0.  0.
    8880022    1    1    2    0    0 -0.23392409367E+03 -0.26333434298E+03 -0.16742127763E+04  0.17176860980E+04  0.15294330000E+03 0.  0.
<mgrwt>
<rscale>  0 0.63246245E+03</rscale>
<asrwt>0</asrwt>
<pdfrwt beam="1">  1        1 0.32548602E+00 0.74691075E+03</pdfrwt>
<pdfrwt beam="2">  1       -1 0.54466951E-01 0.74691075E+03</pdfrwt>
<totfact> 0.88814942E+00</totfact>
</mgrwt>
</event>
<event>
 4    1  0.2514307E-008  0.2209975E+04  0.7818608E-02  0.8524337E-01
          1   -1    0    0  501    0  0.00000000000E+00  0.00000000000E+00  0.23063958327E+04  0.23063958327E+04  0.50400000000E-02 0. -1.
         -1   -1    0    0    0  501 -0.00000000000E+00 -0.00000000000E+00 -0.29716833741E+04  0.29716833742E+04  0.50400000000E-02 0.  1.
    8880023    1    1    2    0    0 -0.80553958602E+03 -0.19496881699E+04  0.11495804618E+04  0.24910888039E+04  0.65864270000E+03 0.  0.
    8880022    1    1    2    0    0  0.80553958602E+03  0.19496881699E+04 -0.18148680032E+04  0.27869904030E+04  0.15294330000E+03 0.  0.
<mgrwt>
<rscale>  0 0.21858595E+04</rscale>
<asrwt>0</asrwt>
<pdfrwt beam="1">  1        1 0.35483013E+00 0.22099747E+04</pdfrwt>
<pdfrwt beam="2">  1       -1 0.45718206E+00 0.22099747E+04</pdfrwt>
<totfact> 0.45774963E-03</totfact>
</mgrwt>
</event>
<event>
 4    1  0.2514307E-008  0.6979495E+03  0.7818608E-02  0.1000582E+00
          1   -1    0    0  501    0  0.00000000000E+00  0.00000000000E+00  0.19449709354E+03  0.19449709361E+03  0.50400000000E-02 0. -1.
         -1   -1    0    0    0  501 -0.00000000000E+00 -0.00000000000E+00 -0.33893794465E+04  0.33893794465E+04  0.50400000000E-02 0.  1.
    8880023    1    1    2    0    0 -0.26048618053E+02 -0.22944446268E+03 -0.32301242520E+04  0.33046688460E+04  0.65864270000E+03 0.  1.
    8880022    1    1    2    0    0  0.26048618053E+02  0.22944446268E+03  0.35241899110E+02  0.27920769407E+03  0.15294330000E+03 0.  0.
<mgrwt>
<rscale>  0 0.55395948E+03</rscale>
<asrwt>0</asrwt>
<pdfrwt beam="1">  1        1 0.29922632E-01 0.69794950E+03</pdfrwt>
<pdfrwt beam="2">  1       -1 0.52144295E+00 0.69794950E+03</pdfrwt>
<totfact> 0.17911127E-01</totfact>
</mgrwt>
</event>
<event>
 4    1  0.2514307E-008  0.1269198E+04  0.7818608E-02  0.9092626E-01
         -1   -1    0    0    0  501 -0.00000000000E+00  0.00000000000E+00  0.30464454398E+04  0.30464454398E+04  0.50400000000E-02 0.  1.
          1   -1    0    0  501    0  0.00000000000E+00 -0.00000000000E+00 -0.11176067187E+04  0.11176067187E+04  0.50400000000E-02 0. -1.
    8880023    1    1    2    0    0 -0.72076578682E+03 -0.81089485426E+03 -0.60311254406E+03  0.14052077182E+04  0.65864270000E+03 0.  0.
    8880022    1    1    2    0    0  0.72076578682E+03  0.81089485426E+03  0.25319512651E+04  0.27588444404E+04  0.15294330000E+03 0.  0.
<mgrwt>
<rscale>  0 0.12233899E+04</rscale>
<asrwt>0</asrwt>
<pdfrwt beam="1">  1        1 0.17193950E+00 0.12691982E+04</pdfrwt>
<pdfrwt beam="2">  1       -1 0.46868391E+00 0.12691982E+04</pdfrwt>
<totfact> 0.28987548E-02</totfact>
</mgrwt>
</event>
<event>
 4    1  0.2514307E-008  0.9257194E+03  0.7818608E-02  0.9485945E-01
          1   -1    0    0  501    0  0.00000000000E+00  0.00000000000E+00  0.16328954738E+04  0.16328954738E+04  0.50400000000E-02 0. -1.
         -1   -1    0    0    0  501 -0.00000000000E+00 -0.00000000000E+00 -0.16973012339E+04  0.16973012339E+04  0.50400000000E-02 0.  1.
    8880023    1    1    2    0    0  0.64920087096E+03  0.41041109635E+02 -0.14909140378E+04  0.17549304881E+04  0.65864270000E+03 0.  0.
    8880022    1    1    2    0    0 -0.64920087096E+03 -0.41041109635E+02  0.14265082777E+04  0.15752662197E+04  0.15294330000E+03 0.  0.
<mgrwt>
<rscale>  0 0.85328044E+03</rscale>
<asrwt>0</asrwt>
<pdfrwt beam="1">  1        1 0.25121469E+00 0.92571937E+03</pdfrwt>
<pdfrwt beam="2">  1       -1 0.26112327E+00 0.92571937E+03</pdfrwt>
<totfact> 0.32117218E-01</totfact>
</mgrwt>
</event>
<event>
 4    1  0.2514307E-008  0.8954091E+03  0.7818608E-02  0.9533442E-01
         -1   -1    0    0    0  501 -0.00000000000E+00  0.00000000000E+00  0.11773929134E+04  0.11773929134E+04  0.50400000000E-02 0.  1.
          1   -1    0    0  501    0  0.00000000000E+00 -0.00000000000E+00 -0.11884814457E+04  0.11884814457E+04  0.50400000000E-02 0. -1.
    8880023    1    1    2    0    0  0.67646911604E+02 -0.60280279566E+03  0.89421734548E+03  0.12654573017E+04  0.65864270000E+03 0.  1.
    8880022    1    1    2    0    0 -0.67646911604E+02  0.60280279566E+03 -0.90530587772E+03  0.11004170575E+04  0.15294330000E+03 0.  0.
<mgrwt>
<rscale>  0 0.81862552E+03</rscale>
<asrwt>0</asrwt>
<pdfrwt beam="1">  1        1 0.18284330E+00 0.89540914E+03</pdfrwt>
<pdfrwt beam="2">  1       -1 0.18113737E+00 0.89540914E+03</pdfrwt>
<totfact> 0.22674519E+00</totfact>
</mgrwt>
</event>
<event>
 4    1  0.2514307E-008  0.7470802E+03  0.7818608E-02  0.9839783E-01
          1   -1    0    0  501    0  0.00000000000E+00  0.00000000000E+00  0.15578956379E+04  0.15578956380E+04  0.50400000000E-02 0. -1.
         -1   -1    0    0    0  501 -0.00000000000E+00 -0.00000000000E+00 -0.29985747278E+03  0.29985747282E+03  0.50400000000E-02 0.  1.
    8880023    1    1    2    0    0 -0.17401736778E+03 -0.30665394689E+03  0.26458500081E+03  0.79254912551E+03  0.65864270000E+03 0.  0.
    8880022    1    1    2    0    0  0.17401736778E+03  0.30665394689E+03  0.99345316436E+03  0.10652039853E+04  0.15294330000E+03 0.  0.
<mgrwt>
<rscale>  0 0.63270578E+03</rscale>
<asrwt>0</asrwt>
<pdfrwt beam="1">  1        1 0.23967625E+00 0.74708025E+03</pdfrwt>
<pdfrwt beam="2">  1       -1 0.46131919E-01 0.74708025E+03</pdfrwt>
<totfact> 0.28810690E+01</totfact>
</mgrwt>
</event>
<event>
 4    1  0.2514307E-008  0.1529487E+04  0.7818608E-02  0.8889090E-01
          1   -1    0    0  501    0  0.00000000000E+00  0.00000000000E+00  0.20875559919E+04  0.20875559919E+04  0.50400000000E-02 0. -1.
         -1   -1    0    0    0  501 -0.00000000000E+00 -0.00000000000E+00 -0.23393837836E+04  0.23393837836E+04  0.50400000000E-02 0.  1.
    8880023    1    1    2    0    0  0.13782202801E+04 -0.77647229773E+02 -0.17900533238E+04  0.23544896137E+04  0.65864270000E+03 0.  1.
    8880022    1    1    2    0    0 -0.13782202801E+04  0.77647229773E+02  0.15382255320E+04  0.20724501618E+04  0.15294330000E+03 0.  0.
<mgrwt>
<rscale>  0 0.14930467E+04</rscale>
<asrwt>0</asrwt>
<pdfrwt beam="1">  1        1 0.32116246E+00 0.15294870E+04</pdfrwt>
<pdfrwt beam="2">  1       -1 0.35990520E+00 0.15294870E+04</pdfrwt>
<totfact> 0.32616886E-02</totfact>
</mgrwt>
</event>
<event>
 4    1  0.2514307E-008  0.8615053E+03  0.7818608E-02  0.9590891E-01
         -1   -1    0    0    0  501 -0.00000000000E+00  0.00000000000E+00  0.10436819836E+04  0.10436819836E+04  0.50400000000E-02 0.  1.
          1   -1    0    0  501    0  0.00000000000E+00 -0.00000000000E+00 -0.33101575996E+04  0.33101575996E+04  0.50400000000E-02 0. -1.
    8880023    1    1    2    0    0 -0.52243877671E+03 -0.18825206023E+03  0.83474648781E+03  0.11995803511E+04  0.65864270000E+03 0.  1.
    8880022    1    1    2    0    0  0.52243877671E+03  0.18825206023E+03 -0.31012221037E+04  0.31542592321E+04  0.15294330000E+03 0.  0.
<mgrwt>
<rscale>  0 0.77901988E+03</rscale>
<asrwt>0</asrwt>
<pdfrwt beam="1">  1        1 0.50925501E+00 0.86150526E+03</pdfrwt>
<pdfrwt beam="2">  1       -1 0.16056646E+00 0.86150526E+03</pdfrwt>
<totfact> 0.10835885E-01</totfact>
</mgrwt>
</event>
<event>
 4    1  0.2514307E-008  0.1219091E+04  0.7818608E-02  0.9138784E-01
          1   -1    0    0  501    0  0.00000000000E+00  0.00000000000E+00  0.16126556417E+04  0.16126556417E+04  0.50400000000E-02 0. -1.
         -1   -1    0    0    0  501 -0.00000000000E+00 -0.00000000000E+00 -0.92359626660E+03  0.92359626661E+03  0.50400000000E-02 0.  1.
    8880023    1    1    2    0    0  0.72578470790E+03  0.72498901830E+03 -0.11414149518E+03  0.12244227236E+04  0.65864270000E+03 0.  1.
    8880022    1    1    2    0    0 -0.72578470790E+03 -0.72498901830E+03  0.80320087030E+03  0.13118291847E+04  0.15294330000E+03 0.  0.
<mgrwt>
<rscale>  0 0.11708243E+04</rscale>
<asrwt>0</asrwt>
<pdfrwt beam="1">  1        1 0.24810087E+00 0.12190909E+04</pdfrwt>
<pdfrwt beam="2">  1       -1 0.14209173E+00 0.12190909E+04</pdfrwt>
<totfact> 0.21597659E+00</totfact>
</mgrwt>
</event>
<event>
 4    1  0.2514307E-008  0.9293656E+03  0.7818608E-02  0.9480446E-01
          1   -1    0    0  501    0  0.00000000000E+00  0.00000000000E+00  0.34832569854E+04  0.34832569854E+04  0.50400000000E-02 0. -1.
         -1   -1    0    0    0  501 -0.00000000000E+00 -0.00000000000E+00 -0.19172222806E+03  0.19172222813E+03  0.50400000000E-02 0.  1.
    8880023    1    1    2    0    0 -0.60121637481E+03 -0.26162783450E+03  0.15426001296E+04  0.18009263226E+04  0.65864270000E+03 0.  0.
    8880022    1    1    2    0    0  0.60121637481E+03  0.26162783450E+03  0.17489346277E+04  0.18740528909E+04  0.15294330000E+03 0.  0.
<mgrwt>
<rscale>  0 0.85740971E+03</rscale>
<asrwt>0</asrwt>
<pdfrwt beam="1">  1        1 0.53588568E+00 0.92936562E+03</pdfrwt>
<pdfrwt beam="2">  1       -1 0.29495728E-01 0.92936562E+03</pdfrwt>
<totfact> 0.28382225E+00</totfact>
</mgrwt>
</event>
<event>
 4    1  0.2514307E-008  0.9528641E+03  0.7818608E-02  0.9446005E-01
         -1   -1    0    0    0  501 -0.00000000000E+00  0.00000000000E+00  0.15311716139E+04  0.15311716139E+04  0.50400000000E-02 0.  1.
          1   -1    0    0  501    0  0.00000000000E+00 -0.00000000000E+00 -0.11984811955E+04  0.11984811955E+04  0.50400000000E-02 0. -1.
    8880023    1    1    2    0    0 -0.30442704557E+03  0.61762764382E+03  0.12504657672E+04  0.15721369449E+04  0.65864270000E+03 0.  1.
    8880022    1    1    2    0    0  0.30442704557E+03 -0.61762764382E+03 -0.91777534884E+03  0.11575158644E+04  0.15294330000E+03 0.  0.
<mgrwt>
<rscale>  0 0.88384432E+03</rscale>
<asrwt>0</asrwt>
<pdfrwt beam="1">  1        1 0.18438172E+00 0.95286407E+03</pdfrwt>
<pdfrwt beam="2">  1       -1 0.23556486E+00 0.95286407E+03</pdfrwt>
<totfact> 0.94295824E-01</totfact>
</mgrwt>
</event>
<event>
 4    1  0.2694067E-008  0.8907579E+03  0.7818608E-02  0.9541034E-01
          1   -1    0    0  501    0  0.00000000000E+00  0.00000000000E+00  0.27643987364E+04  0.27643987364E+04  0.50400000000E-02 0. -1.
         -1   -1    0    0    0  501 -0.00000000000E+00 -0.00000000000E+00 -0.12687476482E+04  0.12687476482E+04  0.50400000000E-02 0.  1.
    8880023    1    1    2    0    0 -0.21888825254E+03 -0.55832549709E+03 -0.10709526955E+04  0.13929785749E+04  0.65864270000E+03 0.  0.
    8880022    1    1    2    0    0  0.21888825254E+03  0.55832549709E+03  0.25666037837E+04  0.26401678097E+04  0.15294330000E+03 0.  0.
<mgrwt>
<rscale>  0 0.81324989E+03</rscale>
<asrwt>0</asrwt>
<pdfrwt beam="1">  1        1 0.42529211E+00 0.89075790E+03</pdfrwt>
<pdfrwt beam="2">  1       -1 0.19519195E+00 0.89075790E+03</pdfrwt>
<totfact> 0.15054922E-01</totfact>
</mgrwt>
</event>
<event>
 4    1  0.2514307E-008  0.7154102E+03  0.7818608E-02  0.9938434E-01
         -1   -1    0    0    0  501 -0.00000000000E+00  0.00000000000E+00  0.54237915187E+03  0.54237915189E+03  0.50400000000E-02 0.  1.
          1   -1    0    0  501    0  0.00000000000E+00 -0.00000000000E+00 -0.77456135970E+03  0.77456135972E+03  0.50400000000E-02 0. -1.
    8880023    1    1    2    0    0  0.27329691797E+03  0.57536032360E+02  0.23371963632E+03  0.75261987421E+03  0.65864270000E+03 0.  1.
    8880022    1    1    2    0    0 -0.27329691797E+03 -0.57536032360E+02 -0.46590184416E+03  0.56432063740E+03  0.15294330000E+03 0.  0.
<mgrwt>
<rscale>  0 0.58434253E+03</rscale>
<asrwt>0</asrwt>
<pdfrwt beam="1">  1        1 0.11916329E+00 0.71541024E+03</pdfrwt>
<pdfrwt beam="2">  1       -1 0.83442946E-01 0.71541024E+03</pdfrwt>
<totfact> 0.34118596E+01</totfact>
</mgrwt>
</event>
<event>
 4    1  0.2514307E-008  0.1464027E+04  0.7818608E-02  0.8935464E-01
          1   -1    0    0  501    0  0.00000000000E+00  0.00000000000E+00  0.24816728825E+04  0.24816728825E+04  0.50400000000E-02 0. -1.
         -1   -1    0    0    0  501 -0.00000000000E+00 -0.00000000000E+00 -0.12517285900E+04  0.12517285900E+04  0.50400000000E-02 0.  1.
    8880023    1    1    2    0    0  0.10347769561E+04  0.79925098638E+03 -0.51111912446E+03  0.15506832216E+04  0.65864270000E+03 0.  0.
    8880022    1    1    2    0    0 -0.10347769561E+04 -0.79925098638E+03  0.17410634169E+04  0.21827182509E+04  0.15294330000E+03 0.  0.
<mgrwt>
<rscale>  0 0.14256415E+04</rscale>
<asrwt>0</asrwt>
<pdfrwt beam="1">  1        1 0.38179583E+00 0.14640272E+04</pdfrwt>
<pdfrwt beam="2">  1       -1 0.19257363E+00 0.14640272E+04</pdfrwt>
<totfact> 0.22468905E-01</totfact>
</mgrwt>
</event>
<event>
 4    1  0.2514307E-008  0.7380058E+03  0.7818608E-02  0.9865795E-01
         -1   -1    0    0    0  501 -0.00000000000E+00  0.00000000000E+00  0.43115011476E+03  0.43115011479E+03  0.50400000000E-02 0.  1.
          1   -1    0    0  501    0  0.00000000000E+00 -0.00000000000E+00 -0.12072078273E+04  0.12072078273E+04  0.50400000000E-02 0. -1.
    8880023    1    1    2    0    0 -0.33116813284E+03 -0.34205432301E+02  0.44884622352E+02  0.73936944716E+03  0.65864270000E+03 0.  1.
    8880022    1    1    2    0    0  0.33116813284E+03  0.34205432301E+02 -0.82094233488E+03  0.89898849493E+03  0.15294330000E+03 0.  0.
<mgrwt>
<rscale>  0 0.61948050E+03</rscale>
<asrwt>0</asrwt>
<pdfrwt beam="1">  1        1 0.18572428E+00 0.73800579E+03</pdfrwt>
<pdfrwt beam="2">  1       -1 0.66330787E-01 0.73800579E+03</pdfrwt>
<totfact> 0.25079178E+01</totfact>
</mgrwt>
</event>
<event>
 4    1  0.2514307E-008  0.6832044E+03  0.7818608E-02  0.1007566E+00
          1   -1    0    0  501    0  0.00000000000E+00  0.00000000000E+00  0.11539266653E+04  0.11539266653E+04  0.50400000000E-02 0. -1.
         -1   -1    0    0    0  501 -0.00000000000E+00 -0.00000000000E+00 -0.61608202431E+03  0.61608202433E+03  0.50400000000E-02 0.  1.
    8880023    1    1    2    0    0  0.16791137319E+03 -0.69020341582E+02 -0.40737393294E+03  0.79543809583E+03  0.65864270000E+03 0.  1.
    8880022    1    1    2    0    0 -0.16791137319E+03  0.69020341582E+02  0.94521857393E+03  0.97457059381E+03  0.15294330000E+03 0.  0.
<mgrwt>
<rscale>  0 0.52453495E+03</rscale>
<asrwt>0</asrwt>
<pdfrwt beam="1">  1        1 0.17752718E+00 0.68320439E+03</pdfrwt>
<pdfrwt beam="2">  1       -1 0.94781850E-01 0.68320439E+03</pdfrwt>
<totfact> 0.12967849E+01</totfact>
</mgrwt>
</event>
<event>
 4    1  0.2514307E-008  0.1013476E+04  0.7818608E-02  0.9364135E-01
         -1   -1    0    0    0  501 -0.00000000000E+00  0.00000000000E+00  0.57504581047E+03  0.57504581049E+03  0.50400000000E-02 0.  1.
          1   -1    0    0  501    0  0.00000000000E+00 -0.00000000000E+00 -0.18724190096E+04  0.18724190096E+04  0.50400000000E-02 0. -1.
    8880023    1    1    2    0    0  0.85147560704E+02 -0.76555478347E+03 -0.13171146012E+04  0.16619041225E+04  0.65864270000E+03 0.  0.
    8880022    1    1    2    0    0 -0.85147560704E+02  0.76555478347E+03  0.19741402059E+02  0.78556069756E+03  0.15294330000E+03 0.  0.
<mgrwt>
<rscale>  0 0.95086941E+03</rscale>
<asrwt>0</asrwt>
<pdfrwt beam="1">  1        1 0.28806446E+00 0.10134764E+04</pdfrwt>
<pdfrwt beam="2">  1       -1 0.88468587E-01 0.10134764E+04</pdfrwt>
<totfact> 0.45996386E+00</totfact>
</mgrwt>
</event>
<event>
 4    1  0.2514307E-008  0.6691553E+03  0.7818608E-02  0.1016276E+00
         -1   -1    0    0    0  501 -0.00000000000E+00  0.00000000000E+00  0.86825551933E+03  0.86825551935E+03  0.50400000000E-02 0.  1.
          1   -1    0    0  501    0  0.00000000000E+00 -0.00000000000E+00 -0.12719272403E+04  0.12719272403E+04  0.50400000000E-02 0. -1.
    8880023    1    1    2    0    0 -0.60956573487E+02 -0.10120733153E+03  0.72992374552E+03  0.99023103786E+03  0.65864270000E+03 0.  1.
    8880022    1    1    2    0    0  0.60956573487E+02  0.10120733153E+03 -0.11335954665E+04  0.11499517218E+04  0.15294330000E+03 0.  0.
<mgrwt>
<rscale>  0 0.49054848E+03</rscale>
<asrwt>0</asrwt>
<pdfrwt beam="1">  1        1 0.19568111E+00 0.66915531E+03</pdfrwt>
<pdfrwt beam="2">  1       -1 0.13357777E+00 0.66915531E+03</pdfrwt>
<totfact> 0.47275096E+00</totfact>
</mgrwt>
</event>
<event>
 4    1  0.2514307E-008  0.8105105E+03  0.7818608E-02  0.9688515E-01
         -1   -1    0    0    0  501 -0.00000000000E+00  0.00000000000E+00  0.51175311404E+03  0.51175311407E+03  0.50400000000E-02 0.  1.
          1   -1    0    0  501    0  0.00000000000E+00 -0.00000000000E+00 -0.36271357897E+04  0.36271357898E+04  0.50400000000E-02 0. -1.
    8880023    1    1    2    0    0 -0.29387288811E+03 -0.36980496444E+03  0.15994705167E+03  0.82614178668E+03  0.65864270000E+03 0.  0.
    8880022    1    1    2    0    0  0.29387288811E+03  0.36980496444E+03 -0.32753297274E+04  0.33127471171E+04  0.15294330000E+03 0.  0.
<mgrwt>
<rscale>  0 0.71704759E+03</rscale>
<asrwt>0</asrwt>
<pdfrwt beam="1">  1        1 0.55802087E+00 0.81051045E+03</pdfrwt>
<pdfrwt beam="2">  1       -1 0.78731251E-01 0.81051045E+03</pdfrwt>
<totfact> 0.34649910E-01</totfact>
</mgrwt>
</event>
<event>
 4    1  0.2514307E-008  0.7787964E+03  0.7818608E-02  0.9758672E-01
         -1   -1    0    0    0  501 -0.00000000000E+00  0.00000000000E+00  0.46077611652E+03  0.46077611655E+03  0.50400000000E-02 0.  1.
          1   -1    0    0  501    0  0.00000000000E+00 -0.00000000000E+00 -0.95939472098E+03  0.95939472099E+03  0.50400000000E-02 0. -1.
    8880023    1    1    2    0    0 -0.41346378016E+03  0.41968521006E+02 -0.35799397175E+02  0.77961878977E+03  0.65864270000E+03 0.  0.
    8880022    1    1    2    0    0  0.41346378016E+03 -0.41968521006E+02 -0.46281920728E+03  0.64055204777E+03  0.15294330000E+03 0.  0.
<mgrwt>
<rscale>  0 0.67628402E+03</rscale>
<asrwt>0</asrwt>
<pdfrwt beam="1">  1        1 0.14759919E+00 0.77879642E+03</pdfrwt>
<pdfrwt beam="2">  1       -1 0.70888634E-01 0.77879642E+03</pdfrwt>
<totfact> 0.33503229E+01</totfact>
</mgrwt>
</event>
<event>
 4    1  0.2514307E-008  0.9754722E+03  0.7818608E-02  0.9414375E-01
         -1   -1    0    0    0  501 -0.00000000000E+00  0.00000000000E+00  0.75361446562E+03  0.75361446564E+03  0.50400000000E-02 0.  1.
          1   -1    0    0  501    0  0.00000000000E+00 -0.00000000000E+00 -0.19407266856E+04  0.19407266857E+04  0.50400000000E-02 0. -1.
    8880023    1    1    2    0    0  0.11172581901E+03 -0.71081154941E+03  0.31226459398E+03  0.10242339090E+04  0.65864270000E+03 0.  0.
    8880022    1    1    2    0    0 -0.11172581901E+03  0.71081154941E+03 -0.14993768140E+04  0.16701072423E+04  0.15294330000E+03 0.  0.
<mgrwt>
<rscale>  0 0.90902033E+03</rscale>
<asrwt>0</asrwt>
<pdfrwt beam="1">  1        1 0.29857333E+00 0.97547215E+03</pdfrwt>
<pdfrwt beam="2">  1       -1 0.11594069E+00 0.97547215E+03</pdfrwt>
<totfact> 0.22308753E+00</totfact>
</mgrwt>
</event>
<event>
 4    1  0.2514307E-008  0.1114154E+04  0.7818608E-02  0.9245459E-01
          1   -1    0    0  501    0  0.00000000000E+00  0.00000000000E+00  0.25132039905E+04  0.25132039905E+04  0.50400000000E-02 0. -1.
         -1   -1    0    0    0  501 -0.00000000000E+00 -0.00000000000E+00 -0.13618032806E+04  0.13618032806E+04  0.50400000000E-02 0.  1.
    8880023    1    1    2    0    0  0.76071635509E+03  0.47837163110E+03 -0.10259371515E+04  0.15145580330E+04  0.65864270000E+03 0.  1.
    8880022    1    1    2    0    0 -0.76071635509E+03 -0.47837163110E+03  0.21773378613E+04  0.23604492381E+04  0.15294330000E+03 0.  0.
<mgrwt>
<rscale>  0 0.10596290E+04</rscale>
<asrwt>0</asrwt>
<pdfrwt beam="1">  1        1 0.38664677E+00 0.11141539E+04</pdfrwt>
<pdfrwt beam="2">  1       -1 0.20950820E+00 0.11141539E+04</pdfrwt>
<totfact> 0.17183886E-01</totfact>
</mgrwt>
</event>
<event>
 4    1  0.2514307E-008  0.6955862E+03  0.7818608E-02  0.1001603E+00
          1   -1    0    0  501    0  0.00000000000E+00  0.00000000000E+00  0.41662750047E+03  0.41662750050E+03  0.50400000000E-02 0. -1.
         -1   -1    0    0    0  501 -0.00000000000E+00 -0.00000000000E+00 -0.98979366724E+03  0.98979366725E+03  0.50400000000E-02 0.  1.
    8880023    1    1    2    0    0 -0.22223902930E+03  0.25294671557E+02 -0.79491887469E+03  0.10562841616E+04  0.65864270000E+03 0.  1.
    8880022    1    1    2    0    0  0.22223902930E+03 -0.25294671557E+02  0.22175270792E+03  0.35013700609E+03  0.15294330000E+03 0.  0.
<mgrwt>
<rscale>  0 0.54952981E+03</rscale>
<asrwt>0</asrwt>
<pdfrwt beam="1">  1        1 0.64096539E-01 0.69558624E+03</pdfrwt>
<pdfrwt beam="2">  1       -1 0.15227595E+00 0.69558624E+03</pdfrwt>
<totfact> 0.19641477E+01</totfact>
</mgrwt>
</event>
<event>
 4    1  0.2514307E-008  0.1110751E+04  0.7818608E-02  0.9249180E-01
          1   -1    0    0  501    0  0.00000000000E+00  0.00000000000E+00  0.13417673437E+04  0.13417673437E+04  0.50400000000E-02 0. -1.
         -1   -1    0    0    0  501 -0.00000000000E+00 -0.00000000000E+00 -0.17824991965E+04  0.17824991965E+04  0.50400000000E-02 0.  1.
    8880023    1    1    2    0    0 -0.84477632700E+02 -0.89040442720E+03 -0.14110521803E+04  0.17957825526E+04  0.65864270000E+03 0.  0.
    8880022    1    1    2    0    0  0.84477632700E+02  0.89040442720E+03  0.97032032754E+03  0.13284839877E+04  0.15294330000E+03 0.  0.
<mgrwt>
<rscale>  0 0.10559913E+04</rscale>
<asrwt>0</asrwt>
<pdfrwt beam="1">  1        1 0.20642575E+00 0.11107505E+04</pdfrwt>
<pdfrwt beam="2">  1       -1 0.27423065E+00 0.11107505E+04</pdfrwt>
<totfact> 0.40765403E-01</totfact>
</mgrwt>
</event>
<event>
 4    1  0.2514307E-008  0.9085196E+03  0.7818608E-02  0.9512491E-01
          1   -1    0    0  501    0  0.00000000000E+00  0.00000000000E+00  0.10618711273E+04  0.10618711273E+04  0.50400000000E-02 0. -1.
         -1   -1    0    0    0  501 -0.00000000000E+00 -0.00000000000E+00 -0.87958681249E+03  0.87958681250E+03  0.50400000000E-02 0.  1.
    8880023    1    1    2    0    0 -0.62570534558E+03  0.95101568866E+01 -0.47153393201E+03  0.10235976152E+04  0.65864270000E+03 0.  0.
    8880022    1    1    2    0    0  0.62570534558E+03 -0.95101568866E+01  0.65381824682E+03  0.91786032459E+03  0.15294330000E+03 0.  0.
<mgrwt>
<rscale>  0 0.83369141E+03</rscale>
<asrwt>0</asrwt>
<pdfrwt beam="1">  1        1 0.16336479E+00 0.90851958E+03</pdfrwt>
<pdfrwt beam="2">  1       -1 0.13532105E+00 0.90851958E+03</pdfrwt>
<totfact> 0.62883655E+00</totfact>
</mgrwt>
</event>
<event>
 4    1  0.2514307E-008  0.7355011E+03  0.7818608E-02  0.9873251E-01
         -1   -1    0    0    0  501 -0.00000000000E+00  0.00000000000E+00  0.23154470388E+03  0.23154470394E+03  0.50400000000E-02 0.  1.
          1   -1    0    0  501    0  0.00000000000E+00 -0.00000000000E+00 -0.38724726601E+04  0.38724726601E+04  0.50400000000E-02 0. -1.
    8880023    1    1    2    0    0 -0.31983685438E+03 -0.69685753834E+02 -0.38891665359E+03  0.83199644675E+03  0.65864270000E+03 0.  1.
    8880022    1    1    2    0    0  0.31983685438E+03  0.69685753834E+02 -0.32520113027E+04  0.32720209173E+04  0.15294330000E+03 0.  0.
<mgrwt>
<rscale>  0 0.61575347E+03</rscale>
<asrwt>0</asrwt>
<pdfrwt beam="1">  1        1 0.59576498E+00 0.73550114E+03</pdfrwt>
<pdfrwt beam="2">  1       -1 0.35622265E-01 0.73550114E+03</pdfrwt>
<totfact> 0.10280726E+00</totfact>
</mgrwt>
</event>
<event>
 4    1  0.2514307E-008  0.6796715E+03  0.7818608E-02  0.1009510E+00
          1   -1    0    0  501    0  0.00000000000E+00  0.00000000000E+00  0.18791693697E+04  0.18791693697E+04  0.50400000000E-02 0. -1.
         -1   -1    0    0    0  501 -0.00000000000E+00 -0.00000000000E+00 -0.13582607375E+04  0.13582607375E+04  0.50400000000E-02 0.  1.
    8880023    1    1    2    0    0 -0.25802035233E+01  0.16773919926E+03 -0.12655993023E+04  0.14365566110E+04  0.65864270000E+03 0.  1.
    8880022    1    1    2    0    0  0.25802035233E+01 -0.16773919926E+03  0.17865079344E+04  0.18008734962E+04  0.15294330000E+03 0.  0.
<mgrwt>
<rscale>  0 0.51669802E+03</rscale>
<asrwt>0</asrwt>
<pdfrwt beam="1">  1        1 0.28910298E+00 0.67967147E+03</pdfrwt>
<pdfrwt beam="2">  1       -1 0.20896319E+00 0.67967147E+03</pdfrwt>
<totfact> 0.50866781E-01</totfact>
</mgrwt>
</event>
<event>
 4    1  0.2514307E-008  0.7027730E+03  0.7818608E-02  0.9985887E-01
          1   -1    0    0  501    0  0.00000000000E+00  0.00000000000E+00  0.17027245242E+04  0.17027245242E+04  0.50400000000E-02 0. -1.
         -1   -1    0    0    0  501 -0.00000000000E+00 -0.00000000000E+00 -0.27540506663E+03  0.27540506667E+03  0.50400000000E-02 0.  1.
    8880023    1    1    2    0    0 -0.88372224202E+02 -0.22862637119E+03  0.21952654694E+03  0.73626203127E+03  0.65864270000E+03 0.  0.
    8880022    1    1    2    0    0  0.88372224202E+02  0.22862637119E+03  0.12077929106E+04  0.12418675596E+04  0.15294330000E+03 0.  0.
<mgrwt>
<rscale>  0 0.56273439E+03</rscale>
<asrwt>0</asrwt>
<pdfrwt beam="1">  1        1 0.26195762E+00 0.70277299E+03</pdfrwt>
<pdfrwt beam="2">  1       -1 0.42370010E-01 0.70277299E+03</pdfrwt>
<totfact> 0.27073430E+01</totfact>
</mgrwt>
</event>
<event>
 4    1  0.2514307E-008  0.6639835E+03  0.7818608E-02  0.1020402E+00
          1   -1    0    0  501    0  0.00000000000E+00  0.00000000000E+00  0.53947109356E+03  0.53947109359E+03  0.50400000000E-02 0. -1.
         -1   -1    0    0    0  501 -0.00000000000E+00 -0.00000000000E+00 -0.59738029465E+03  0.59738029467E+03  0.50400000000E-02 0.  1.
    8880023    1    1    2    0    0  0.34399004551E+02  0.76684906890E+02 -0.38397996619E+03  0.76701674503E+03  0.65864270000E+03 0. -1.
    8880022    1    1    2    0    0 -0.34399004551E+02 -0.76684906890E+02  0.32607076511E+03  0.36983464323E+03  0.15294330000E+03 0.  0.
<mgrwt>
<rscale>  0 0.47541865E+03</rscale>
<asrwt>0</asrwt>
<pdfrwt beam="1">  1        1 0.82995553E-01 0.66398349E+03</pdfrwt>
<pdfrwt beam="2">  1       -1 0.91904661E-01 0.66398349E+03</pdfrwt>
<totfact> 0.47345517E+01</totfact>
</mgrwt>
</event>
<event>
 4    1  0.2514307E-008  0.7777091E+03  0.7818608E-02  0.9761246E-01
         -1   -1    0    0    0  501 -0.00000000000E+00  0.00000000000E+00  0.12046662269E+04  0.12046662269E+04  0.50400000000E-02 0.  1.
          1   -1    0    0  501    0  0.00000000000E+00 -0.00000000000E+00 -0.34401440816E+03  0.34401440820E+03  0.50400000000E-02 0. -1.
    8880023    1    1    2    0    0  0.55489359241E+02 -0.40980756443E+03  0.77804882446E+03  0.11000870367E+04  0.65864270000E+03 0.  1.
    8880022    1    1    2    0    0 -0.55489359241E+02  0.40980756443E+03  0.82602994306E+02  0.44859359842E+03  0.15294330000E+03 0.  0.
<mgrwt>
<rscale>  0 0.67484426E+03</rscale>
<asrwt>0</asrwt>
<pdfrwt beam="1">  1        1 0.52925294E-01 0.77770915E+03</pdfrwt>
<pdfrwt beam="2">  1       -1 0.18533327E+00 0.77770915E+03</pdfrwt>
<totfact> 0.14319862E+01</totfact>
</mgrwt>
</event>
<event>
 4    1  0.2514307E-008  0.1243584E+04  0.7818608E-02  0.9115878E-01
         -1   -1    0    0    0  501 -0.00000000000E+00  0.00000000000E+00  0.69043549905E+03  0.69043549907E+03  0.50400000000E-02 0.  1.
          1   -1    0    0  501    0  0.00000000000E+00 -0.00000000000E+00 -0.26880885669E+04  0.26880885669E+04  0.50400000000E-02 0. -1.
    8880023    1    1    2    0    0  0.35696637250E+03 -0.99260523649E+03 -0.15959919357E+03  0.12537831772E+04  0.65864270000E+03 0.  1.
    8880022    1    1    2    0    0 -0.35696637250E+03  0.99260523649E+03 -0.18380538743E+04  0.21247408888E+04  0.15294330000E+03 0.  0.
<mgrwt>
<rscale>  0 0.11965544E+04</rscale>
<asrwt>0</asrwt>
<pdfrwt beam="1">  1        1 0.41355208E+00 0.12435837E+04</pdfrwt>
<pdfrwt beam="2">  1       -1 0.10622085E+00 0.12435837E+04</pdfrwt>
<totfact> 0.81743821E-01</totfact>
</mgrwt>
</event>
<event>
 4    1  0.2514307E-008  0.7327782E+03  0.7818608E-02  0.9881506E-01
          1   -1    0    0  501    0  0.00000000000E+00  0.00000000000E+00  0.14068083217E+04  0.14068083217E+04  0.50400000000E-02 0. -1.
         -1   -1    0    0    0  501 -0.00000000000E+00 -0.00000000000E+00 -0.54477805454E+03  0.54477805457E+03  0.50400000000E-02 0.  1.
    8880023    1    1    2    0    0 -0.31361255231E+03 -0.69287933960E+02 -0.25765032990E+03  0.77675449758E+03  0.65864270000E+03 0.  1.
    8880022    1    1    2    0    0  0.31361255231E+03  0.69287933960E+02  0.11196805970E+04  0.11748318787E+04  0.15294330000E+03 0.  0.
<mgrwt>
<rscale>  0 0.61166010E+03</rscale>
<asrwt>0</asrwt>
<pdfrwt beam="1">  1        1 0.21643205E+00 0.73277818E+03</pdfrwt>
<pdfrwt beam="2">  1       -1 0.83812009E-01 0.73277818E+03</pdfrwt>
<totfact> 0.11146463E+01</totfact>
</mgrwt>
</event>
<event>
 4    1  0.2514307E-008  0.1112908E+04  0.7818608E-02  0.9246819E-01
          1   -1    0    0  501    0  0.00000000000E+00  0.00000000000E+00  0.18440905480E+04  0.18440905480E+04  0.50400000000E-02 0. -1.
         -1   -1    0    0    0  501 -0.00000000000E+00 -0.00000000000E+00 -0.67761572665E+03  0.67761572667E+03  0.50400000000E-02 0.  1.
    8880023    1    1    2    0    0 -0.80707475993E+03  0.39164417692E+03  0.96515627549E+02  0.11170856288E+04  0.65864270000E+03 0.  1.
    8880022    1    1    2    0    0  0.80707475993E+03 -0.39164417692E+03  0.10699591938E+04  0.14046206459E+04  0.15294330000E+03 0.  0.
<mgrwt>
<rscale>  0 0.10582979E+04</rscale>
<asrwt>0</asrwt>
<pdfrwt beam="1">  1        1 0.28370623E+00 0.11129084E+04</pdfrwt>
<pdfrwt beam="2">  1       -1 0.10424858E+00 0.11129084E+04</pdfrwt>
<totfact> 0.32750168E+00</totfact>
</mgrwt>
</event>
<event>
 4    1  0.2514307E-008  0.7366916E+03  0.7818608E-02  0.9869691E-01
          1   -1    0    0  501    0  0.00000000000E+00  0.00000000000E+00  0.85396269918E+03  0.85396269919E+03  0.50400000000E-02 0. -1.
         -1   -1    0    0    0  501 -0.00000000000E+00 -0.00000000000E+00 -0.24769715904E+04  0.24769715904E+04  0.50400000000E-02 0.  1.
    8880023    1    1    2    0    0  0.19697323713E+03  0.26477496669E+03 -0.23798308976E+04  0.24912465848E+04  0.65864270000E+03 0.  1.
    8880022    1    1    2    0    0 -0.19697323713E+03 -0.26477496669E+03  0.75682200638E+03  0.83968770474E+03  0.15294330000E+03 0.  0.
<mgrwt>
<rscale>  0 0.61752929E+03</rscale>
<asrwt>0</asrwt>
<pdfrwt beam="1">  1        1 0.13137888E+00 0.73669155E+03</pdfrwt>
<pdfrwt beam="2">  1       -1 0.38107255E+00 0.73669155E+03</pdfrwt>
<totfact> 0.20656381E-01</totfact>
</mgrwt>
</event>
<event>
 4    1  0.2514307E-008  0.1012847E+04  0.7818608E-02  0.9364940E-01
          1   -1    0    0  501    0  0.00000000000E+00  0.00000000000E+00  0.12520843283E+04  0.12520843283E+04  0.50400000000E-02 0. -1.
         -1   -1    0    0    0  501 -0.00000000000E+00 -0.00000000000E+00 -0.14085754829E+04  0.14085754829E+04  0.50400000000E-02 0.  1.
    8880023    1    1    2    0    0  0.52330735269E+03  0.56408996687E+03 -0.10586408247E+04  0.14651207043E+04  0.65864270000E+03 0.  1.
    8880022    1    1    2    0    0 -0.52330735269E+03 -0.56408996687E+03  0.90214967006E+03  0.11955391070E+04  0.15294330000E+03 0.  0.
<mgrwt>
<rscale>  0 0.95018015E+03</rscale>
<asrwt>0</asrwt>
<pdfrwt beam="1">  1        1 0.19262836E+00 0.10128466E+04</pdfrwt>
<pdfrwt beam="2">  1       -1 0.21670392E+00 0.10128466E+04</pdfrwt>
<totfact> 0.11392805E+00</totfact>
</mgrwt>
</event>
<event>
 4    1  0.2514307E-008  0.1160877E+04  0.7818608E-02  0.9196123E-01
          1   -1    0    0  501    0  0.00000000000E+00  0.00000000000E+00  0.22719467636E+04  0.22719467636E+04  0.50400000000E-02 0. -1.
         -1   -1    0    0    0  501 -0.00000000000E+00 -0.00000000000E+00 -0.14517669338E+04  0.14517669338E+04  0.50400000000E-02 0.  1.
    8880023    1    1    2    0    0 -0.48210606056E+02  0.95472588585E+03 -0.10835358920E+04  0.15879817427E+04  0.65864270000E+03 0.  0.
    8880022    1    1    2    0    0  0.48210606056E+02 -0.95472588585E+03  0.19037157218E+04  0.21357319547E+04  0.15294330000E+03 0.  0.
<mgrwt>
<rscale>  0 0.11093530E+04</rscale>
<asrwt>0</asrwt>
<pdfrwt beam="1">  1        1 0.34953027E+00 0.11608772E+04</pdfrwt>
<pdfrwt beam="2">  1       -1 0.22334876E+00 0.11608772E+04</pdfrwt>
<totfact> 0.20129507E-01</totfact>
</mgrwt>
</event>
<event>
 4    1  0.2514307E-008  0.8297343E+03  0.7818608E-02  0.9649850E-01
         -1   -1    0    0    0  501 -0.00000000000E+00  0.00000000000E+00  0.48718031914E+03  0.48718031917E+03  0.50400000000E-02 0.  1.
          1   -1    0    0  501    0  0.00000000000E+00 -0.00000000000E+00 -0.22644517709E+04  0.22644517709E+04  0.50400000000E-02 0. -1.
    8880023    1    1    2    0    0 -0.48087738373E+03 -0.15298927725E+03  0.67984813104E+02  0.83251481561E+03  0.65864270000E+03 0.  0.
    8880022    1    1    2    0    0  0.48087738373E+03  0.15298927725E+03 -0.18452562648E+04  0.19191172744E+04  0.15294330000E+03 0.  0.
<mgrwt>
<rscale>  0 0.74082865E+03</rscale>
<asrwt>0</asrwt>
<pdfrwt beam="1">  1        1 0.34837719E+00 0.82973428E+03</pdfrwt>
<pdfrwt beam="2">  1       -1 0.74950820E-01 0.82973428E+03</pdfrwt>
<totfact> 0.36704782E+00</totfact>
</mgrwt>
</event>
<event>
 4    1  0.2514307E-008  0.1721777E+04  0.7818608E-02  0.8767087E-01
          1   -1    0    0  501    0  0.00000000000E+00  0.00000000000E+00  0.14397034642E+04  0.14397034642E+04  0.50400000000E-02 0. -1.
         -1   -1    0    0    0  501 -0.00000000000E+00 -0.00000000000E+00 -0.29775359447E+04  0.29775359447E+04  0.50400000000E-02 0.  1.
    8880023    1    1    2    0    0  0.12321140292E+04 -0.10062809550E+04 -0.21067611822E+04  0.27208379641E+04  0.65864270000E+03 0.  0.
    8880022    1    1    2    0    0 -0.12321140292E+04  0.10062809550E+04  0.56892870177E+03  0.16964014448E+04  0.15294330000E+03 0.  0.
<mgrwt>
<rscale>  0 0.16900027E+04</rscale>
<asrwt>0</asrwt>
<pdfrwt beam="1">  1        1 0.22149284E+00 0.17217771E+04</pdfrwt>
<pdfrwt beam="2">  1       -1 0.45808245E+00 0.17217771E+04</pdfrwt>
<totfact> 0.18847871E-02</totfact>
</mgrwt>
</event>
<event>
 4    1  0.2514307E-008  0.7728201E+03  0.7818608E-02  0.9772981E-01
         -1   -1    0    0    0  501 -0.00000000000E+00  0.00000000000E+00  0.39522935395E+04  0.39522935395E+04  0.50400000000E-02 0.  1.
          1   -1    0    0  501    0  0.00000000000E+00 -0.00000000000E+00 -0.41093228940E+03  0.41093228943E+03  0.50400000000E-02 0. -1.
    8880023    1    1    2    0    0 -0.32978487270E+03  0.23384303170E+03  0.37876864619E+04  0.38657236794E+04  0.65864270000E+03 0.  1.
    8880022    1    1    2    0    0  0.32978487270E+03 -0.23384303170E+03 -0.24632521183E+03  0.49750214948E+03  0.15294330000E+03 0.  0.
<mgrwt>
<rscale>  0 0.66832895E+03</rscale>
<asrwt>0</asrwt>
<pdfrwt beam="1">  1        1 0.63220350E-01 0.77282005E+03</pdfrwt>
<pdfrwt beam="2">  1       -1 0.60804518E+00 0.77282005E+03</pdfrwt>
<totfact> 0.24289638E-02</totfact>
</mgrwt>
</event>
<event>
 4    1  0.2514307E-008  0.6700961E+03  0.7818608E-02  0.1015594E+00
         -1   -1    0    0    0  501 -0.00000000000E+00  0.00000000000E+00  0.30903046365E+03  0.30903046369E+03  0.50400000000E-02 0.  1.
          1   -1    0    0  501    0  0.00000000000E+00 -0.00000000000E+00 -0.82753797031E+03  0.82753797032E+03  0.50400000000E-02 0. -1.
    8880023    1    1    2    0    0 -0.44774666567E+02 -0.11495154510E+03 -0.10436421098E+03  0.67817455222E+03  0.65864270000E+03 0.  1.
    8880022    1    1    2    0    0  0.44774666567E+02  0.11495154510E+03 -0.41414329568E+03  0.45839388178E+03  0.15294330000E+03 0.  0.
<mgrwt>
<rscale>  0 0.49310648E+03</rscale>
<asrwt>0</asrwt>
<pdfrwt beam="1">  1        1 0.12731353E+00 0.67009614E+03</pdfrwt>
<pdfrwt beam="2">  1       -1 0.47543149E-01 0.67009614E+03</pdfrwt>
<totfact> 0.94814420E+01</totfact>
</mgrwt>
</event>
<event>
 4    1  0.2514307E-008  0.8343843E+03  0.7818608E-02  0.9640861E-01
         -1   -1    0    0    0  501 -0.00000000000E+00  0.00000000000E+00  0.25843297637E+04  0.25843297637E+04  0.50400000000E-02 0.  1.
          1   -1    0    0  501    0  0.00000000000E+00 -0.00000000000E+00 -0.18219961962E+03  0.18219961969E+03  0.50400000000E-02 0. -1.
    8880023    1    1    2    0    0 -0.33252024616E+03  0.38963740909E+03  0.15580702804E+04  0.17674219162E+04  0.65864270000E+03 0. -1.
    8880022    1    1    2    0    0  0.33252024616E+03 -0.38963740909E+03  0.84405986366E+03  0.99910746725E+03  0.15294330000E+03 0.  1.
<mgrwt>
<rscale>  0 0.74649746E+03</rscale>
<asrwt>0</asrwt>
<pdfrwt beam="1">  1        1 0.28030710E-01 0.83438434E+03</pdfrwt>
<pdfrwt beam="2">  1       -1 0.39758920E+00 0.83438434E+03</pdfrwt>
<totfact> 0.13105531E+00</totfact>
</mgrwt>
</event>
<event>
 4    1  0.2514307E-008  0.8826574E+03  0.7818608E-02  0.9554466E-01
          1   -1    0    0  501    0  0.00000000000E+00  0.00000000000E+00  0.18541036853E+04  0.18541036853E+04  0.50400000000E-02 0. -1.
         -1   -1    0    0    0  501 -0.00000000000E+00 -0.00000000000E+00 -0.48774674194E+03  0.48774674197E+03  0.50400000000E-02 0.  1.
    8880023    1    1    2    0    0  0.45812106394E+03 -0.36796608483E+03  0.40510882697E+02  0.88358660395E+03  0.65864270000E+03 0.  1.
    8880022    1    1    2    0    0 -0.45812106394E+03  0.36796608483E+03  0.13258460606E+04  0.14582638233E+04  0.15294330000E+03 0.  0.
<mgrwt>
<rscale>  0 0.80384667E+03</rscale>
<asrwt>0</asrwt>
<pdfrwt beam="1">  1        1 0.28524672E+00 0.88265744E+03</pdfrwt>
<pdfrwt beam="2">  1       -1 0.75037960E-01 0.88265744E+03</pdfrwt>
<totfact> 0.68524216E+00</totfact>
</mgrwt>
</event>
<event>
 4    1  0.2514307E-008  0.8202859E+03  0.7818608E-02  0.9668537E-01
         -1   -1    0    0    0  501 -0.00000000000E+00  0.00000000000E+00  0.92634272515E+03  0.92634272516E+03  0.50400000000E-02 0.  1.
          1   -1    0    0  501    0  0.00000000000E+00 -0.00000000000E+00 -0.56296872070E+03  0.56296872072E+03  0.50400000000E-02 0. -1.
    8880023    1    1    2    0    0  0.42227569900E+03  0.24645882040E+03 -0.63129336519E+02  0.82271151415E+03  0.65864270000E+03 0.  0.
    8880022    1    1    2    0    0 -0.42227569900E+03 -0.24645882040E+03  0.42650334096E+03  0.66659993173E+03  0.15294330000E+03 0.  0.
<mgrwt>
<rscale>  0 0.72921371E+03</rscale>
<asrwt>0</asrwt>
<pdfrwt beam="1">  1        1 0.86610574E-01 0.82028588E+03</pdfrwt>
<pdfrwt beam="2">  1       -1 0.14251426E+00 0.82028588E+03</pdfrwt>
<totfact> 0.15308705E+01</totfact>
</mgrwt>
</event>
<event>
 4    1  0.2514307E-008  0.1214020E+04  0.7818608E-02  0.9143613E-01
          1   -1    0    0  501    0  0.00000000000E+00  0.00000000000E+00  0.21811748538E+04  0.21811748538E+04  0.50400000000E-02 0. -1.
         -1   -1    0    0    0  501 -0.00000000000E+00 -0.00000000000E+00 -0.10660222049E+04  0.10660222049E+04  0.50400000000E-02 0.  1.
    8880023    1    1    2    0    0 -0.14467853901E+02  0.10197185972E+04  0.16789690093E+04  0.20719031050E+04  0.65864270000E+03 0.  0.
    8880022    1    1    2    0    0  0.14467853901E+02 -0.10197185972E+04 -0.56381636042E+03  0.11752939537E+04  0.15294330000E+03 0.  0.
<mgrwt>
<rscale>  0 0.11654884E+04</rscale>
<asrwt>0</asrwt>
<pdfrwt beam="1">  1        1 0.33556536E+00 0.12140204E+04</pdfrwt>
<pdfrwt beam="2">  1       -1 0.16400342E+00 0.12140204E+04</pdfrwt>
<totfact> 0.60050950E-01</totfact>
</mgrwt>
</event>
<event>
 4    1  0.2514307E-008  0.8818040E+03  0.7818608E-02  0.9555897E-01
         -1   -1    0    0    0  501 -0.00000000000E+00  0.00000000000E+00  0.11002622807E+04  0.11002622807E+04  0.50400000000E-02 0.  1.
          1   -1    0    0  501    0  0.00000000000E+00 -0.00000000000E+00 -0.87942123048E+03  0.87942123049E+03  0.50400000000E-02 0. -1.
    8880023    1    1    2    0    0 -0.37770436510E+03 -0.44845012637E+03  0.76339605020E+03  0.11663412189E+04  0.65864270000E+03 0.  1.
    8880022    1    1    2    0    0  0.37770436510E+03  0.44845012637E+03 -0.54255500002E+03  0.81334229223E+03  0.15294330000E+03 0.  0.
<mgrwt>
<rscale>  0 0.80285282E+03</rscale>
<asrwt>0</asrwt>
<pdfrwt beam="1">  1        1 0.13529557E+00 0.88180401E+03</pdfrwt>
<pdfrwt beam="2">  1       -1 0.16927112E+00 0.88180401E+03</pdfrwt>
<totfact> 0.47950861E+00</totfact>
</mgrwt>
</event>
<event>
 4    1  0.2514307E-008  0.9759848E+03  0.7818608E-02  0.9413674E-01
          1   -1    0    0  501    0  0.00000000000E+00  0.00000000000E+00  0.12012399079E+04  0.12012399079E+04  0.50400000000E-02 0. -1.
         -1   -1    0    0    0  501 -0.00000000000E+00 -0.00000000000E+00 -0.12877476798E+04  0.12877476798E+04  0.50400000000E-02 0.  1.
    8880023    1    1    2    0    0 -0.59157316553E+03  0.41082522349E+03 -0.94464265875E+03  0.13582695364E+04  0.65864270000E+03 0.  0.
    8880022    1    1    2    0    0  0.59157316553E+03 -0.41082522349E+03  0.85813488690E+03  0.11307180513E+04  0.15294330000E+03 0.  0.
<mgrwt>
<rscale>  0 0.90958861E+03</rscale>
<asrwt>0</asrwt>
<pdfrwt beam="1">  1        1 0.18480614E+00 0.97598483E+03</pdfrwt>
<pdfrwt beam="2">  1       -1 0.19811503E+00 0.97598483E+03</pdfrwt>
<totfact> 0.16676881E+00</totfact>
</mgrwt>
</event>
<event>
 4    1  0.2514307E-008  0.8811682E+03  0.7818608E-02  0.9556965E-01
         -1   -1    0    0    0  501 -0.00000000000E+00  0.00000000000E+00  0.42923387311E+03  0.42923387314E+03  0.50400000000E-02 0.  1.
          1   -1    0    0  501    0  0.00000000000E+00 -0.00000000000E+00 -0.18979740299E+04  0.18979740299E+04  0.50400000000E-02 0. -1.
    8880023    1    1    2    0    0 -0.58127324484E+03  0.69054716749E+02 -0.17413742152E+03  0.89820999043E+03  0.65864270000E+03 0.  1.
    8880022    1    1    2    0    0  0.58127324484E+03 -0.69054716749E+02 -0.12946027352E+04  0.14289979126E+04  0.15294330000E+03 0.  0.
<mgrwt>
<rscale>  0 0.80211196E+03</rscale>
<asrwt>0</asrwt>
<pdfrwt beam="1">  1        1 0.29199600E+00 0.88116817E+03</pdfrwt>
<pdfrwt beam="2">  1       -1 0.66035982E-01 0.88116817E+03</pdfrwt>
<totfact> 0.83286850E+00</totfact>
</mgrwt>
</event>
<event>
 4    1  0.2514307E-008  0.7011674E+03  0.7818608E-02  0.9992392E-01
         -1   -1    0    0    0  501 -0.00000000000E+00  0.00000000000E+00  0.23971174087E+03  0.23971174092E+03  0.50400000000E-02 0.  1.
          1   -1    0    0  501    0  0.00000000000E+00 -0.00000000000E+00 -0.15635819765E+04  0.15635819766E+04  0.50400000000E-02 0. -1.
    8880023    1    1    2    0    0 -0.39942882888E+02 -0.23712895645E+03 -0.34052107391E+03  0.77948084256E+03  0.65864270000E+03 0. -1.
    8880022    1    1    2    0    0  0.39942882888E+02  0.23712895645E+03 -0.98334916176E+03  0.10238128749E+04  0.15294330000E+03 0.  0.
<mgrwt>
<rscale>  0 0.55985083E+03</rscale>
<asrwt>0</asrwt>
<pdfrwt beam="1">  1        1 0.24055107E+00 0.70116744E+03</pdfrwt>
<pdfrwt beam="2">  1       -1 0.36878730E-01 0.70116744E+03</pdfrwt>
<totfact> 0.43239290E+01</totfact>
</mgrwt>
</event>
<event>
 4    1  0.2514307E-008  0.8482826E+03  0.7818608E-02  0.9614756E-01
          1   -1    0    0  501    0  0.00000000000E+00  0.00000000000E+00  0.17608437639E+04  0.17608437639E+04  0.50400000000E-02 0. -1.
         -1   -1    0    0    0  501 -0.00000000000E+00 -0.00000000000E+00 -0.39902418207E+03  0.39902418210E+03  0.50400000000E-02 0.  1.
    8880023    1    1    2    0    0  0.35367920816E+03  0.40085425479E+03  0.19953999326E+03  0.87143532809E+03  0.65864270000E+03 0.  0.
    8880022    1    1    2    0    0 -0.35367920816E+03 -0.40085425479E+03  0.11622795885E+04  0.12884326179E+04  0.15294330000E+03 0.  0.
<mgrwt>
<rscale>  0 0.76327170E+03</rscale>
<asrwt>0</asrwt>
<pdfrwt beam="1">  1        1 0.27089904E+00 0.84828257E+03</pdfrwt>
<pdfrwt beam="2">  1       -1 0.61388335E-01 0.84828257E+03</pdfrwt>
<totfact> 0.11971938E+01</totfact>
</mgrwt>
</event>
<event>
 4    1  0.2514307E-008  0.7994692E+03  0.7818608E-02  0.9711945E-01
         -1   -1    0    0    0  501 -0.00000000000E+00  0.00000000000E+00  0.69170570817E+03  0.69170570819E+03  0.50400000000E-02 0.  1.
          1   -1    0    0  501    0  0.00000000000E+00 -0.00000000000E+00 -0.13260530497E+04  0.13260530497E+04  0.50400000000E-02 0. -1.
    8880023    1    1    2    0    0 -0.19253641177E+03 -0.41020783744E+03  0.38831836029E+03  0.88878686700E+03  0.65864270000E+03 0.  0.
    8880022    1    1    2    0    0  0.19253641177E+03  0.41020783744E+03 -0.10226657018E+04  0.11289718909E+04  0.15294330000E+03 0.  0.
<mgrwt>
<rscale>  0 0.70310024E+03</rscale>
<asrwt>0</asrwt>
<pdfrwt beam="1">  1        1 0.20400816E+00 0.79946917E+03</pdfrwt>
<pdfrwt beam="2">  1       -1 0.10641626E+00 0.79946917E+03</pdfrwt>
<totfact> 0.73659315E+00</totfact>
</mgrwt>
</event>
<event>
 4    1  0.2514307E-008  0.1215681E+04  0.7818608E-02  0.9142028E-01
         -1   -1    0    0    0  501 -0.00000000000E+00  0.00000000000E+00  0.63894243809E+03  0.63894243811E+03  0.50400000000E-02 0.  1.
          1   -1    0    0  501    0  0.00000000000E+00 -0.00000000000E+00 -0.25614219521E+04  0.25614219521E+04  0.50400000000E-02 0. -1.
    8880023    1    1    2    0    0 -0.96647301082E+03  0.33166159158E+03 -0.17827267319E+04  0.21577753124E+04  0.65864270000E+03 0.  0.
    8880022    1    1    2    0    0  0.96647301082E+03 -0.33166159158E+03 -0.13975278207E+03  0.10425890778E+04  0.15294330000E+03 0.  0.
<mgrwt>
<rscale>  0 0.11672360E+04</rscale>
<asrwt>0</asrwt>
<pdfrwt beam="1">  1        1 0.39406491E+00 0.12156808E+04</pdfrwt>
<pdfrwt beam="2">  1       -1 0.98298838E-01 0.12156808E+04</pdfrwt>
<totfact> 0.12034790E+00</totfact>
</mgrwt>
</event>
<event>
 4    1  0.2514307E-008  0.1117139E+04  0.7818608E-02  0.9242210E-01
         -1   -1    0    0    0  501 -0.00000000000E+00  0.00000000000E+00  0.23599053074E+04  0.23599053074E+04  0.50400000000E-02 0.  1.
          1   -1    0    0  501    0  0.00000000000E+00 -0.00000000000E+00 -0.10950115026E+04  0.10950115026E+04  0.50400000000E-02 0. -1.
    8880023    1    1    2    0    0  0.64616951011E+03  0.62980521349E+03  0.19934539041E+04  0.22851385772E+04  0.65864270000E+03 0.  0.
    8880022    1    1    2    0    0 -0.64616951011E+03 -0.62980521349E+03 -0.72856009932E+03  0.11697782329E+04  0.15294330000E+03 0.  0.
<mgrwt>
<rscale>  0 0.10628178E+04</rscale>
<asrwt>0</asrwt>
<pdfrwt beam="1">  1        1 0.16846331E+00 0.11171391E+04</pdfrwt>
<pdfrwt beam="2">  1       -1 0.36306235E+00 0.11171391E+04</pdfrwt>
<totfact> 0.16302098E-01</totfact>
</mgrwt>
</event>
<event>
 4    1  0.2514307E-008  0.6870522E+03  0.7818608E-02  0.1005586E+00
         -1   -1    0    0    0  501 -0.00000000000E+00  0.00000000000E+00  0.15877289908E+03  0.15877289916E+03  0.50400000000E-02 0.  1.
          1   -1    0    0  501    0  0.00000000000E+00 -0.00000000000E+00 -0.14294086881E+04  0.14294086881E+04  0.50400000000E-02 0. -1.
    8880023    1    1    2    0    0  0.13261124921E+03  0.14368294297E+03 -0.78808019670E+03  0.10455195523E+04  0.65864270000E+03 0.  0.
    8880022    1    1    2    0    0 -0.13261124921E+03 -0.14368294297E+03 -0.48255559235E+03  0.54266203501E+03  0.15294330000E+03 0. -1.
<mgrwt>
<rscale>  0 0.53267148E+03</rscale>
<asrwt>0</asrwt>
<pdfrwt beam="1">  1        1 0.21990902E+00 0.68705221E+03</pdfrwt>
<pdfrwt beam="2">  1       -1 0.24426601E-01 0.68705221E+03</pdfrwt>
<totfact> 0.10966466E+02</totfact>
</mgrwt>
</event>
<event>
 4    1  0.2514307E-008  0.6604682E+03  0.7818608E-02  0.1023682E+00
          1   -1    0    0  501    0  0.00000000000E+00  0.00000000000E+00  0.12293239725E+04  0.12293239725E+04  0.50400000000E-02 0. -1.
         -1   -1    0    0    0  501 -0.00000000000E+00 -0.00000000000E+00 -0.25854270214E+03  0.25854270219E+03  0.50400000000E-02 0.  1.
    8880023    1    1    2    0    0  0.11100115619E+01 -0.49059255971E+02  0.18507302368E+03  0.68590835618E+03  0.65864270000E+03 0.  1.
    8880022    1    1    2    0    0 -0.11100115619E+01  0.49059255971E+02  0.78570824664E+03  0.80195831848E+03  0.15294330000E+03 0.  0.
<mgrwt>
<rscale>  0 0.46381070E+03</rscale>
<asrwt>0</asrwt>
<pdfrwt beam="1">  1        1 0.18912677E+00 0.66046820E+03</pdfrwt>
<pdfrwt beam="2">  1       -1 0.39775800E-01 0.66046820E+03</pdfrwt>
<totfact> 0.64689007E+01</totfact>
</mgrwt>
</event>
<event>
 4    1  0.2514307E-008  0.1091416E+04  0.7818608E-02  0.9270674E-01
          1   -1    0    0  501    0  0.00000000000E+00  0.00000000000E+00  0.17901764771E+04  0.17901764771E+04  0.50400000000E-02 0. -1.
         -1   -1    0    0    0  501 -0.00000000000E+00 -0.00000000000E+00 -0.61659789845E+03  0.61659789847E+03  0.50400000000E-02 0.  1.
    8880023    1    1    2    0    0  0.57999602588E+03 -0.64883268636E+03  0.23254318537E+03  0.11159147746E+04  0.65864270000E+03 0.  0.
    8880022    1    1    2    0    0 -0.57999602588E+03  0.64883268636E+03  0.94103539325E+03  0.12908596009E+04  0.15294330000E+03 0.  0.
<mgrwt>
<rscale>  0 0.10352811E+04</rscale>
<asrwt>0</asrwt>
<pdfrwt beam="1">  1        1 0.27541176E+00 0.10914163E+04</pdfrwt>
<pdfrwt beam="2">  1       -1 0.94861216E-01 0.10914163E+04</pdfrwt>
<totfact> 0.44332036E+00</totfact>
</mgrwt>
</event>
<event>
 4    1  0.2514307E-008  0.1217123E+04  0.7818608E-02  0.9140655E-01
          1   -1    0    0  501    0  0.00000000000E+00  0.00000000000E+00  0.32736194697E+04  0.32736194697E+04  0.50400000000E-02 0. -1.
         -1   -1    0    0    0  501 -0.00000000000E+00 -0.00000000000E+00 -0.78361350101E+03  0.78361350102E+03  0.50400000000E-02 0.  1.
    8880023    1    1    2    0    0  0.33913270907E+02 -0.10229506190E+04 -0.14553597890E+03  0.12257932152E+04  0.65864270000E+03 0.  1.
    8880022    1    1    2    0    0 -0.33913270907E+02  0.10229506190E+04  0.26355419476E+04  0.28314397556E+04  0.15294330000E+03 0.  0.
<mgrwt>
<rscale>  0 0.11687537E+04</rscale>
<asrwt>0</asrwt>
<pdfrwt beam="1">  1        1 0.50363376E+00 0.12171230E+04</pdfrwt>
<pdfrwt beam="2">  1       -1 0.12055592E+00 0.12171230E+04</pdfrwt>
<totfact> 0.22801379E-01</totfact>
</mgrwt>
</event>
<event>
 4    1  0.2514307E-008  0.1041171E+04  0.7818608E-02  0.9329571E-01
         -1   -1    0    0    0  501 -0.00000000000E+00  0.00000000000E+00  0.13924933009E+04  0.13924933009E+04  0.50400000000E-02 0.  1.
          1   -1    0    0  501    0  0.00000000000E+00 -0.00000000000E+00 -0.14571178189E+04  0.14571178189E+04  0.50400000000E-02 0. -1.
    8880023    1    1    2    0    0 -0.74743987073E+03 -0.30258833318E+03  0.10412202121E+04  0.14724726809E+04  0.65864270000E+03 0.  1.
    8880022    1    1    2    0    0  0.74743987073E+03  0.30258833318E+03 -0.11058447301E+04  0.13771384389E+04  0.15294330000E+03 0.  0.
<mgrwt>
<rscale>  0 0.98105446E+03</rscale>
<asrwt>0</asrwt>
<pdfrwt beam="1">  1        1 0.22417197E+00 0.10411706E+04</pdfrwt>
<pdfrwt beam="2">  1       -1 0.21422974E+00 0.10411706E+04</pdfrwt>
<totfact> 0.84446594E-01</totfact>
</mgrwt>
</event>
<event>
 4    1  0.2514307E-008  0.9459841E+03  0.7818608E-02  0.9455916E-01
         -1   -1    0    0    0  501 -0.00000000000E+00  0.00000000000E+00  0.82454085355E+03  0.82454085356E+03  0.50400000000E-02 0.  1.
          1   -1    0    0  501    0  0.00000000000E+00 -0.00000000000E+00 -0.24954884605E+04  0.24954884605E+04  0.50400000000E-02 0. -1.
    8880023    1    1    2    0    0  0.67147112932E+03 -0.10100600884E+03  0.47891184575E+03  0.10603030008E+04  0.65864270000E+03 0.  1.
    8880022    1    1    2    0    0 -0.67147112932E+03  0.10100600884E+03 -0.21498594527E+04  0.22597263133E+04  0.15294330000E+03 0.  0.
<mgrwt>
<rscale>  0 0.87613481E+03</rscale>
<asrwt>0</asrwt>
<pdfrwt beam="1">  1        1 0.38392130E+00 0.94598409E+03</pdfrwt>
<pdfrwt beam="2">  1       -1 0.12685244E+00 0.94598409E+03</pdfrwt>
<totfact> 0.75656826E-01</totfact>
</mgrwt>
</event>
<event>
 4    1  0.2514307E-008  0.8960010E+03  0.7818608E-02  0.9532482E-01
         -1   -1    0    0    0  501 -0.00000000000E+00  0.00000000000E+00  0.49559956693E+03  0.49559956695E+03  0.50400000000E-02 0.  1.
          1   -1    0    0  501    0  0.00000000000E+00 -0.00000000000E+00 -0.16552675771E+04  0.16552675771E+04  0.50400000000E-02 0. -1.
    8880023    1    1    2    0    0 -0.12790191274E+03 -0.59384236991E+03 -0.76056901535E+02  0.89922328602E+03  0.65864270000E+03 0.  1.
    8880022    1    1    2    0    0  0.12790191274E+03  0.59384236991E+03 -0.10836111086E+04  0.12516438580E+04  0.15294330000E+03 0.  0.
<mgrwt>
<rscale>  0 0.81930842E+03</rscale>
<asrwt>0</asrwt>
<pdfrwt beam="1">  1        1 0.25465655E+00 0.89600104E+03</pdfrwt>
<pdfrwt beam="2">  1       -1 0.76246088E-01 0.89600104E+03</pdfrwt>
<totfact> 0.90087494E+00</totfact>
</mgrwt>
</event>
<event>
 4    1  0.2514307E-008  0.8128784E+03  0.7818608E-02  0.9683612E-01
         -1   -1    0    0    0  501 -0.00000000000E+00  0.00000000000E+00  0.62492096735E+03  0.62492096737E+03  0.50400000000E-02 0.  1.
          1   -1    0    0  501    0  0.00000000000E+00 -0.00000000000E+00 -0.77850030824E+03  0.77850030825E+03  0.50400000000E-02 0. -1.
    8880023    1    1    2    0    0  0.23473651705E+02 -0.47582576124E+03  0.13770106584E+03  0.82445919073E+03  0.65864270000E+03 0.  0.
    8880022    1    1    2    0    0 -0.23473651705E+02  0.47582576124E+03 -0.29128040673E+03  0.57896208489E+03  0.15294330000E+03 0.  0.
<mgrwt>
<rscale>  0 0.72000957E+03</rscale>
<asrwt>0</asrwt>
<pdfrwt beam="1">  1        1 0.11976928E+00 0.81287845E+03</pdfrwt>
<pdfrwt beam="2">  1       -1 0.96141687E-01 0.81287845E+03</pdfrwt>
<totfact> 0.24542864E+01</totfact>
</mgrwt>
</event>
<event>
 4    1  0.2514307E-008  0.1717113E+04  0.7818608E-02  0.8769828E-01
         -1   -1    0    0    0  501 -0.00000000000E+00  0.00000000000E+00  0.20081697309E+04  0.20081697309E+04  0.50400000000E-02 0.  1.
          1   -1    0    0  501    0  0.00000000000E+00 -0.00000000000E+00 -0.19843261740E+04  0.19843261740E+04  0.50400000000E-02 0. -1.
    8880023    1    1    2    0    0 -0.12740850009E+04  0.94412544034E+03  0.11277033982E+04  0.20543102485E+04  0.65864270000E+03 0.  1.
    8880022    1    1    2    0    0  0.12740850009E+04 -0.94412544034E+03 -0.11038598413E+04  0.19381856565E+04  0.15294330000E+03 0.  0.
<mgrwt>
<rscale>  0 0.16852400E+04</rscale>
<asrwt>0</asrwt>
<pdfrwt beam="1">  1        1 0.30528095E+00 0.17171126E+04</pdfrwt>
<pdfrwt beam="2">  1       -1 0.30894919E+00 0.17171126E+04</pdfrwt>
<totfact> 0.81057756E-02</totfact>
</mgrwt>
</event>
<event>
 4    1  0.2514307E-008  0.1807886E+04  0.7818608E-02  0.8718187E-01
          1   -1    0    0  501    0  0.00000000000E+00  0.00000000000E+00  0.15050428352E+04  0.15050428352E+04  0.50400000000E-02 0. -1.
         -1   -1    0    0    0  501 -0.00000000000E+00 -0.00000000000E+00 -0.20454342640E+04  0.20454342640E+04  0.50400000000E-02 0.  1.
    8880023    1    1    2    0    0  0.16596331720E+04  0.28330164728E+03 -0.14105254482E+03  0.18133803009E+04  0.65864270000E+03 0.  0.
    8880022    1    1    2    0    0 -0.16596331720E+04 -0.28330164728E+03 -0.39933888400E+03  0.17370967982E+04  0.15294330000E+03 0.  0.
<mgrwt>
<rscale>  0 0.17778157E+04</rscale>
<asrwt>0</asrwt>
<pdfrwt beam="1">  1        1 0.23154505E+00 0.18078861E+04</pdfrwt>
<pdfrwt beam="2">  1       -1 0.31468219E+00 0.18078861E+04</pdfrwt>
<totfact> 0.15734211E-01</totfact>
</mgrwt>
</event>
<event>
 4    1  0.2514307E-008  0.7226609E+03  0.7818608E-02  0.9913683E-01
         -1   -1    0    0    0  501 -0.00000000000E+00  0.00000000000E+00  0.42262809802E+03  0.42262809805E+03  0.50400000000E-02 0.  1.
          1   -1    0    0  501    0  0.00000000000E+00 -0.00000000000E+00 -0.10222591221E+04  0.10222591221E+04  0.50400000000E-02 0. -1.
    8880023    1    1    2    0    0  0.28502731628E+03 -0.84782409258E+02 -0.78135023231E+03  0.10643058864E+04  0.65864270000E+03 0. -1.
    8880022    1    1    2    0    0 -0.28502731628E+03  0.84782409258E+02  0.18171920826E+03  0.38058133376E+03  0.15294330000E+03 0.  0.
<mgrwt>
<rscale>  0 0.59602710E+03</rscale>
<asrwt>0</asrwt>
<pdfrwt beam="1">  1        1 0.15727063E+00 0.72266094E+03</pdfrwt>
<pdfrwt beam="2">  1       -1 0.65019708E-01 0.72266094E+03</pdfrwt>
<totfact> 0.35887963E+01</totfact>
</mgrwt>
</event>
<event>
 4    1  0.2514307E-008  0.9143747E+03  0.7818608E-02  0.9503339E-01
         -1   -1    0    0    0  501 -0.00000000000E+00  0.00000000000E+00  0.41529306168E+03  0.41529306171E+03  0.50400000000E-02 0.  1.
          1   -1    0    0  501    0  0.00000000000E+00 -0.00000000000E+00 -0.22058152794E+04  0.22058152794E+04  0.50400000000E-02 0. -1.
    8880023    1    1    2    0    0  0.49573263578E+03  0.39562619230E+03 -0.24971031732E+03  0.94785883920E+03  0.65864270000E+03 0.  1.
    8880022    1    1    2    0    0 -0.49573263578E+03 -0.39562619230E+03 -0.15408119004E+04  0.16732495019E+04  0.15294330000E+03 0.  0.
<mgrwt>
<rscale>  0 0.84038123E+03</rscale>
<asrwt>0</asrwt>
<pdfrwt beam="1">  1        1 0.33935619E+00 0.91437472E+03</pdfrwt>
<pdfrwt beam="2">  1       -1 0.63891242E-01 0.91437472E+03</pdfrwt>
<totfact> 0.55024724E+00</totfact>
</mgrwt>
</event>
<event>
 4    1  0.2514307E-008  0.1133335E+04  0.7818608E-02  0.9224819E-01
          1   -1    0    0  501    0  0.00000000000E+00  0.00000000000E+00  0.20776099429E+04  0.20776099429E+04  0.50400000000E-02 0. -1.
         -1   -1    0    0    0  501 -0.00000000000E+00 -0.00000000000E+00 -0.58672872879E+03  0.58672872882E+03  0.50400000000E-02 0.  1.
    8880023    1    1    2    0    0  0.92062291636E+03 -0.55602933164E+02  0.34338990373E+03  0.11842149604E+04  0.65864270000E+03 0.  0.
    8880022    1    1    2    0    0 -0.92062291636E+03  0.55602933164E+02  0.11474913104E+04  0.14801237113E+04  0.15294330000E+03 0.  0.
<mgrwt>
<rscale>  0 0.10800890E+04</rscale>
<asrwt>0</asrwt>
<pdfrwt beam="1">  1        1 0.31963230E+00 0.11333351E+04</pdfrwt>
<pdfrwt beam="2">  1       -1 0.90265958E-01 0.11333351E+04</pdfrwt>
<totfact> 0.31523200E+00</totfact>
</mgrwt>
</event>
<event>
 4    1  0.2514307E-008  0.7060575E+03  0.7818608E-02  0.9972943E-01
          1   -1    0    0  501    0  0.00000000000E+00  0.00000000000E+00  0.12814376410E+04  0.12814376410E+04  0.50400000000E-02 0. -1.
         -1   -1    0    0    0  501 -0.00000000000E+00 -0.00000000000E+00 -0.42715906209E+03  0.42715906212E+03  0.50400000000E-02 0.  1.
    8880023    1    1    2    0    0 -0.23852799247E+03  0.88381676071E+02 -0.96448485645E+02  0.71261451045E+03  0.65864270000E+03 0.  1.
    8880022    1    1    2    0    0  0.23852799247E+03 -0.88381676071E+02  0.95072706456E+03  0.99598219270E+03  0.15294330000E+03 0.  0.
<mgrwt>
<rscale>  0 0.56852706E+03</rscale>
<asrwt>0</asrwt>
<pdfrwt beam="1">  1        1 0.19714425E+00 0.70605746E+03</pdfrwt>
<pdfrwt beam="2">  1       -1 0.65716779E-01 0.70605746E+03</pdfrwt>
<totfact> 0.22704761E+01</totfact>
</mgrwt>
</event>
<event>
 4    1  0.2514307E-008  0.1334453E+04  0.7818608E-02  0.9036365E-01
         -1   -1    0    0    0  501 -0.00000000000E+00  0.00000000000E+00  0.94613720750E+03  0.94613720752E+03  0.50400000000E-02 0.  1.
          1   -1    0    0  501    0  0.00000000000E+00 -0.00000000000E+00 -0.17931297138E+04  0.17931297138E+04  0.50400000000E-02 0. -1.
    8880023    1    1    2    0    0 -0.71810950245E+01  0.11605610576E+04 -0.74083016955E+02  0.13365074023E+04  0.65864270000E+03 0.  1.
    8880022    1    1    2    0    0  0.71810950245E+01 -0.11605610576E+04 -0.77290948937E+03  0.14027595191E+04  0.15294330000E+03 0.  0.
<mgrwt>
<rscale>  0 0.12914605E+04</rscale>
<asrwt>0</asrwt>
<pdfrwt beam="1">  1        1 0.27586611E+00 0.13344526E+04</pdfrwt>
<pdfrwt beam="2">  1       -1 0.14555957E+00 0.13344526E+04</pdfrwt>
<totfact> 0.15061514E+00</totfact>
</mgrwt>
</event>
<event>
 4    1  0.2514307E-008  0.9458690E+03  0.7818608E-02  0.9456083E-01
          1   -1    0    0  501    0  0.00000000000E+00  0.00000000000E+00  0.85619318082E+03  0.85619318084E+03  0.50400000000E-02 0. -1.
         -1   -1    0    0    0  501 -0.00000000000E+00 -0.00000000000E+00 -0.13137705345E+04  0.13137705345E+04  0.50400000000E-02 0.  1.
    8880023    1    1    2    0    0 -0.57821232833E+03 -0.35570839990E+03 -0.93188806000E+03  0.13278115548E+04  0.65864270000E+03 0.  0.
    8880022    1    1    2    0    0  0.57821232833E+03  0.35570839990E+03  0.47431070632E+03  0.84215216056E+03  0.15294330000E+03 0. -1.
<mgrwt>
<rscale>  0 0.87600565E+03</rscale>
<asrwt>0</asrwt>
<pdfrwt beam="1">  1        1 0.13172203E+00 0.94586900E+03</pdfrwt>
<pdfrwt beam="2">  1       -1 0.20211854E+00 0.94586900E+03</pdfrwt>
<totfact> 0.29115652E+00</totfact>
</mgrwt>
</event>
<event>
 4    1  0.2514307E-008  0.9595435E+03  0.7818608E-02  0.9436514E-01
          1   -1    0    0  501    0  0.00000000000E+00  0.00000000000E+00  0.11153737037E+04  0.11153737037E+04  0.50400000000E-02 0. -1.
         -1   -1    0    0    0  501 -0.00000000000E+00 -0.00000000000E+00 -0.15119999114E+04  0.15119999114E+04  0.50400000000E-02 0.  1.
    8880023    1    1    2    0    0  0.33747822332E+03 -0.61075519001E+03  0.78960181694E+03  0.12426563036E+04  0.65864270000E+03 0. -1.
    8880022    1    1    2    0    0 -0.33747822332E+03  0.61075519001E+03 -0.11862280246E+04  0.13847173115E+04  0.15294330000E+03 0.  0.
<mgrwt>
<rscale>  0 0.89130682E+03</rscale>
<asrwt>0</asrwt>
<pdfrwt beam="1">  1        1 0.17159595E+00 0.95954346E+03</pdfrwt>
<pdfrwt beam="2">  1       -1 0.23261537E+00 0.95954346E+03</pdfrwt>
<totfact> 0.11343849E+00</totfact>
</mgrwt>
</event>
<event>
 4    1  0.2514307E-008  0.1436702E+04  0.7818608E-02  0.8955677E-01
         -1   -1    0    0    0  501 -0.00000000000E+00  0.00000000000E+00  0.10295056311E+04  0.10295056311E+04  0.50400000000E-02 0.  1.
          1   -1    0    0  501    0  0.00000000000E+00 -0.00000000000E+00 -0.46155401103E+04  0.46155401103E+04  0.50400000000E-02 0. -1.
    8880023    1    1    2    0    0  0.42446246902E+03 -0.12042147725E+04  0.37138989913E+03  0.14839279866E+04  0.65864270000E+03 0.  0.
    8880022    1    1    2    0    0 -0.42446246902E+03  0.12042147725E+04 -0.39574243783E+04  0.41611177548E+04  0.15294330000E+03 0.  0.
<mgrwt>
<rscale>  0 0.13974357E+04</rscale>
<asrwt>0</asrwt>
<pdfrwt beam="1">  1        1 0.71008308E+00 0.14367017E+04</pdfrwt>
<pdfrwt beam="2">  1       -1 0.15838548E+00 0.14367017E+04</pdfrwt>
<totfact> 0.72035523E-03</totfact>
</mgrwt>
</event>
<event>
 4    1  0.2514307E-008  0.7850647E+03  0.7818608E-02  0.9744072E-01
          1   -1    0    0  501    0  0.00000000000E+00  0.00000000000E+00  0.62122637132E+03  0.62122637134E+03  0.50400000000E-02 0. -1.
         -1   -1    0    0    0  501 -0.00000000000E+00 -0.00000000000E+00 -0.17120854868E+04  0.17120854868E+04  0.50400000000E-02 0.  1.
    8880023    1    1    2    0    0  0.13351662376E+02  0.42701069414E+03 -0.15187226627E+04  0.17096330402E+04  0.65864270000E+03 0.  1.
    8880022    1    1    2    0    0 -0.13351662376E+02 -0.42701069414E+03  0.42786354724E+03  0.62367881788E+03  0.15294330000E+03 0.  0.
<mgrwt>
<rscale>  0 0.68452334E+03</rscale>
<asrwt>0</asrwt>
<pdfrwt beam="1">  1        1 0.95573288E-01 0.78506471E+03</pdfrwt>
<pdfrwt beam="2">  1       -1 0.26339777E+00 0.78506471E+03</pdfrwt>
<totfact> 0.19335961E+00</totfact>
</mgrwt>
</event>
<event>
 4    1  0.2514307E-008  0.9404332E+03  0.7818608E-02  0.9464014E-01
          1   -1    0    0  501    0  0.00000000000E+00  0.00000000000E+00  0.17975003819E+04  0.17975003819E+04  0.50400000000E-02 0. -1.
         -1   -1    0    0    0  501 -0.00000000000E+00 -0.00000000000E+00 -0.79681892608E+03  0.79681892609E+03  0.50400000000E-02 0.  1.
    8880023    1    1    2    0    0 -0.18976507946E+03 -0.64388949584E+03 -0.40898196939E+03  0.10255149564E+04  0.65864270000E+03 0.  1.
    8880022    1    1    2    0    0  0.18976507946E+03  0.64388949584E+03  0.14096634252E+04  0.15688043516E+04  0.15294330000E+03 0.  0.
<mgrwt>
<rscale>  0 0.86989699E+03</rscale>
<asrwt>0</asrwt>
<pdfrwt beam="1">  1        1 0.27653852E+00 0.94043324E+03</pdfrwt>
<pdfrwt beam="2">  1       -1 0.12258753E+00 0.94043324E+03</pdfrwt>
<totfact> 0.24435324E+00</totfact>
</mgrwt>
</event>
<event>
 4    1  0.2514307E-008  0.1511868E+04  0.7818608E-02  0.8901301E-01
          1   -1    0    0  501    0  0.00000000000E+00  0.00000000000E+00  0.22796162956E+04  0.22796162956E+04  0.50400000000E-02 0. -1.
         -1   -1    0    0    0  501 -0.00000000000E+00 -0.00000000000E+00 -0.14645025029E+04  0.14645025029E+04  0.50400000000E-02 0.  1.
    8880023    1    1    2    0    0 -0.11661258134E+04  0.70148679163E+03 -0.73051223802E+03  0.16791043647E+04  0.65864270000E+03 0.  0.
    8880022    1    1    2    0    0  0.11661258134E+04 -0.70148679163E+03  0.15456260307E+04  0.20650144337E+04  0.15294330000E+03 0.  0.
<mgrwt>
<rscale>  0 0.14749247E+04</rscale>
<asrwt>0</asrwt>
<pdfrwt beam="1">  1        1 0.35071020E+00 0.15118675E+04</pdfrwt>
<pdfrwt beam="2">  1       -1 0.22530808E+00 0.15118675E+04</pdfrwt>
<totfact> 0.18372695E-01</totfact>
</mgrwt>
</event>
<event>
 4    1  0.2514307E-008  0.1012244E+04  0.7818608E-02  0.9365711E-01
         -1   -1    0    0    0  501 -0.00000000000E+00  0.00000000000E+00  0.35231464611E+03  0.35231464615E+03  0.50400000000E-02 0.  1.
          1   -1    0    0  501    0  0.00000000000E+00 -0.00000000000E+00 -0.32373537345E+04  0.32373537345E+04  0.50400000000E-02 0. -1.
    8880023    1    1    2    0    0  0.68025099966E+03 -0.35789268168E+03 -0.60631948299E+03  0.11799415731E+04  0.65864270000E+03 0.  0.
    8880022    1    1    2    0    0 -0.68025099966E+03  0.35789268168E+03 -0.22787196054E+04  0.24097268076E+04  0.15294330000E+03 0.  0.
<mgrwt>
<rscale>  0 0.94952098E+03</rscale>
<asrwt>0</asrwt>
<pdfrwt beam="1">  1        1 0.49805440E+00 0.10122444E+04</pdfrwt>
<pdfrwt beam="2">  1       -1 0.54202255E-01 0.10122444E+04</pdfrwt>
<totfact> 0.14121695E+00</totfact>
</mgrwt>
</event>
<event>
 4    1  0.2514307E-008  0.6848742E+03  0.7818608E-02  0.1006691E+00
         -1   -1    0    0    0  501 -0.00000000000E+00  0.00000000000E+00  0.17651975607E+03  0.17651975615E+03  0.50400000000E-02 0.  1.
          1   -1    0    0  501    0  0.00000000000E+00 -0.00000000000E+00 -0.16414098168E+04  0.16414098168E+04  0.50400000000E-02 0. -1.
    8880023    1    1    2    0    0 -0.15375183188E+03  0.10771632124E+03 -0.57056096484E+03  0.89139915444E+03  0.65864270000E+03 0.  0.
    8880022    1    1    2    0    0  0.15375183188E+03 -0.10771632124E+03 -0.89432909584E+03  0.92653041847E+03  0.15294330000E+03 0.  0.
<mgrwt>
<rscale>  0 0.52811300E+03</rscale>
<asrwt>0</asrwt>
<pdfrwt beam="1">  1        1 0.25252458E+00 0.68487418E+03</pdfrwt>
<pdfrwt beam="2">  1       -1 0.27156887E-01 0.68487418E+03</pdfrwt>
<totfact> 0.65650019E+01</totfact>
</mgrwt>
</event>
<event>
 4    1  0.2514307E-008  0.6720795E+03  0.7818608E-02  0.1014214E+00
          1   -1    0    0  501    0  0.00000000000E+00  0.00000000000E+00  0.14174690577E+04  0.14174690577E+04  0.50400000000E-02 0. -1.
         -1   -1    0    0    0  501 -0.00000000000E+00 -0.00000000000E+00 -0.28787066820E+03  0.28787066825E+03  0.50400000000E-02 0.  1.
    8880023    1    1    2    0    0 -0.13111887077E+03 -0.26239504393E+02  0.12902777756E+03  0.68435301088E+03  0.65864270000E+03 0.  1.
    8880022    1    1    2    0    0  0.13111887077E+03  0.26239504393E+02  0.10005706119E+04  0.10209867151E+04  0.15294330000E+03 0.  0.
<mgrwt>
<rscale>  0 0.49833668E+03</rscale>
<asrwt>0</asrwt>
<pdfrwt beam="1">  1        1 0.21807216E+00 0.67207952E+03</pdfrwt>
<pdfrwt beam="2">  1       -1 0.44287796E-01 0.67207952E+03</pdfrwt>
<totfact> 0.39150349E+01</totfact>
</mgrwt>
</event>
<event>
 4    1  0.2514307E-008  0.6649904E+03  0.7818608E-02  0.1019541E+00
         -1   -1    0    0    0  501 -0.00000000000E+00  0.00000000000E+00  0.21349256734E+03  0.21349256740E+03  0.50400000000E-02 0.  1.
          1   -1    0    0  501    0  0.00000000000E+00 -0.00000000000E+00 -0.27562506739E+04  0.27562506740E+04  0.50400000000E-02 0. -1.
    8880023    1    1    2    0    0 -0.22571869104E+02  0.88839786932E+02 -0.31669685153E+03  0.73655216994E+03  0.65864270000E+03 0.  1.
    8880022    1    1    2    0    0  0.22571869104E+02 -0.88839786932E+02 -0.22260612551E+04  0.22331910714E+04  0.15294330000E+03 0.  0.
<mgrwt>
<rscale>  0 0.47852438E+03</rscale>
<asrwt>0</asrwt>
<pdfrwt beam="1">  1        1 0.42403854E+00 0.66499038E+03</pdfrwt>
<pdfrwt beam="2">  1       -1 0.32845012E-01 0.66499038E+03</pdfrwt>
<totfact> 0.83725836E+00</totfact>
</mgrwt>
</event>
<event>
 4    1  0.2514307E-008  0.1112957E+04  0.7818608E-02  0.9246766E-01
         -1   -1    0    0    0  501 -0.00000000000E+00  0.00000000000E+00  0.13554036508E+04  0.13554036508E+04  0.50400000000E-02 0.  1.
          1   -1    0    0  501    0  0.00000000000E+00 -0.00000000000E+00 -0.11229270345E+04  0.11229270345E+04  0.50400000000E-02 0. -1.
    8880023    1    1    2    0    0  0.82867011268E+03  0.34375606803E+03  0.83109021932E+03  0.13890225156E+04  0.65864270000E+03 0.  0.
    8880022    1    1    2    0    0 -0.82867011268E+03 -0.34375606803E+03 -0.59861360296E+03  0.10893081697E+04  0.15294330000E+03 0.  0.
<mgrwt>
<rscale>  0 0.10583496E+04</rscale>
<asrwt>0</asrwt>
<pdfrwt beam="1">  1        1 0.17275801E+00 0.11129567E+04</pdfrwt>
<pdfrwt beam="2">  1       -1 0.20852364E+00 0.11129567E+04</pdfrwt>
<totfact> 0.15881287E+00</totfact>
</mgrwt>
</event>
<event>
 4    1  0.2514307E-008  0.6819793E+03  0.7818608E-02  0.1008225E+00
          1   -1    0    0  501    0  0.00000000000E+00  0.00000000000E+00  0.17242103381E+04  0.17242103382E+04  0.50400000000E-02 0. -1.
         -1   -1    0    0    0  501 -0.00000000000E+00 -0.00000000000E+00 -0.24887525561E+03  0.24887525566E+03  0.50400000000E-02 0.  1.
    8880023    1    1    2    0    0  0.50086984760E+02 -0.16963742583E+03  0.25112801864E+03  0.72674689562E+03  0.65864270000E+03 0.  1.
    8880022    1    1    2    0    0 -0.50086984760E+02  0.16963742583E+03  0.12242070639E+04  0.12463386982E+04  0.15294330000E+03 0.  0.
<mgrwt>
<rscale>  0 0.52186022E+03</rscale>
<asrwt>0</asrwt>
<pdfrwt beam="1">  1        1 0.26526311E+00 0.68197930E+03</pdfrwt>
<pdfrwt beam="2">  1       -1 0.38288503E-01 0.68197930E+03</pdfrwt>
<totfact> 0.31577733E+01</totfact>
</mgrwt>
</event>
<event>
 4    1  0.2514307E-008  0.6849573E+03  0.7818608E-02  0.1006648E+00
          1   -1    0    0  501    0  0.00000000000E+00  0.00000000000E+00  0.13997783191E+04  0.13997783191E+04  0.50400000000E-02 0. -1.
         -1   -1    0    0    0  501 -0.00000000000E+00 -0.00000000000E+00 -0.75554465636E+03  0.75554465638E+03  0.50400000000E-02 0.  1.
    8880023    1    1    2    0    0 -0.14475114805E+03  0.12001417361E+03 -0.58601066214E+03  0.90142941994E+03  0.65864270000E+03 0.  1.
    8880022    1    1    2    0    0  0.14475114805E+03 -0.12001417361E+03  0.12302443249E+04  0.12538935555E+04  0.15294330000E+03 0.  0.
<mgrwt>
<rscale>  0 0.52828918E+03</rscale>
<asrwt>0</asrwt>
<pdfrwt beam="1">  1        1 0.21535051E+00 0.68495730E+03</pdfrwt>
<pdfrwt beam="2">  1       -1 0.11623764E+00 0.68495730E+03</pdfrwt>
<totfact> 0.54078067E+00</totfact>
</mgrwt>
</event>
<event>
 4    1  0.2514307E-008  0.6927698E+03  0.7818608E-02  0.1002863E+00
          1   -1    0    0  501    0  0.00000000000E+00  0.00000000000E+00  0.16432469846E+04  0.16432469846E+04  0.50400000000E-02 0. -1.
         -1   -1    0    0    0  501 -0.00000000000E+00 -0.00000000000E+00 -0.38145810881E+03  0.38145810884E+03  0.50400000000E-02 0.  1.
    8880023    1    1    2    0    0 -0.62507712807E+02  0.20545715099E+03 -0.42464906311E+02  0.69407011864E+03  0.65864270000E+03 0.  1.
    8880022    1    1    2    0    0  0.62507712807E+02 -0.20545715099E+03  0.13042537821E+04  0.13306349748E+04  0.15294330000E+03 0.  0.
<mgrwt>
<rscale>  0 0.54412518E+03</rscale>
<asrwt>0</asrwt>
<pdfrwt beam="1">  1        1 0.25280723E+00 0.69276985E+03</pdfrwt>
<pdfrwt beam="2">  1       -1 0.58685863E-01 0.69276985E+03</pdfrwt>
<totfact> 0.16049292E+01</totfact>
</mgrwt>
</event>
<event>
 4    1  0.2514307E-008  0.2631879E+04  0.7818608E-02  0.8364183E-01
          1   -1    0    0  501    0  0.00000000000E+00  0.00000000000E+00  0.30671219599E+04  0.30671219599E+04  0.50400000000E-02 0. -1.
         -1   -1    0    0    0  501 -0.00000000000E+00 -0.00000000000E+00 -0.22389681721E+04  0.22389681721E+04  0.50400000000E-02 0.  1.
    8880023    1    1    2    0    0  0.19856457405E+04  0.15969301436E+04  0.31908742715E+02  0.26320720477E+04  0.65864270000E+03 0.  0.
    8880022    1    1    2    0    0 -0.19856457405E+04 -0.15969301436E+04  0.79624504505E+03  0.26740180843E+04  0.15294330000E+03 0.  0.
<mgrwt>
<rscale>  0 0.26118611E+04</rscale>
<asrwt>0</asrwt>
<pdfrwt beam="1">  1        1 0.47186492E+00 0.26318786E+04</pdfrwt>
<pdfrwt beam="2">  1       -1 0.34445664E+00 0.26318786E+04</pdfrwt>
<totfact> 0.74700716E-03</totfact>
</mgrwt>
</event>
<event>
 4    1  0.2514307E-008  0.6786189E+03  0.7818608E-02  0.1010116E+00
          1   -1    0    0  501    0  0.00000000000E+00  0.00000000000E+00  0.88426936720E+03  0.88426936721E+03  0.50400000000E-02 0. -1.
         -1   -1    0    0    0  501 -0.00000000000E+00 -0.00000000000E+00 -0.90411044854E+03  0.90411044855E+03  0.50400000000E-02 0.  1.
    8880023    1    1    2    0    0 -0.15881712636E+03 -0.38608026758E+02 -0.75778575627E+03  0.10172329714E+04  0.65864270000E+03 0.  1.
    8880022    1    1    2    0    0  0.15881712636E+03  0.38608026758E+02  0.73794467493E+03  0.77114684440E+03  0.15294330000E+03 0.  0.
<mgrwt>
<rscale>  0 0.51428604E+03</rscale>
<asrwt>0</asrwt>
<pdfrwt beam="1">  1        1 0.13604144E+00 0.67861894E+03</pdfrwt>
<pdfrwt beam="2">  1       -1 0.13909391E+00 0.67861894E+03</pdfrwt>
<totfact> 0.83423689E+00</totfact>
</mgrwt>
</event>
<event>
 4    1  0.2514307E-008  0.9041088E+03  0.7818608E-02  0.9519468E-01
          1   -1    0    0  501    0  0.00000000000E+00  0.00000000000E+00  0.22495151855E+04  0.22495151855E+04  0.50400000000E-02 0. -1.
         -1   -1    0    0    0  501 -0.00000000000E+00 -0.00000000000E+00 -0.62644639036E+03  0.62644639038E+03  0.50400000000E-02 0.  1.
    8880023    1    1    2    0    0 -0.15677276110E+03  0.59918685602E+03 -0.21585553998E+03  0.92951944975E+03  0.65864270000E+03 0.  0.
    8880022    1    1    2    0    0  0.15677276110E+03 -0.59918685602E+03  0.18389243351E+04  0.19464421261E+04  0.15294330000E+03 0.  0.
<mgrwt>
<rscale>  0 0.82863652E+03</rscale>
<asrwt>0</asrwt>
<pdfrwt beam="1">  1        1 0.34607926E+00 0.90410884E+03</pdfrwt>
<pdfrwt beam="2">  1       -1 0.96376366E-01 0.90410884E+03</pdfrwt>
<totfact> 0.21512316E+00</totfact>
</mgrwt>
</event>
<event>
 4    1  0.2514307E-008  0.7437125E+03  0.7818608E-02  0.9849262E-01
          1   -1    0    0  501    0  0.00000000000E+00  0.00000000000E+00  0.14447845605E+04  0.14447845605E+04  0.50400000000E-02 0. -1.
         -1   -1    0    0    0  501 -0.00000000000E+00 -0.00000000000E+00 -0.24396564717E+03  0.24396564722E+03  0.50400000000E-02 0.  1.
    8880023    1    1    2    0    0 -0.24812645685E+03  0.24027331722E+03  0.51122306452E+03  0.90247284365E+03  0.65864270000E+03 0.  1.
    8880022    1    1    2    0    0  0.24812645685E+03 -0.24027331722E+03  0.68959584878E+03  0.78627736406E+03  0.15294330000E+03 0.  0.
<mgrwt>
<rscale>  0 0.62784560E+03</rscale>
<asrwt>0</asrwt>
<pdfrwt beam="1">  1        1 0.22227455E+00 0.74371245E+03</pdfrwt>
<pdfrwt beam="2">  1       -1 0.37533176E-01 0.74371245E+03</pdfrwt>
<totfact> 0.50265734E+01</totfact>
</mgrwt>
</event>
<event>
 4    1  0.2514307E-008  0.8745125E+03  0.7818608E-02  0.9568252E-01
         -1   -1    0    0    0  501 -0.00000000000E+00  0.00000000000E+00  0.29988371066E+03  0.29988371070E+03  0.50400000000E-02 0.  1.
          1   -1    0    0  501    0  0.00000000000E+00 -0.00000000000E+00 -0.18989466153E+04  0.18989466153E+04  0.50400000000E-02 0. -1.
    8880023    1    1    2    0    0  0.54498448096E+03 -0.18426582331E+03 -0.69812338658E+03  0.11189943911E+04  0.65864270000E+03 0. -1.
    8880022    1    1    2    0    0 -0.54498448096E+03  0.18426582331E+03 -0.90093951806E+03  0.10798359349E+04  0.15294330000E+03 0.  0.
<mgrwt>
<rscale>  0 0.79433581E+03</rscale>
<asrwt>0</asrwt>
<pdfrwt beam="1">  1        1 0.29214563E+00 0.87451254E+03</pdfrwt>
<pdfrwt beam="2">  1       -1 0.46135956E-01 0.87451254E+03</pdfrwt>
<totfact> 0.16699869E+01</totfact>
</mgrwt>
</event>
<event>
 4    1  0.2514307E-008  0.7554317E+03  0.7818608E-02  0.9817081E-01
          1   -1    0    0  501    0  0.00000000000E+00  0.00000000000E+00  0.88163590722E+03  0.88163590724E+03  0.50400000000E-02 0. -1.
         -1   -1    0    0    0  501 -0.00000000000E+00 -0.00000000000E+00 -0.43271325487E+03  0.43271325490E+03  0.50400000000E-02 0.  1.
    8880023    1    1    2    0    0 -0.14200459319E+03  0.34161605654E+03  0.62603862189E+02  0.75802129548E+03  0.65864270000E+03 0.  0.
    8880022    1    1    2    0    0  0.14200459319E+03 -0.34161605654E+03  0.38631879017E+03  0.55632786666E+03  0.15294330000E+03 0.  0.
<mgrwt>
<rscale>  0 0.64453875E+03</rscale>
<asrwt>0</asrwt>
<pdfrwt beam="1">  1        1 0.13563629E+00 0.75543169E+03</pdfrwt>
<pdfrwt beam="2">  1       -1 0.66571271E-01 0.75543169E+03</pdfrwt>
<totfact> 0.44094079E+01</totfact>
</mgrwt>
</event>
<event>
 4    1  0.2514307E-008  0.7776527E+03  0.7818608E-02  0.9761380E-01
         -1   -1    0    0    0  501 -0.00000000000E+00  0.00000000000E+00  0.11063936274E+04  0.11063936274E+04  0.50400000000E-02 0.  1.
          1   -1    0    0  501    0  0.00000000000E+00 -0.00000000000E+00 -0.33997440438E+03  0.33997440441E+03  0.50400000000E-02 0. -1.
    8880023    1    1    2    0    0 -0.14126539952E+03 -0.38855840201E+03  0.40777186117E+03  0.87807838027E+03  0.65864270000E+03 0.  1.
    8880022    1    1    2    0    0  0.14126539952E+03  0.38855840201E+03  0.35864736184E+03  0.56828965154E+03  0.15294330000E+03 0.  0.
<mgrwt>
<rscale>  0 0.67476945E+03</rscale>
<asrwt>0</asrwt>
<pdfrwt beam="1">  1        1 0.52303754E-01 0.77765272E+03</pdfrwt>
<pdfrwt beam="2">  1       -1 0.17021441E+00 0.77765272E+03</pdfrwt>
<totfact> 0.18671067E+01</totfact>
</mgrwt>
</event>
<event>
 4    1  0.2514307E-008  0.6654512E+03  0.7818608E-02  0.1019158E+00
          1   -1    0    0  501    0  0.00000000000E+00  0.00000000000E+00  0.14095956244E+04  0.14095956244E+04  0.50400000000E-02 0. -1.
         -1   -1    0    0    0  501 -0.00000000000E+00 -0.00000000000E+00 -0.23098090039E+03  0.23098090045E+03  0.50400000000E-02 0.  1.
    8880023    1    1    2    0    0 -0.79529154709E+02  0.51867328700E+02  0.27638873792E+03  0.72056647643E+03  0.65864270000E+03 0.  1.
    8880022    1    1    2    0    0  0.79529154709E+02 -0.51867328700E+02  0.90222598604E+03  0.92001004839E+03  0.15294330000E+03 0.  0.
<mgrwt>
<rscale>  0 0.47991753E+03</rscale>
<asrwt>0</asrwt>
<pdfrwt beam="1">  1        1 0.21686087E+00 0.66545121E+03</pdfrwt>
<pdfrwt beam="2">  1       -1 0.35535522E-01 0.66545121E+03</pdfrwt>
<totfact> 0.59144402E+01</totfact>
</mgrwt>
</event>
<event>
 4    1  0.2514307E-008  0.6843367E+03  0.7818608E-02  0.1006970E+00
          1   -1    0    0  501    0  0.00000000000E+00  0.00000000000E+00  0.53497849226E+03  0.53497849229E+03  0.50400000000E-02 0. -1.
         -1   -1    0    0    0  501 -0.00000000000E+00 -0.00000000000E+00 -0.12960772964E+04  0.12960772964E+04  0.50400000000E-02 0.  1.
    8880023    1    1    2    0    0  0.15730860132E+03  0.98795299670E+02 -0.11706786160E+04  0.13560254922E+04  0.65864270000E+03 0.  1.
    8880022    1    1    2    0    0 -0.15730860132E+03 -0.98795299670E+02  0.40957981186E+03  0.47503029649E+03  0.15294330000E+03 0.  0.
<mgrwt>
<rscale>  0 0.52696948E+03</rscale>
<asrwt>0</asrwt>
<pdfrwt beam="1">  1        1 0.82304384E-01 0.68433670E+03</pdfrwt>
<pdfrwt beam="2">  1       -1 0.19939651E+00 0.68433670E+03</pdfrwt>
<totfact> 0.64010338E+00</totfact>
</mgrwt>
</event>
<event>
 4    1  0.2514307E-008  0.1203784E+04  0.7818608E-02  0.9153452E-01
         -1   -1    0    0    0  501 -0.00000000000E+00  0.00000000000E+00  0.62952146703E+03  0.62952146705E+03  0.50400000000E-02 0.  1.
          1   -1    0    0  501    0  0.00000000000E+00 -0.00000000000E+00 -0.23834993921E+04  0.23834993921E+04  0.50400000000E-02 0. -1.
    8880023    1    1    2    0    0 -0.91545234132E+03  0.42099127558E+03 -0.30552788971E+03  0.12419517466E+04  0.65864270000E+03 0.  0.
    8880022    1    1    2    0    0  0.91545234132E+03 -0.42099127558E+03 -0.14484500353E+04  0.17710691125E+04  0.15294330000E+03 0.  0.
<mgrwt>
<rscale>  0 0.11547066E+04</rscale>
<asrwt>0</asrwt>
<pdfrwt beam="1">  1        1 0.36669221E+00 0.12037844E+04</pdfrwt>
<pdfrwt beam="2">  1       -1 0.96849458E-01 0.12037844E+04</pdfrwt>
<totfact> 0.16533304E+00</totfact>
</mgrwt>
</event>
<event>
 4    1  0.2514307E-008  0.9537286E+03  0.7818608E-02  0.9444770E-01
          1   -1    0    0  501    0  0.00000000000E+00  0.00000000000E+00  0.61228514366E+03  0.61228514368E+03  0.50400000000E-02 0. -1.
         -1   -1    0    0    0  501 -0.00000000000E+00 -0.00000000000E+00 -0.14121562600E+04  0.14121562600E+04  0.50400000000E-02 0.  1.
    8880023    1    1    2    0    0  0.34108181188E+03 -0.59954249066E+03 -0.89941965548E+03  0.13109362774E+04  0.65864270000E+03 0.  1.
    8880022    1    1    2    0    0 -0.34108181188E+03  0.59954249066E+03  0.99548539184E+02  0.71350512624E+03  0.15294330000E+03 0.  0.
<mgrwt>
<rscale>  0 0.88481140E+03</rscale>
<asrwt>0</asrwt>
<pdfrwt beam="1">  1        1 0.94197715E-01 0.95372858E+03</pdfrwt>
<pdfrwt beam="2">  1       -1 0.21725481E+00 0.95372858E+03</pdfrwt>
<totfact> 0.38595634E+00</totfact>
</mgrwt>
</event>
<event>
 4    1  0.2514307E-008  0.8051441E+03  0.7818608E-02  0.9699782E-01
          1   -1    0    0  501    0  0.00000000000E+00  0.00000000000E+00  0.14941580385E+04  0.14941580385E+04  0.50400000000E-02 0. -1.
         -1   -1    0    0    0  501 -0.00000000000E+00 -0.00000000000E+00 -0.11705264667E+04  0.11705264667E+04  0.50400000000E-02 0.  1.
    8880023    1    1    2    0    0  0.23814907281E+03  0.39715475885E+03 -0.98262545056E+03  0.12703581643E+04  0.65864270000E+03 0.  1.
    8880022    1    1    2    0    0 -0.23814907281E+03 -0.39715475885E+03  0.13062570223E+04  0.13943263408E+04  0.15294330000E+03 0.  0.
<mgrwt>
<rscale>  0 0.71029786E+03</rscale>
<asrwt>0</asrwt>
<pdfrwt beam="1">  1        1 0.22987047E+00 0.80514414E+03</pdfrwt>
<pdfrwt beam="2">  1       -1 0.18008099E+00 0.80514414E+03</pdfrwt>
<totfact> 0.14255253E+00</totfact>
</mgrwt>
</event>
<event>
 4    1  0.2514307E-008  0.8583872E+03  0.7818608E-02  0.9596439E-01
          1   -1    0    0  501    0  0.00000000000E+00  0.00000000000E+00  0.92299541415E+03  0.92299541416E+03  0.50400000000E-02 0. -1.
         -1   -1    0    0    0  501 -0.00000000000E+00 -0.00000000000E+00 -0.13676311813E+04  0.13676311813E+04  0.50400000000E-02 0.  1.
    8880023    1    1    2    0    0 -0.54981445650E+03 -0.26878820045E+02 -0.11167300537E+04  0.14085150431E+04  0.65864270000E+03 0.  1.
    8880022    1    1    2    0    0  0.54981445650E+03  0.26878820045E+02  0.67209428664E+03  0.88211155229E+03  0.15294330000E+03 0.  0.
<mgrwt>
<rscale>  0 0.77532337E+03</rscale>
<asrwt>0</asrwt>
<pdfrwt beam="1">  1        1 0.14199929E+00 0.85838722E+03</pdfrwt>
<pdfrwt beam="2">  1       -1 0.21040480E+00 0.85838722E+03</pdfrwt>
<totfact> 0.22811644E+00</totfact>
</mgrwt>
</event>
<event>
 4    1  0.2514307E-008  0.1256616E+04  0.7818608E-02  0.9103960E-01
          1   -1    0    0  501    0  0.00000000000E+00  0.00000000000E+00  0.27998973849E+04  0.27998973849E+04  0.50400000000E-02 0. -1.
         -1   -1    0    0    0  501 -0.00000000000E+00 -0.00000000000E+00 -0.62533439210E+03  0.62533439212E+03  0.50400000000E-02 0.  1.
    8880023    1    1    2    0    0  0.13803016009E+03  0.10612362674E+04  0.34998935420E+03  0.13044452824E+04  0.65864270000E+03 0.  0.
    8880022    1    1    2    0    0 -0.13803016009E+03 -0.10612362674E+04  0.18245736386E+04  0.21207864947E+04  0.15294330000E+03 0.  0.
<mgrwt>
<rscale>  0 0.12102174E+04</rscale>
<asrwt>0</asrwt>
<pdfrwt beam="1">  1        1 0.43075344E+00 0.12566165E+04</pdfrwt>
<pdfrwt beam="2">  1       -1 0.96205292E-01 0.12566165E+04</pdfrwt>
<totfact> 0.85566013E-01</totfact>
</mgrwt>
</event>
<event>
 4    1  0.2514307E-008  0.1251188E+04  0.7818608E-02  0.9108902E-01
         -1   -1    0    0    0  501 -0.00000000000E+00  0.00000000000E+00  0.12225736699E+04  0.12225736699E+04  0.50400000000E-02 0.  1.
          1   -1    0    0  501    0  0.00000000000E+00 -0.00000000000E+00 -0.16272175701E+04  0.16272175701E+04  0.50400000000E-02 0. -1.
    8880023    1    1    2    0    0  0.14706424638E+03 -0.10535809927E+04  0.59190303914E+03  0.13841315742E+04  0.65864270000E+03 0.  1.
    8880022    1    1    2    0    0 -0.14706424638E+03  0.10535809927E+04 -0.99654693932E+03  0.14656596658E+04  0.15294330000E+03 0.  0.
<mgrwt>
<rscale>  0 0.12045286E+04</rscale>
<asrwt>0</asrwt>
<pdfrwt beam="1">  1        1 0.25034117E+00 0.12511878E+04</pdfrwt>
<pdfrwt beam="2">  1       -1 0.18808826E+00 0.12511878E+04</pdfrwt>
<totfact> 0.94879848E-01</totfact>
</mgrwt>
</event>
<event>
 4    1  0.2514307E-008  0.1199096E+04  0.7818608E-02  0.9158002E-01
          1   -1    0    0  501    0  0.00000000000E+00  0.00000000000E+00  0.11023727289E+04  0.11023727289E+04  0.50400000000E-02 0. -1.
         -1   -1    0    0    0  501 -0.00000000000E+00 -0.00000000000E+00 -0.15103618901E+04  0.15103618901E+04  0.50400000000E-02 0.  1.
    8880023    1    1    2    0    0 -0.61498885082E+03 -0.79108142698E+03 -0.88712297359E+03  0.14915825446E+04  0.65864270000E+03 0.  0.
    8880022    1    1    2    0    0  0.61498885082E+03  0.79108142698E+03  0.47913381244E+03  0.11211520744E+04  0.15294330000E+03 0.  0.
<mgrwt>
<rscale>  0 0.11497637E+04</rscale>
<asrwt>0</asrwt>
<pdfrwt beam="1">  1        1 0.16959580E+00 0.11990960E+04</pdfrwt>
<pdfrwt beam="2">  1       -1 0.23236337E+00 0.11990960E+04</pdfrwt>
<totfact> 0.11279353E+00</totfact>
</mgrwt>
</event>
<event>
 4    1  0.2514307E-008  0.8105095E+03  0.7818608E-02  0.9688517E-01
         -1   -1    0    0    0  501 -0.00000000000E+00  0.00000000000E+00  0.14658101133E+04  0.14658101133E+04  0.50400000000E-02 0.  1.
          1   -1    0    0  501    0  0.00000000000E+00 -0.00000000000E+00 -0.45452020376E+03  0.45452020379E+03  0.50400000000E-02 0. -1.
    8880023    1    1    2    0    0 -0.16388263512E+03 -0.44301011826E+03  0.11480659373E+04  0.14053402028E+04  0.65864270000E+03 0.  0.
    8880022    1    1    2    0    0  0.16388263512E+03  0.44301011826E+03 -0.13677602780E+03  0.51499011425E+03  0.15294330000E+03 0.  0.
<mgrwt>
<rscale>  0 0.71704643E+03</rscale>
<asrwt>0</asrwt>
<pdfrwt beam="1">  1        1 0.69926185E-01 0.81050952E+03</pdfrwt>
<pdfrwt beam="2">  1       -1 0.22550925E+00 0.81050952E+03</pdfrwt>
<totfact> 0.52543487E+00</totfact>
</mgrwt>
</event>
<event>
 4    1  0.2514307E-008  0.7871772E+03  0.7818608E-02  0.9739240E-01
          1   -1    0    0  501    0  0.00000000000E+00  0.00000000000E+00  0.18016727512E+04  0.18016727512E+04  0.50400000000E-02 0. -1.
         -1   -1    0    0    0  501 -0.00000000000E+00 -0.00000000000E+00 -0.31088528274E+03  0.31088528278E+03  0.50400000000E-02 0.  1.
    8880023    1    1    2    0    0 -0.22934827231E+03 -0.36501655295E+03  0.30955864882E+03  0.84585724402E+03  0.65864270000E+03 0.  1.
    8880022    1    1    2    0    0  0.22934827231E+03  0.36501655295E+03  0.11812288196E+04  0.12667007899E+04  0.15294330000E+03 0.  0.
<mgrwt>
<rscale>  0 0.68727762E+03</rscale>
<asrwt>0</asrwt>
<pdfrwt beam="1">  1        1 0.27718042E+00 0.78717718E+03</pdfrwt>
<pdfrwt beam="2">  1       -1 0.47828506E-01 0.78717718E+03</pdfrwt>
<totfact> 0.18342858E+01</totfact>
</mgrwt>
</event>
<event>
 4    1  0.2514307E-008  0.9377586E+03  0.7818608E-02  0.9467950E-01
          1   -1    0    0  501    0  0.00000000000E+00  0.00000000000E+00  0.70026530925E+03  0.70026530927E+03  0.50400000000E-02 0. -1.
         -1   -1    0    0    0  501 -0.00000000000E+00 -0.00000000000E+00 -0.10465282257E+04  0.10465282257E+04  0.50400000000E-02 0.  1.
    8880023    1    1    2    0    0 -0.16375135773E+03 -0.64712162330E+03  0.78342600016E+02  0.94102533002E+03  0.65864270000E+03 0.  0.
    8880022    1    1    2    0    0  0.16375135773E+03  0.64712162330E+03 -0.42460551645E+03  0.80576820495E+03  0.15294330000E+03 0.  0.
<mgrwt>
<rscale>  0 0.86688543E+03</rscale>
<asrwt>0</asrwt>
<pdfrwt beam="1">  1        1 0.10773313E+00 0.93775856E+03</pdfrwt>
<pdfrwt beam="2">  1       -1 0.16100434E+00 0.93775856E+03</pdfrwt>
<totfact> 0.78904060E+00</totfact>
</mgrwt>
</event>
<event>
 4    1  0.2514307E-008  0.1444906E+04  0.7818608E-02  0.8949552E-01
         -1   -1    0    0    0  501 -0.00000000000E+00  0.00000000000E+00  0.12727952416E+04  0.12727952416E+04  0.50400000000E-02 0.  1.
          1   -1    0    0  501    0  0.00000000000E+00 -0.00000000000E+00 -0.21273250504E+04  0.21273250504E+04  0.50400000000E-02 0. -1.
    8880023    1    1    2    0    0  0.21400497443E+03  0.12681269720E+04  0.49722723181E+03  0.15280671689E+04  0.65864270000E+03 0.  0.
    8880022    1    1    2    0    0 -0.21400497443E+03 -0.12681269720E+04 -0.13517570406E+04  0.18720531232E+04  0.15294330000E+03 0.  0.
<mgrwt>
<rscale>  0 0.14059092E+04</rscale>
<asrwt>0</asrwt>
<pdfrwt beam="1">  1        1 0.32728078E+00 0.14449063E+04</pdfrwt>
<pdfrwt beam="2">  1       -1 0.19581465E+00 0.14449063E+04</pdfrwt>
<totfact> 0.37387308E-01</totfact>
</mgrwt>
</event>
<event>
 4    1  0.2514307E-008  0.6714832E+03  0.7818608E-02  0.1014621E+00
          1   -1    0    0  501    0  0.00000000000E+00  0.00000000000E+00  0.17461699543E+04  0.17461699543E+04  0.50400000000E-02 0. -1.
         -1   -1    0    0    0  501 -0.00000000000E+00 -0.00000000000E+00 -0.51388746600E+03  0.51388746602E+03  0.50400000000E-02 0.  1.
    8880023    1    1    2    0    0 -0.64201278707E+02 -0.11383175926E+03 -0.28502489856E+03  0.72947163938E+03  0.65864270000E+03 0.  1.
    8880022    1    1    2    0    0  0.64201278707E+02  0.11383175926E+03  0.15173073869E+04  0.15305857809E+04  0.15294330000E+03 0.  0.
<mgrwt>
<rscale>  0 0.49678620E+03</rscale>
<asrwt>0</asrwt>
<pdfrwt beam="1">  1        1 0.26864153E+00 0.67148319E+03</pdfrwt>
<pdfrwt beam="2">  1       -1 0.79059610E-01 0.67148319E+03</pdfrwt>
<totfact> 0.75003080E+00</totfact>
</mgrwt>
</event>
<event>
 4    1  0.2514307E-008  0.7825308E+03  0.7818608E-02  0.9749925E-01
         -1   -1    0    0    0  501 -0.00000000000E+00  0.00000000000E+00  0.37738528267E+03  0.37738528271E+03  0.50400000000E-02 0.  1.
          1   -1    0    0  501    0  0.00000000000E+00 -0.00000000000E+00 -0.26090216910E+04  0.26090216910E+04  0.50400000000E-02 0. -1.
    8880023    1    1    2    0    0  0.40109788382E+03 -0.13290863282E+03 -0.78023930467E+02  0.78641093397E+03  0.65864270000E+03 0.  0.
    8880022    1    1    2    0    0 -0.40109788382E+03  0.13290863282E+03 -0.21536124778E+04  0.21999960397E+04  0.15294330000E+03 0.  0.
<mgrwt>
<rscale>  0 0.68120489E+03</rscale>
<asrwt>0</asrwt>
<pdfrwt beam="1">  1        1 0.40138794E+00 0.78253078E+03</pdfrwt>
<pdfrwt beam="2">  1       -1 0.58059276E-01 0.78253078E+03</pdfrwt>
<totfact> 0.36108360E+00</totfact>
</mgrwt>
</event>
<event>
 4    1  0.2514307E-008  0.1281037E+04  0.7818608E-02  0.9082111E-01
          1   -1    0    0  501    0  0.00000000000E+00  0.00000000000E+00  0.13799815732E+04  0.13799815732E+04  0.50400000000E-02 0. -1.
         -1   -1    0    0    0  501 -0.00000000000E+00 -0.00000000000E+00 -0.15027887533E+04  0.15027887533E+04  0.50400000000E-02 0.  1.
    8880023    1    1    2    0    0 -0.10907338243E+04 -0.13245630049E+03 -0.86707509282E+03  0.15468918417E+04  0.65864270000E+03 0.  0.
    8880022    1    1    2    0    0  0.10907338243E+04  0.13245630049E+03  0.74426791272E+03  0.13358784847E+04  0.15294330000E+03 0.  0.
<mgrwt>
<rscale>  0 0.12357694E+04</rscale>
<asrwt>0</asrwt>
<pdfrwt beam="1">  1        1 0.21230486E+00 0.12810367E+04</pdfrwt>
<pdfrwt beam="2">  1       -1 0.23119827E+00 0.12810367E+04</pdfrwt>
<totfact> 0.71379797E-01</totfact>
</mgrwt>
</event>
<event>
 4    1  0.2514307E-008  0.1588265E+04  0.7818608E-02  0.8849699E-01
          1   -1    0    0  501    0  0.00000000000E+00  0.00000000000E+00  0.29755361117E+04  0.29755361117E+04  0.50400000000E-02 0. -1.
         -1   -1    0    0    0  501 -0.00000000000E+00 -0.00000000000E+00 -0.13097914584E+04  0.13097914584E+04  0.50400000000E-02 0.  1.
    8880023    1    1    2    0    0 -0.48292587286E+03  0.13621884083E+04 -0.51061301050E+03  0.16683256610E+04  0.65864270000E+03 0.  0.
    8880022    1    1    2    0    0  0.48292587286E+03 -0.13621884083E+04  0.21763576638E+04  0.26170019091E+04  0.15294330000E+03 0.  0.
<mgrwt>
<rscale>  0 0.15533996E+04</rscale>
<asrwt>0</asrwt>
<pdfrwt beam="1">  1        1 0.45777478E+00 0.15882647E+04</pdfrwt>
<pdfrwt beam="2">  1       -1 0.20150638E+00 0.15882647E+04</pdfrwt>
<totfact> 0.85718751E-02</totfact>
</mgrwt>
</event>
<event>
 4    1  0.2514307E-008  0.6771943E+03  0.7818608E-02  0.1010957E+00
         -1   -1    0    0    0  501 -0.00000000000E+00  0.00000000000E+00  0.25802264776E+03  0.25802264781E+03  0.50400000000E-02 0.  1.
          1   -1    0    0  501    0  0.00000000000E+00 -0.00000000000E+00 -0.15168136643E+04  0.15168136643E+04  0.50400000000E-02 0. -1.
    8880023    1    1    2    0    0  0.14365247035E+03  0.64388383047E+02 -0.21839313531E+03  0.71153894055E+03  0.65864270000E+03 0.  1.
    8880022    1    1    2    0    0 -0.14365247035E+03 -0.64388383047E+02 -0.10403978812E+04  0.10632973716E+04  0.15294330000E+03 0.  0.
<mgrwt>
<rscale>  0 0.51095899E+03</rscale>
<asrwt>0</asrwt>
<pdfrwt beam="1">  1        1 0.23335594E+00 0.67719429E+03</pdfrwt>
<pdfrwt beam="2">  1       -1 0.39695793E-01 0.67719429E+03</pdfrwt>
<totfact> 0.40866024E+01</totfact>
</mgrwt>
</event>
<event>
 4    1  0.2514307E-008  0.6657614E+03  0.7818608E-02  0.1018903E+00
         -1   -1    0    0    0  501 -0.00000000000E+00  0.00000000000E+00  0.11958111894E+04  0.11958111894E+04  0.50400000000E-02 0.  1.
          1   -1    0    0  501    0  0.00000000000E+00 -0.00000000000E+00 -0.31868088880E+03  0.31868088884E+03  0.50400000000E-02 0. -1.
    8880023    1    1    2    0    0 -0.88469405851E+02 -0.40015353802E+02  0.10634248165E+04  0.12546356487E+04  0.65864270000E+03 0.  1.
    8880022    1    1    2    0    0  0.88469405851E+02  0.40015353802E+02 -0.18629451591E+03  0.25985642956E+03  0.15294330000E+03 0.  0.
<mgrwt>
<rscale>  0 0.48084580E+03</rscale>
<asrwt>0</asrwt>
<pdfrwt beam="1">  1        1 0.49027830E-01 0.66576142E+03</pdfrwt>
<pdfrwt beam="2">  1       -1 0.18397095E+00 0.66576142E+03</pdfrwt>
<totfact> 0.16382110E+01</totfact>
</mgrwt>
</event>
<event>
 4    1  0.2514307E-008  0.6797987E+03  0.7818608E-02  0.1009438E+00
         -1   -1    0    0    0  501 -0.00000000000E+00  0.00000000000E+00  0.29623259134E+03  0.29623259138E+03  0.50400000000E-02 0.  1.
          1   -1    0    0  501    0  0.00000000000E+00 -0.00000000000E+00 -0.19244771299E+04  0.19244771299E+04  0.50400000000E-02 0. -1.
    8880023    1    1    2    0    0 -0.12104338511E+03 -0.11689567139E+03 -0.11376274001E+03  0.68925196144E+03  0.65864270000E+03 0.  1.
    8880022    1    1    2    0    0  0.12104338511E+03  0.11689567139E+03 -0.15144817986E+04  0.15314577599E+04  0.15294330000E+03 0.  0.
<mgrwt>
<rscale>  0 0.51698711E+03</rscale>
<asrwt>0</asrwt>
<pdfrwt beam="1">  1        1 0.29607340E+00 0.67979872E+03</pdfrwt>
<pdfrwt beam="2">  1       -1 0.45574246E-01 0.67979872E+03</pdfrwt>
<totfact> 0.16877256E+01</totfact>
</mgrwt>
</event>
<event>
 4    1  0.2514307E-008  0.1121517E+04  0.7818608E-02  0.9237470E-01
         -1   -1    0    0    0  501 -0.00000000000E+00  0.00000000000E+00  0.13581185007E+04  0.13581185007E+04  0.50400000000E-02 0.  1.
          1   -1    0    0  501    0  0.00000000000E+00 -0.00000000000E+00 -0.22170428189E+04  0.22170428189E+04  0.50400000000E-02 0. -1.
    8880023    1    1    2    0    0  0.15287015766E+03  0.89477421995E+03  0.99884752008E+03  0.15018311371E+04  0.65864270000E+03 0.  0.
    8880022    1    1    2    0    0 -0.15287015766E+03 -0.89477421995E+03 -0.18577718383E+04  0.20733301826E+04  0.15294330000E+03 0.  0.
<mgrwt>
<rscale>  0 0.10674912E+04</rscale>
<asrwt>0</asrwt>
<pdfrwt beam="1">  1        1 0.34108351E+00 0.11215170E+04</pdfrwt>
<pdfrwt beam="2">  1       -1 0.20894131E+00 0.11215170E+04</pdfrwt>
<totfact> 0.27593184E-01</totfact>
</mgrwt>
</event>
<event>
 4    1  0.2514307E-008  0.7745690E+03  0.7818608E-02  0.9768753E-01
          1   -1    0    0  501    0  0.00000000000E+00  0.00000000000E+00  0.99754849263E+03  0.99754849264E+03  0.50400000000E-02 0. -1.
         -1   -1    0    0    0  501 -0.00000000000E+00 -0.00000000000E+00 -0.52596160855E+03  0.52596160857E+03  0.50400000000E-02 0.  1.
    8880023    1    1    2    0    0 -0.29192463777E+03  0.28447657512E+03 -0.12538326656E+03  0.78465156963E+03  0.65864270000E+03 0.  1.
    8880022    1    1    2    0    0  0.29192463777E+03 -0.28447657512E+03  0.59697015064E+03  0.73885853159E+03  0.15294330000E+03 0.  0.
<mgrwt>
<rscale>  0 0.67066753E+03</rscale>
<asrwt>0</asrwt>
<pdfrwt beam="1">  1        1 0.15346900E+00 0.77456899E+03</pdfrwt>
<pdfrwt beam="2">  1       -1 0.80917171E-01 0.77456899E+03</pdfrwt>
<totfact> 0.23723865E+01</totfact>
</mgrwt>
</event>
<event>
 4    1  0.2514307E-008  0.6706842E+03  0.7818608E-02  0.1015177E+00
          1   -1    0    0  501    0  0.00000000000E+00  0.00000000000E+00  0.94563586522E+03  0.94563586523E+03  0.50400000000E-02 0. -1.
         -1   -1    0    0    0  501 -0.00000000000E+00 -0.00000000000E+00 -0.46359020673E+03  0.46359020676E+03  0.50400000000E-02 0.  1.
    8880023    1    1    2    0    0 -0.67506223773E+02  0.10700465541E+03 -0.19920915785E+03  0.69964389611E+03  0.65864270000E+03 0.  1.
    8880022    1    1    2    0    0  0.67506223773E+02 -0.10700465541E+03  0.68125481634E+03  0.70958217588E+03  0.15294330000E+03 0.  0.
<mgrwt>
<rscale>  0 0.49467942E+03</rscale>
<asrwt>0</asrwt>
<pdfrwt beam="1">  1        1 0.14548244E+00 0.67068420E+03</pdfrwt>
<pdfrwt beam="2">  1       -1 0.71321571E-01 0.67068420E+03</pdfrwt>
<totfact> 0.34334710E+01</totfact>
</mgrwt>
</event>
<event>
 4    1  0.2514307E-008  0.8803626E+03  0.7818608E-02  0.9558321E-01
         -1   -1    0    0    0  501 -0.00000000000E+00  0.00000000000E+00  0.13349147825E+04  0.13349147825E+04  0.50400000000E-02 0.  1.
          1   -1    0    0  501    0  0.00000000000E+00 -0.00000000000E+00 -0.52314835861E+03  0.52314835863E+03  0.50400000000E-02 0. -1.
    8880023    1    1    2    0    0 -0.54185981520E+03 -0.21821081163E+03  0.88680089867E+03  0.12495815531E+04  0.65864270000E+03 0.  0.
    8880022    1    1    2    0    0  0.54185981520E+03  0.21821081163E+03 -0.75034474741E+02  0.60848158810E+03  0.15294330000E+03 0.  0.
<mgrwt>
<rscale>  0 0.80117277E+03</rscale>
<asrwt>0</asrwt>
<pdfrwt beam="1">  1        1 0.80484362E-01 0.88036255E+03</pdfrwt>
<pdfrwt beam="2">  1       -1 0.20537151E+00 0.88036255E+03</pdfrwt>
<totfact> 0.58575198E+00</totfact>
</mgrwt>
</event>
<event>
 4    1  0.2514307E-008  0.9581770E+03  0.7818608E-02  0.9438445E-01
         -1   -1    0    0    0  501 -0.00000000000E+00  0.00000000000E+00  0.11695812770E+04  0.11695812770E+04  0.50400000000E-02 0.  1.
          1   -1    0    0  501    0  0.00000000000E+00 -0.00000000000E+00 -0.71777622343E+03  0.71777622344E+03  0.50400000000E-02 0. -1.
    8880023    1    1    2    0    0  0.68963269044E+03 -0.93272205873E+02  0.63770355018E+03  0.11509860887E+04  0.65864270000E+03 0.  1.
    8880022    1    1    2    0    0 -0.68963269044E+03  0.93272205873E+02 -0.18589849657E+03  0.73637141183E+03  0.15294330000E+03 0. -1.
<mgrwt>
<rscale>  0 0.88978187E+03</rscale>
<asrwt>0</asrwt>
<pdfrwt beam="1">  1        1 0.11042711E+00 0.95817700E+03</pdfrwt>
<pdfrwt beam="2">  1       -1 0.17993558E+00 0.95817700E+03</pdfrwt>
<totfact> 0.55046268E+00</totfact>
</mgrwt>
</event>
<event>
 4    1  0.2514307E-008  0.6985425E+03  0.7818608E-02  0.1000330E+00
          1   -1    0    0  501    0  0.00000000000E+00  0.00000000000E+00  0.19591668053E+04  0.19591668053E+04  0.50400000000E-02 0. -1.
         -1   -1    0    0    0  501 -0.00000000000E+00 -0.00000000000E+00 -0.16870438177E+03  0.16870438185E+03  0.50400000000E-02 0.  1.
    8880023    1    1    2    0    0  0.14990331904E+02 -0.23222118961E+03  0.65095368581E+03  0.95483103127E+03  0.65864270000E+03 0.  1.
    8880022    1    1    2    0    0 -0.14990331904E+02  0.23222118961E+03  0.11395087377E+04  0.11730401559E+04  0.15294330000E+03 0.  0.
<mgrwt>
<rscale>  0 0.55505686E+03</rscale>
<asrwt>0</asrwt>
<pdfrwt beam="1">  1        1 0.30141029E+00 0.69854248E+03</pdfrwt>
<pdfrwt beam="2">  1       -1 0.25954520E-01 0.69854248E+03</pdfrwt>
<totfact> 0.43406885E+01</totfact>
</mgrwt>
</event>
<event>
 4    1  0.2514307E-008  0.7179226E+03  0.7818608E-02  0.9929679E-01
         -1   -1    0    0    0  501 -0.00000000000E+00  0.00000000000E+00  0.52466811262E+03  0.52466811264E+03  0.50400000000E-02 0.  1.
          1   -1    0    0  501    0  0.00000000000E+00 -0.00000000000E+00 -0.13748994165E+04  0.13748994165E+04  0.50400000000E-02 0. -1.
    8880023    1    1    2    0    0  0.27813957290E+03 -0.65122908947E+02  0.24408915562E+03  0.75828249185E+03  0.65864270000E+03 0.  1.
    8880022    1    1    2    0    0 -0.27813957290E+03  0.65122908947E+02 -0.10943204595E+04  0.11412850373E+04  0.15294330000E+03 0.  0.
<mgrwt>
<rscale>  0 0.58844233E+03</rscale>
<asrwt>0</asrwt>
<pdfrwt beam="1">  1        1 0.21152299E+00 0.71792257E+03</pdfrwt>
<pdfrwt beam="2">  1       -1 0.80718172E-01 0.71792257E+03</pdfrwt>
<totfact> 0.12740431E+01</totfact>
</mgrwt>
</event>
<event>
 4    1  0.2514307E-008  0.1187042E+04  0.7818608E-02  0.9169822E-01
         -1   -1    0    0    0  501 -0.00000000000E+00  0.00000000000E+00  0.19034230583E+04  0.19034230583E+04  0.50400000000E-02 0.  1.
          1   -1    0    0  501    0  0.00000000000E+00 -0.00000000000E+00 -0.17969847140E+04  0.17969847140E+04  0.50400000000E-02 0. -1.
    8880023    1    1    2    0    0  0.98653578717E+03 -0.44785358335E+02  0.15452781327E+04  0.19485772505E+04  0.65864270000E+03 0.  0.
    8880022    1    1    2    0    0 -0.98653578717E+03  0.44785358335E+02 -0.14388397883E+04  0.17518305218E+04  0.15294330000E+03 0.  0.
<mgrwt>
<rscale>  0 0.11370413E+04</rscale>
<asrwt>0</asrwt>
<pdfrwt beam="1">  1        1 0.27645919E+00 0.11870420E+04</pdfrwt>
<pdfrwt beam="2">  1       -1 0.29283432E+00 0.11870420E+04</pdfrwt>
<totfact> 0.14839392E-01</totfact>
</mgrwt>
</event>
<event>
 4    1  0.2514307E-008  0.1732390E+04  0.7818608E-02  0.8760887E-01
         -1   -1    0    0    0  501 -0.00000000000E+00  0.00000000000E+00  0.13439144960E+04  0.13439144960E+04  0.50400000000E-02 0.  1.
          1   -1    0    0  501    0  0.00000000000E+00 -0.00000000000E+00 -0.25986872181E+04  0.25986872181E+04  0.50400000000E-02 0. -1.
    8880023    1    1    2    0    0  0.14028608749E+03 -0.15961471604E+04 -0.15280282500E+04  0.23099884162E+04  0.65864270000E+03 0.  0.
    8880022    1    1    2    0    0 -0.14028608749E+03  0.15961471604E+04  0.27325552787E+03  0.16326132979E+04  0.15294330000E+03 0.  0.
<mgrwt>
<rscale>  0 0.17008368E+04</rscale>
<asrwt>0</asrwt>
<pdfrwt beam="1">  1        1 0.39979803E+00 0.17323903E+04</pdfrwt>
<pdfrwt beam="2">  1       -1 0.20675608E+00 0.17323903E+04</pdfrwt>
<totfact> 0.14390585E-01</totfact>
</mgrwt>
</event>
<event>
 4    1  0.2514307E-008  0.6692898E+03  0.7818608E-02  0.1016177E+00
          1   -1    0    0  501    0  0.00000000000E+00  0.00000000000E+00  0.19515851109E+04  0.19515851109E+04  0.50400000000E-02 0. -1.
         -1   -1    0    0    0  501 -0.00000000000E+00 -0.00000000000E+00 -0.18391705922E+03  0.18391705929E+03  0.50400000000E-02 0.  1.
    8880023    1    1    2    0    0  0.10085759692E+03  0.62978794057E+02  0.45661544108E+03  0.81021383021E+03  0.65864270000E+03 0.  1.
    8880022    1    1    2    0    0 -0.10085759692E+03 -0.62978794057E+02  0.13110526106E+04  0.13252883400E+04  0.15294330000E+03 0.  0.
<mgrwt>
<rscale>  0 0.49091726E+03</rscale>
<asrwt>0</asrwt>
<pdfrwt beam="1">  1        1 0.30024387E+00 0.66928977E+03</pdfrwt>
<pdfrwt beam="2">  1       -1 0.28294931E-01 0.66928977E+03</pdfrwt>
<totfact> 0.38009608E+01</totfact>
</mgrwt>
</event>
<event>
 4    1  0.2514307E-008  0.8142787E+03  0.7818608E-02  0.9680733E-01
          1   -1    0    0  501    0  0.00000000000E+00  0.00000000000E+00  0.27412269084E+04  0.27412269084E+04  0.50400000000E-02 0. -1.
         -1   -1    0    0    0  501 -0.00000000000E+00 -0.00000000000E+00 -0.49375417744E+03  0.49375417746E+03  0.50400000000E-02 0.  1.
    8880023    1    1    2    0    0  0.53739214247E+02  0.47576427612E+03 -0.11255773100E+03  0.82202128844E+03  0.65864270000E+03 0.  1.
    8880022    1    1    2    0    0 -0.53739214247E+02 -0.47576427612E+03  0.23600304620E+04  0.24129597975E+04  0.15294330000E+03 0.  0.
<mgrwt>
<rscale>  0 0.72175644E+03</rscale>
<asrwt>0</asrwt>
<pdfrwt beam="1">  1        1 0.42172722E+00 0.81427867E+03</pdfrwt>
<pdfrwt beam="2">  1       -1 0.75962181E-01 0.81427867E+03</pdfrwt>
<totfact> 0.16871981E+00</totfact>
</mgrwt>
</event>
<event>
 4    1  0.2514307E-008  0.8806521E+03  0.7818608E-02  0.9557833E-01
          1   -1    0    0  501    0  0.00000000000E+00  0.00000000000E+00  0.21742627307E+04  0.21742627307E+04  0.50400000000E-02 0. -1.
         -1   -1    0    0    0  501 -0.00000000000E+00 -0.00000000000E+00 -0.32605041645E+03  0.32605041649E+03  0.50400000000E-02 0.  1.
    8880023    1    1    2    0    0 -0.57793634298E+03  0.87906347839E+02  0.47625851538E+03  0.10011844597E+04  0.65864270000E+03 0.  0.
    8880022    1    1    2    0    0  0.57793634298E+03 -0.87906347839E+02  0.13719537989E+04  0.14991286876E+04  0.15294330000E+03 0.  0.
<mgrwt>
<rscale>  0 0.80151041E+03</rscale>
<asrwt>0</asrwt>
<pdfrwt beam="1">  1        1 0.33450196E+00 0.88065212E+03</pdfrwt>
<pdfrwt beam="2">  1       -1 0.50161602E-01 0.88065212E+03</pdfrwt>
<totfact> 0.93098963E+00</totfact>
</mgrwt>
</event>
<event>
 4    1  0.2514307E-008  0.7723915E+03  0.7818608E-02  0.9774023E-01
         -1   -1    0    0    0  501 -0.00000000000E+00  0.00000000000E+00  0.13413327242E+04  0.13413327242E+04  0.50400000000E-02 0.  1.
          1   -1    0    0  501    0  0.00000000000E+00 -0.00000000000E+00 -0.68870465350E+03  0.68870465351E+03  0.50400000000E-02 0. -1.
    8880023    1    1    2    0    0  0.32374440826E+03  0.24076541156E+03  0.11413264990E+04  0.13781200270E+04  0.65864270000E+03 0.  1.
    8880022    1    1    2    0    0 -0.32374440826E+03 -0.24076541156E+03 -0.48869842831E+03  0.65191735069E+03  0.15294330000E+03 0.  0.
<mgrwt>
<rscale>  0 0.66775454E+03</rscale>
<asrwt>0</asrwt>
<pdfrwt beam="1">  1        1 0.10595456E+00 0.77239150E+03</pdfrwt>
<pdfrwt beam="2">  1       -1 0.20635888E+00 0.77239150E+03</pdfrwt>
<totfact> 0.39328945E+00</totfact>
</mgrwt>
</event>
<event>
 4    1  0.2514307E-008  0.9571234E+03  0.7818608E-02  0.9439938E-01
         -1   -1    0    0    0  501 -0.00000000000E+00  0.00000000000E+00  0.88513402583E+03  0.88513402584E+03  0.50400000000E-02 0.  1.
          1   -1    0    0  501    0  0.00000000000E+00 -0.00000000000E+00 -0.86717293713E+03  0.86717293714E+03  0.50400000000E-02 0. -1.
    8880023    1    1    2    0    0 -0.62054910639E+03  0.31175919148E+03  0.27553266590E+03  0.99599369634E+03  0.65864270000E+03 0.  0.
    8880022    1    1    2    0    0  0.62054910639E+03 -0.31175919148E+03 -0.25757157720E+03  0.75631326665E+03  0.15294330000E+03 0.  0.
<mgrwt>
<rscale>  0 0.88860548E+03</rscale>
<asrwt>0</asrwt>
<pdfrwt beam="1">  1        1 0.13341122E+00 0.95712339E+03</pdfrwt>
<pdfrwt beam="2">  1       -1 0.13617447E+00 0.95712339E+03</pdfrwt>
<totfact> 0.87860820E+00</totfact>
</mgrwt>
</event>
<event>
 4    1  0.2514307E-008  0.1055383E+04  0.7818608E-02  0.9312438E-01
          1   -1    0    0  501    0  0.00000000000E+00  0.00000000000E+00  0.17311685281E+04  0.17311685281E+04  0.50400000000E-02 0. -1.
         -1   -1    0    0    0  501 -0.00000000000E+00 -0.00000000000E+00 -0.64027367791E+03  0.64027367793E+03  0.50400000000E-02 0.  1.
    8880023    1    1    2    0    0 -0.72316593421E+03  0.39630115712E+03  0.80698562112E+02  0.10584640002E+04  0.65864270000E+03 0.  0.
    8880022    1    1    2    0    0  0.72316593421E+03 -0.39630115712E+03  0.10101962881E+04  0.13129782059E+04  0.15294330000E+03 0.  0.
<mgrwt>
<rscale>  0 0.99645827E+03</rscale>
<asrwt>0</asrwt>
<pdfrwt beam="1">  1        1 0.26633361E+00 0.10553832E+04</pdfrwt>
<pdfrwt beam="2">  1       -1 0.98503645E-01 0.10553832E+04</pdfrwt>
<totfact> 0.44815667E+00</totfact>
</mgrwt>
</event>
<event>
 4    1  0.2514307E-008  0.6842996E+03  0.7818608E-02  0.1006989E+00
          1   -1    0    0  501    0  0.00000000000E+00  0.00000000000E+00  0.78263283079E+03  0.78263283081E+03  0.50400000000E-02 0. -1.
         -1   -1    0    0    0  501 -0.00000000000E+00 -0.00000000000E+00 -0.10530250118E+04  0.10530250118E+04  0.50400000000E-02 0.  1.
    8880023    1    1    2    0    0  0.18298474425E+03 -0.31181020591E+02 -0.91791102726E+03  0.11449133299E+04  0.65864270000E+03 0.  1.
    8880022    1    1    2    0    0 -0.18298474425E+03  0.31181020591E+02  0.64751884624E+03  0.69074451277E+03  0.15294330000E+03 0.  0.
<mgrwt>
<rscale>  0 0.52689018E+03</rscale>
<asrwt>0</asrwt>
<pdfrwt beam="1">  1        1 0.12040505E+00 0.68429955E+03</pdfrwt>
<pdfrwt beam="2">  1       -1 0.16200385E+00 0.68429955E+03</pdfrwt>
<totfact> 0.67465113E+00</totfact>
</mgrwt>
</event>
<event>
 4    1  0.2514307E-008  0.7048034E+03  0.7818608E-02  0.9977830E-01
         -1   -1    0    0    0  501 -0.00000000000E+00  0.00000000000E+00  0.48676429679E+03  0.48676429681E+03  0.50400000000E-02 0.  1.
          1   -1    0    0  501    0  0.00000000000E+00 -0.00000000000E+00 -0.19457426495E+04  0.19457426495E+04  0.50400000000E-02 0. -1.
    8880023    1    1    2    0    0 -0.56855116275E+02 -0.24434617628E+03  0.21191843481E+03  0.73597363226E+03  0.65864270000E+03 0.  0.
    8880022    1    1    2    0    0  0.56855116275E+02  0.24434617628E+03 -0.16708967875E+04  0.16965333140E+04  0.15294330000E+03 0. -1.
<mgrwt>
<rscale>  0 0.56633147E+03</rscale>
<asrwt>0</asrwt>
<pdfrwt beam="1">  1        1 0.29934502E+00 0.70480335E+03</pdfrwt>
<pdfrwt beam="2">  1       -1 0.74886816E-01 0.70480335E+03</pdfrwt>
<totfact> 0.61446970E+00</totfact>
</mgrwt>
</event>
<event>
 4    1  0.2514307E-008  0.8304121E+03  0.7818608E-02  0.9648531E-01
         -1   -1    0    0    0  501 -0.00000000000E+00  0.00000000000E+00  0.52467914602E+03  0.52467914604E+03  0.50400000000E-02 0.  1.
          1   -1    0    0  501    0  0.00000000000E+00 -0.00000000000E+00 -0.26431069768E+04  0.26431069768E+04  0.50400000000E-02 0. -1.
    8880023    1    1    2    0    0 -0.27337493803E+03 -0.42548815209E+03  0.14546336723E+03  0.84305623880E+03  0.65864270000E+03 0.  0.
    8880022    1    1    2    0    0  0.27337493803E+03  0.42548815209E+03 -0.22638911980E+04  0.23247298841E+04  0.15294330000E+03 0.  0.
<mgrwt>
<rscale>  0 0.74165683E+03</rscale>
<asrwt>0</asrwt>
<pdfrwt beam="1">  1        1 0.40663184E+00 0.83041208E+03</pdfrwt>
<pdfrwt beam="2">  1       -1 0.80719870E-01 0.83041208E+03</pdfrwt>
<totfact> 0.17309351E+00</totfact>
</mgrwt>
</event>
<event>
 4    1  0.2514307E-008  0.8708040E+03  0.7818608E-02  0.9574627E-01
          1   -1    0    0  501    0  0.00000000000E+00  0.00000000000E+00  0.15038249152E+04  0.15038249152E+04  0.50400000000E-02 0. -1.
         -1   -1    0    0    0  501 -0.00000000000E+00 -0.00000000000E+00 -0.10456227085E+04  0.10456227085E+04  0.50400000000E-02 0.  1.
    8880023    1    1    2    0    0 -0.56960521265E+03 -0.62644621814E+01 -0.78565204562E+03  0.11728378766E+04  0.65864270000E+03 0.  1.
    8880022    1    1    2    0    0  0.56960521265E+03  0.62644621814E+01  0.12438542523E+04  0.13766097471E+04  0.15294330000E+03 0.  0.
<mgrwt>
<rscale>  0 0.78998553E+03</rscale>
<asrwt>0</asrwt>
<pdfrwt beam="1">  1        1 0.23135768E+00 0.87080397E+03</pdfrwt>
<pdfrwt beam="2">  1       -1 0.16086503E+00 0.87080397E+03</pdfrwt>
<totfact> 0.19192654E+00</totfact>
</mgrwt>
</event>
<event>
 4    1  0.2514307E-008  0.8026908E+03  0.7818608E-02  0.9705008E-01
         -1   -1    0    0    0  501 -0.00000000000E+00  0.00000000000E+00  0.32572212820E+03  0.32572212824E+03  0.50400000000E-02 0.  1.
          1   -1    0    0  501    0  0.00000000000E+00 -0.00000000000E+00 -0.18902174105E+04  0.18902174105E+04  0.50400000000E-02 0. -1.
    8880023    1    1    2    0    0  0.14489821811E+03  0.43532382958E+03 -0.29117957044E+03  0.85387240189E+03  0.65864270000E+03 0.  1.
    8880022    1    1    2    0    0 -0.14489821811E+03 -0.43532382958E+03 -0.12733157119E+04  0.13620671369E+04  0.15294330000E+03 0.  0.
<mgrwt>
<rscale>  0 0.70719405E+03</rscale>
<asrwt>0</asrwt>
<pdfrwt beam="1">  1        1 0.29080267E+00 0.80269081E+03</pdfrwt>
<pdfrwt beam="2">  1       -1 0.50111098E-01 0.80269081E+03</pdfrwt>
<totfact> 0.14620926E+01</totfact>
</mgrwt>
</event>
<event>
 4    1  0.2514307E-008  0.1321333E+04  0.7818608E-02  0.9047353E-01
         -1   -1    0    0    0  501 -0.00000000000E+00  0.00000000000E+00  0.24981459095E+04  0.24981459095E+04  0.50400000000E-02 0.  1.
          1   -1    0    0  501    0  0.00000000000E+00 -0.00000000000E+00 -0.15381111669E+04  0.15381111669E+04  0.50400000000E-02 0. -1.
    8880023    1    1    2    0    0  0.91056256057E+03 -0.69497278234E+03  0.20557312276E+04  0.24437578503E+04  0.65864270000E+03 0.  0.
    8880022    1    1    2    0    0 -0.91056256057E+03  0.69497278234E+03 -0.10956964850E+04  0.15924992261E+04  0.15294330000E+03 0.  0.
<mgrwt>
<rscale>  0 0.12778059E+04</rscale>
<asrwt>0</asrwt>
<pdfrwt beam="1">  1        1 0.23663249E+00 0.13213332E+04</pdfrwt>
<pdfrwt beam="2">  1       -1 0.38433014E+00 0.13213332E+04</pdfrwt>
<totfact> 0.54668468E-02</totfact>
</mgrwt>
</event>
<event>
 4    1  0.2514307E-008  0.1383475E+04  0.7818608E-02  0.8996631E-01
          1   -1    0    0  501    0  0.00000000000E+00  0.00000000000E+00  0.32109118512E+04  0.32109118512E+04  0.50400000000E-02 0. -1.
         -1   -1    0    0    0  501 -0.00000000000E+00 -0.00000000000E+00 -0.84892837918E+03  0.84892837919E+03  0.50400000000E-02 0.  1.
    8880023    1    1    2    0    0  0.10711100365E+04 -0.57698853761E+03 -0.16839538590E+02  0.13835773413E+04  0.65864270000E+03 0.  1.
    8880022    1    1    2    0    0 -0.10711100365E+04  0.57698853761E+03  0.23788230106E+04  0.26762628891E+04  0.15294330000E+03 0.  0.
<mgrwt>
<rscale>  0 0.13423613E+04</rscale>
<asrwt>0</asrwt>
<pdfrwt beam="1">  1        1 0.49398644E+00 0.13834749E+04</pdfrwt>
<pdfrwt beam="2">  1       -1 0.13060437E+00 0.13834749E+04</pdfrwt>
<totfact> 0.20292152E-01</totfact>
</mgrwt>
</event>
<event>
 4    1  0.2514307E-008  0.8341485E+03  0.7818608E-02  0.9641314E-01
          1   -1    0    0  501    0  0.00000000000E+00  0.00000000000E+00  0.40914578907E+04  0.40914578907E+04  0.50400000000E-02 0. -1.
         -1   -1    0    0    0  501 -0.00000000000E+00 -0.00000000000E+00 -0.38263007293E+03  0.38263007296E+03  0.50400000000E-02 0.  1.
    8880023    1    1    2    0    0  0.39814551629E+03  0.32167324195E+03  0.11648676121E+03  0.84224277885E+03  0.65864270000E+03 0.  0.
    8880022    1    1    2    0    0 -0.39814551629E+03 -0.32167324195E+03  0.35923410566E+04  0.36318451848E+04  0.15294330000E+03 0.  0.
<mgrwt>
<rscale>  0 0.74621068E+03</rscale>
<asrwt>0</asrwt>
<pdfrwt beam="1">  1        1 0.62945505E+00 0.83414851E+03</pdfrwt>
<pdfrwt beam="2">  1       -1 0.58866166E-01 0.83414851E+03</pdfrwt>
<totfact> 0.25487842E-01</totfact>
</mgrwt>
</event>
<event>
 4    1  0.2514307E-008  0.7949275E+03  0.7818608E-02  0.9721873E-01
         -1   -1    0    0    0  501 -0.00000000000E+00  0.00000000000E+00  0.16772643105E+04  0.16772643105E+04  0.50400000000E-02 0.  1.
          1   -1    0    0  501    0  0.00000000000E+00 -0.00000000000E+00 -0.13217712925E+04  0.13217712925E+04  0.50400000000E-02 0. -1.
    8880023    1    1    2    0    0 -0.26392962264E+03  0.35838622434E+03  0.15352648318E+04  0.17288573803E+04  0.65864270000E+03 0.  1.
    8880022    1    1    2    0    0  0.26392962264E+03 -0.35838622434E+03 -0.11797718138E+04  0.12701782226E+04  0.15294330000E+03 0.  0.
<mgrwt>
<rscale>  0 0.69729283E+03</rscale>
<asrwt>0</asrwt>
<pdfrwt beam="1">  1        1 0.20334943E+00 0.79492750E+03</pdfrwt>
<pdfrwt beam="2">  1       -1 0.25804066E+00 0.79492750E+03</pdfrwt>
<totfact> 0.56583496E-01</totfact>
</mgrwt>
</event>
<event>
 4    1  0.2514307E-008  0.1076657E+04  0.7818608E-02  0.9287501E-01
          1   -1    0    0  501    0  0.00000000000E+00  0.00000000000E+00  0.13389801124E+04  0.13389801124E+04  0.50400000000E-02 0. -1.
         -1   -1    0    0    0  501 -0.00000000000E+00 -0.00000000000E+00 -0.85828154653E+03  0.85828154654E+03  0.50400000000E-02 0.  1.
    8880023    1    1    2    0    0  0.75107060547E+03 -0.40158905886E+03 -0.20152275379E+03  0.10953549439E+04  0.65864270000E+03 0.  1.
    8880022    1    1    2    0    0 -0.75107060547E+03  0.40158905886E+03  0.68222131963E+03  0.11019067150E+04  0.15294330000E+03 0.  0.
<mgrwt>
<rscale>  0 0.10194170E+04</rscale>
<asrwt>0</asrwt>
<pdfrwt beam="1">  1        1 0.20599694E+00 0.10766573E+04</pdfrwt>
<pdfrwt beam="2">  1       -1 0.13204332E+00 0.10766573E+04</pdfrwt>
<totfact> 0.41157424E+00</totfact>
</mgrwt>
</event>
<event>
 4    1  0.2514307E-008  0.1141691E+04  0.7818608E-02  0.9215998E-01
         -1   -1    0    0    0  501 -0.00000000000E+00  0.00000000000E+00  0.71597687514E+03  0.71597687516E+03  0.50400000000E-02 0.  1.
          1   -1    0    0  501    0  0.00000000000E+00 -0.00000000000E+00 -0.16192597303E+04  0.16192597303E+04  0.50400000000E-02 0. -1.
    8880023    1    1    2    0    0 -0.74655165074E+03 -0.55884670314E+03 -0.20432944364E+03  0.11598317691E+04  0.65864270000E+03 0.  0.
    8880022    1    1    2    0    0  0.74655165074E+03  0.55884670314E+03 -0.69895341151E+03  0.11754048363E+04  0.15294330000E+03 0.  0.
<mgrwt>
<rscale>  0 0.10889814E+04</rscale>
<asrwt>0</asrwt>
<pdfrwt beam="1">  1        1 0.24911688E+00 0.11416914E+04</pdfrwt>
<pdfrwt beam="2">  1       -1 0.11015029E+00 0.11416914E+04</pdfrwt>
<totfact> 0.40761350E+00</totfact>
</mgrwt>
</event>
<event>
 4    1  0.2514307E-008  0.1003981E+04  0.7818608E-02  0.9376367E-01
         -1   -1    0    0    0  501 -0.00000000000E+00  0.00000000000E+00  0.66450864607E+03  0.66450864609E+03  0.50400000000E-02 0.  1.
          1   -1    0    0  501    0  0.00000000000E+00 -0.00000000000E+00 -0.27702251373E+04  0.27702251373E+04  0.50400000000E-02 0. -1.
    8880023    1    1    2    0    0  0.75496955761E+03 -0.64723153547E+02  0.18164501572E+03  0.10202809601E+04  0.65864270000E+03 0.  1.
    8880022    1    1    2    0    0 -0.75496955761E+03  0.64723153547E+02 -0.22873615070E+04  0.24144528233E+04  0.15294330000E+03 0.  0.
<mgrwt>
<rscale>  0 0.94046333E+03</rscale>
<asrwt>0</asrwt>
<pdfrwt beam="1">  1        1 0.42618848E+00 0.10039812E+04</pdfrwt>
<pdfrwt beam="2">  1       -1 0.10223210E+00 0.10039812E+04</pdfrwt>
<totfact> 0.81074176E-01</totfact>
</mgrwt>
</event>
<event>
 4    1  0.2514307E-008  0.9386440E+03  0.7818608E-02  0.9466645E-01
          1   -1    0    0  501    0  0.00000000000E+00  0.00000000000E+00  0.24545164766E+04  0.24545164766E+04  0.50400000000E-02 0. -1.
         -1   -1    0    0    0  501 -0.00000000000E+00 -0.00000000000E+00 -0.38206847870E+03  0.38206847874E+03  0.50400000000E-02 0.  1.
    8880023    1    1    2    0    0 -0.73550177949E+02 -0.66470496449E+03  0.38411838893E+03  0.10141989260E+04  0.65864270000E+03 0.  0.
    8880022    1    1    2    0    0  0.73550177949E+02  0.66470496449E+03  0.16883296090E+04  0.18223860294E+04  0.15294330000E+03 0.  0.
<mgrwt>
<rscale>  0 0.86788281E+03</rscale>
<asrwt>0</asrwt>
<pdfrwt beam="1">  1        1 0.37761792E+00 0.93864398E+03</pdfrwt>
<pdfrwt beam="2">  1       -1 0.58779767E-01 0.93864398E+03</pdfrwt>
<totfact> 0.43874576E+00</totfact>
</mgrwt>
</event>
<event>
 4    1  0.2514307E-008  0.1071257E+04  0.7818608E-02  0.9293753E-01
          1   -1    0    0  501    0  0.00000000000E+00  0.00000000000E+00  0.10268238662E+04  0.10268238662E+04  0.50400000000E-02 0. -1.
         -1   -1    0    0    0  501 -0.00000000000E+00 -0.00000000000E+00 -0.98107599957E+03  0.98107599959E+03  0.50400000000E-02 0.  1.
    8880023    1    1    2    0    0  0.67223308060E+03  0.51174682778E+03 -0.24956684378E+03  0.10999436105E+04  0.65864270000E+03 0.  0.
    8880022    1    1    2    0    0 -0.67223308060E+03 -0.51174682778E+03  0.29531471038E+03  0.90795625532E+03  0.15294330000E+03 0.  0.
<mgrwt>
<rscale>  0 0.10136000E+04</rscale>
<asrwt>0</asrwt>
<pdfrwt beam="1">  1        1 0.15797290E+00 0.10712574E+04</pdfrwt>
<pdfrwt beam="2">  1       -1 0.15093477E+00 0.10712574E+04</pdfrwt>
<totfact> 0.49218375E+00</totfact>
</mgrwt>
</event>
<event>
 4    1  0.2514307E-008  0.9864506E+03  0.7818608E-02  0.9399503E-01
          1   -1    0    0  501    0  0.00000000000E+00  0.00000000000E+00  0.46691378757E+03  0.46691378760E+03  0.50400000000E-02 0. -1.
         -1   -1    0    0    0  501 -0.00000000000E+00 -0.00000000000E+00 -0.18811041424E+04  0.18811041424E+04  0.50400000000E-02 0.  1.
    8880023    1    1    2    0    0 -0.56438094359E+03 -0.46983896211E+03 -0.12280071758E+04  0.15751464472E+04  0.65864270000E+03 0.  0.
    8880022    1    1    2    0    0  0.56438094359E+03  0.46983896211E+03 -0.18618317896E+03  0.77287148281E+03  0.15294330000E+03 0.  0.
<mgrwt>
<rscale>  0 0.92116588E+03</rscale>
<asrwt>0</asrwt>
<pdfrwt beam="1">  1        1 0.71832892E-01 0.98645056E+03</pdfrwt>
<pdfrwt beam="2">  1       -1 0.28940063E+00 0.98645056E+03</pdfrwt>
<totfact> 0.19117489E+00</totfact>
</mgrwt>
</event>
<event>
 4    1  0.2854659E-008  0.1256118E+04  0.7818608E-02  0.9104412E-01
         -1   -1    0    0    0  501 -0.00000000000E+00  0.00000000000E+00  0.20851714256E+04  0.20851714256E+04  0.50400000000E-02 0.  1.
          1   -1    0    0  501    0  0.00000000000E+00 -0.00000000000E+00 -0.22658852492E+04  0.22658852492E+04  0.50400000000E-02 0. -1.
    8880023    1    1    2    0    0 -0.66115785730E+03  0.84076958077E+03  0.17407546694E+04  0.21466392863E+04  0.65864270000E+03 0.  1.
    8880022    1    1    2    0    0  0.66115785730E+03 -0.84076958077E+03 -0.19214684930E+04  0.22044173885E+04  0.15294330000E+03 0.  0.
<mgrwt>
<rscale>  0 0.12096955E+04</rscale>
<asrwt>0</asrwt>
<pdfrwt beam="1">  1        1 0.34859773E+00 0.12561184E+04</pdfrwt>
<pdfrwt beam="2">  1       -1 0.32079561E+00 0.12561184E+04</pdfrwt>
<totfact> 0.46530889E-02</totfact>
</mgrwt>
</event>
<event>
 4    1  0.2514307E-008  0.6974796E+03  0.7818608E-02  0.1000782E+00
          1   -1    0    0  501    0  0.00000000000E+00  0.00000000000E+00  0.25317011510E+04  0.25317011510E+04  0.50400000000E-02 0. -1.
         -1   -1    0    0    0  501 -0.00000000000E+00 -0.00000000000E+00 -0.16091535337E+03  0.16091535345E+03  0.50400000000E-02 0.  1.
    8880023    1    1    2    0    0  0.22909392801E+03 -0.13549640597E+02  0.66168603016E+03  0.96140846126E+03  0.65864270000E+03 0.  1.
    8880022    1    1    2    0    0 -0.22909392801E+03  0.13549640597E+02  0.17090997675E+04  0.17312080432E+04  0.15294330000E+03 0.  0.
<mgrwt>
<rscale>  0 0.55308600E+03</rscale>
<asrwt>0</asrwt>
<pdfrwt beam="1">  1        1 0.38949247E+00 0.69747962E+03</pdfrwt>
<pdfrwt beam="2">  1       -1 0.24756209E-01 0.69747962E+03</pdfrwt>
<totfact> 0.19387656E+01</totfact>
</mgrwt>
</event>
<event>
 4    1  0.2514307E-008  0.8070233E+03  0.7818608E-02  0.9695811E-01
         -1   -1    0    0    0  501 -0.00000000000E+00  0.00000000000E+00  0.11238163530E+04  0.11238163530E+04  0.50400000000E-02 0.  1.
          1   -1    0    0  501    0  0.00000000000E+00 -0.00000000000E+00 -0.87175021072E+03  0.87175021073E+03  0.50400000000E-02 0. -1.
    8880023    1    1    2    0    0 -0.11436717248E+03 -0.45210230797E+03  0.88299474505E+03  0.11962300251E+04  0.65864270000E+03 0.  0.
    8880022    1    1    2    0    0  0.11436717248E+03  0.45210230797E+03 -0.63092860281E+03  0.79933653856E+03  0.15294330000E+03 0.  0.
<mgrwt>
<rscale>  0 0.71266746E+03</rscale>
<asrwt>0</asrwt>
<pdfrwt beam="1">  1        1 0.13411542E+00 0.80702327E+03</pdfrwt>
<pdfrwt beam="2">  1       -1 0.17289482E+00 0.80702327E+03</pdfrwt>
<totfact> 0.46250004E+00</totfact>
</mgrwt>
</event>
<event>
 4    1  0.5574462E-008  0.1723514E+04  0.7818608E-02  0.8766069E-01
          1   -1    0    0  501    0  0.00000000000E+00  0.00000000000E+00  0.22846070249E+04  0.22846070249E+04  0.50400000000E-02 0. -1.
         -1   -1    0    0    0  501 -0.00000000000E+00 -0.00000000000E+00 -0.34826223216E+04  0.34826223217E+04  0.50400000000E-02 0.  1.
    8880023    1    1    2    0    0  0.15067481116E+04  0.51614045504E+03 -0.29362427070E+04  0.34047059024E+04  0.65864270000E+03 0.  1.
    8880022    1    1    2    0    0 -0.15067481116E+04 -0.51614045504E+03  0.17382274103E+04  0.23625234441E+04  0.15294330000E+03 0.  0.
<mgrwt>
<rscale>  0 0.16917761E+04</rscale>
<asrwt>0</asrwt>
<pdfrwt beam="1">  1        1 0.35147800E+00 0.17235142E+04</pdfrwt>
<pdfrwt beam="2">  1       -1 0.53578805E+00 0.17235142E+04</pdfrwt>
<totfact> 0.15411777E-03</totfact>
</mgrwt>
</event>
<event>
 4    1  0.2514307E-008  0.1055660E+04  0.7818608E-02  0.9312108E-01
          1   -1    0    0  501    0  0.00000000000E+00  0.00000000000E+00  0.87539126690E+03  0.87539126692E+03  0.50400000000E-02 0. -1.
         -1   -1    0    0    0  501 -0.00000000000E+00 -0.00000000000E+00 -0.11052349336E+04  0.11052349336E+04  0.50400000000E-02 0.  1.
    8880023    1    1    2    0    0 -0.41077543267E+03  0.71545238153E+03 -0.39192832725E+03  0.11260668658E+04  0.65864270000E+03 0.  0.
    8880022    1    1    2    0    0  0.41077543267E+03 -0.71545238153E+03  0.16208466056E+03  0.85455933471E+03  0.15294330000E+03 0.  0.
<mgrwt>
<rscale>  0 0.99675806E+03</rscale>
<asrwt>0</asrwt>
<pdfrwt beam="1">  1        1 0.13467558E+00 0.10556603E+04</pdfrwt>
<pdfrwt beam="2">  1       -1 0.17003614E+00 0.10556603E+04</pdfrwt>
<totfact> 0.46737007E+00</totfact>
</mgrwt>
</event>
<event>
 4    1  0.2514307E-008  0.7600742E+03  0.7818608E-02  0.9804915E-01
          1   -1    0    0  501    0  0.00000000000E+00  0.00000000000E+00  0.43716309674E+03  0.43716309677E+03  0.50400000000E-02 0. -1.
         -1   -1    0    0    0  501 -0.00000000000E+00 -0.00000000000E+00 -0.15226218035E+04  0.15226218035E+04  0.50400000000E-02 0.  1.
    8880023    1    1    2    0    0  0.30602884034E+03 -0.22416288837E+03 -0.12939672170E+04  0.15006878478E+04  0.65864270000E+03 0.  0.
    8880022    1    1    2    0    0 -0.30602884034E+03  0.22416288837E+03  0.20850851030E+03  0.45909705240E+03  0.15294330000E+03 0. -1.
<mgrwt>
<rscale>  0 0.65099426E+03</rscale>
<asrwt>0</asrwt>
<pdfrwt beam="1">  1        1 0.67255862E-01 0.76007424E+03</pdfrwt>
<pdfrwt beam="2">  1       -1 0.23424951E+00 0.76007424E+03</pdfrwt>
<totfact> 0.48851292E+00</totfact>
</mgrwt>
</event>
<event>
 4    1  0.2514307E-008  0.1153804E+04  0.7818608E-02  0.9203391E-01
         -1   -1    0    0    0  501 -0.00000000000E+00  0.00000000000E+00  0.89275972060E+03  0.89275972061E+03  0.50400000000E-02 0.  1.
          1   -1    0    0  501    0  0.00000000000E+00 -0.00000000000E+00 -0.23075437325E+04  0.23075437325E+04  0.50400000000E-02 0. -1.
    8880023    1    1    2    0    0 -0.18873248968E+03  0.92835029803E+03  0.33777273734E+03  0.12022291200E+04  0.65864270000E+03 0.  0.
    8880022    1    1    2    0    0  0.18873248968E+03 -0.92835029803E+03 -0.17525567492E+04  0.19980743331E+04  0.15294330000E+03 0.  0.
<mgrwt>
<rscale>  0 0.11018500E+04</rscale>
<asrwt>0</asrwt>
<pdfrwt beam="1">  1        1 0.35500672E+00 0.11538043E+04</pdfrwt>
<pdfrwt beam="2">  1       -1 0.13734765E+00 0.11538043E+04</pdfrwt>
<totfact> 0.80386513E-01</totfact>
</mgrwt>
</event>
<event>
 4    1  0.2514307E-008  0.8345728E+03  0.7818608E-02  0.9640500E-01
          1   -1    0    0  501    0  0.00000000000E+00  0.00000000000E+00  0.21296119334E+04  0.21296119334E+04  0.50400000000E-02 0. -1.
         -1   -1    0    0    0  501 -0.00000000000E+00 -0.00000000000E+00 -0.49811327745E+03  0.49811327748E+03  0.50400000000E-02 0.  1.
    8880023    1    1    2    0    0 -0.47861781743E+03  0.18337524543E+03 -0.76368425195E+02  0.83805956735E+03  0.65864270000E+03 0.  1.
    8880022    1    1    2    0    0  0.47861781743E+03 -0.18337524543E+03  0.17078670812E+04  0.17896656436E+04  0.15294330000E+03 0.  0.
<mgrwt>
<rscale>  0 0.74672654E+03</rscale>
<asrwt>0</asrwt>
<pdfrwt beam="1">  1        1 0.32763260E+00 0.83457277E+03</pdfrwt>
<pdfrwt beam="2">  1       -1 0.76632814E-01 0.83457277E+03</pdfrwt>
<totfact> 0.43146899E+00</totfact>
</mgrwt>
</event>
<event>
 4    1  0.2514307E-008  0.1618158E+04  0.7818608E-02  0.8830414E-01
         -1   -1    0    0    0  501 -0.00000000000E+00  0.00000000000E+00  0.19001956599E+04  0.19001956599E+04  0.50400000000E-02 0.  1.
          1   -1    0    0  501    0  0.00000000000E+00 -0.00000000000E+00 -0.17501109492E+04  0.17501109492E+04  0.50400000000E-02 0. -1.
    8880023    1    1    2    0    0  0.33256176091E+03 -0.14401484862E+04  0.10349814318E+04  0.19208388161E+04  0.65864270000E+03 0.  0.
    8880022    1    1    2    0    0 -0.33256176091E+03  0.14401484862E+04 -0.88489672107E+03  0.17294677930E+04  0.15294330000E+03 0.  0.
<mgrwt>
<rscale>  0 0.15840394E+04</rscale>
<asrwt>0</asrwt>
<pdfrwt beam="1">  1        1 0.26924784E+00 0.16181580E+04</pdfrwt>
<pdfrwt beam="2">  1       -1 0.29233780E+00 0.16181580E+04</pdfrwt>
<totfact> 0.15186874E-01</totfact>
</mgrwt>
</event>
<event>
 4    1  0.2514307E-008  0.8318451E+03  0.7818608E-02  0.9645753E-01
          1   -1    0    0  501    0  0.00000000000E+00  0.00000000000E+00  0.28088213952E+04  0.28088213952E+04  0.50400000000E-02 0. -1.
         -1   -1    0    0    0  501 -0.00000000000E+00 -0.00000000000E+00 -0.46869673826E+03  0.46869673828E+03  0.50400000000E-02 0.  1.
    8880023    1    1    2    0    0  0.48249437499E+03 -0.15923310721E+03 -0.45992746570E+02  0.83311556421E+03  0.65864270000E+03 0.  1.
    8880022    1    1    2    0    0 -0.48249437499E+03  0.15923310721E+03  0.23861174035E+04  0.24444025693E+04  0.15294330000E+03 0.  0.
<mgrwt>
<rscale>  0 0.74340559E+03</rscale>
<asrwt>0</asrwt>
<pdfrwt beam="1">  1        1 0.43212637E+00 0.83184506E+03</pdfrwt>
<pdfrwt beam="2">  1       -1 0.72107190E-01 0.83184506E+03</pdfrwt>
<totfact> 0.16803599E+00</totfact>
</mgrwt>
</event>
<event>
 4    1  0.2514307E-008  0.1257537E+04  0.7818608E-02  0.9103125E-01
         -1   -1    0    0    0  501 -0.00000000000E+00  0.00000000000E+00  0.10026145431E+04  0.10026145431E+04  0.50400000000E-02 0.  1.
          1   -1    0    0  501    0  0.00000000000E+00 -0.00000000000E+00 -0.16677478117E+04  0.16677478117E+04  0.50400000000E-02 0. -1.
    8880023    1    1    2    0    0 -0.49943782675E+03 -0.94770813293E+03  0.21465668735E+03  0.12757258905E+04  0.65864270000E+03 0.  0.
    8880022    1    1    2    0    0  0.49943782675E+03  0.94770813293E+03 -0.87978995592E+03  0.13946364643E+04  0.15294330000E+03 0.  0.
<mgrwt>
<rscale>  0 0.12111816E+04</rscale>
<asrwt>0</asrwt>
<pdfrwt beam="1">  1        1 0.25657659E+00 0.12575369E+04</pdfrwt>
<pdfrwt beam="2">  1       -1 0.15424839E+00 0.12575369E+04</pdfrwt>
<totfact> 0.15803847E+00</totfact>
</mgrwt>
</event>
<event>
 4    1  0.2514307E-008  0.6749677E+03  0.7818608E-02  0.1012327E+00
          1   -1    0    0  501    0  0.00000000000E+00  0.00000000000E+00  0.23925305123E+04  0.23925305123E+04  0.50400000000E-02 0. -1.
         -1   -1    0    0    0  501 -0.00000000000E+00 -0.00000000000E+00 -0.22115575868E+03  0.22115575874E+03  0.50400000000E-02 0.  1.
    8880023    1    1    2    0    0  0.14487418683E+03  0.27976756706E+02  0.31441578705E+03  0.74460642109E+03  0.65864270000E+03 0.  1.
    8880022    1    1    2    0    0 -0.14487418683E+03 -0.27976756706E+02  0.18569589665E+04  0.18690798499E+04  0.15294330000E+03 0.  0.
<mgrwt>
<rscale>  0 0.50560337E+03</rscale>
<asrwt>0</asrwt>
<pdfrwt beam="1">  1        1 0.36808163E+00 0.67496773E+03</pdfrwt>
<pdfrwt beam="2">  1       -1 0.34023962E-01 0.67496773E+03</pdfrwt>
<totfact> 0.13939276E+01</totfact>
</mgrwt>
</event>
<event>
 4    1  0.2514307E-008  0.6827109E+03  0.7818608E-02  0.1007830E+00
         -1   -1    0    0    0  501 -0.00000000000E+00  0.00000000000E+00  0.63278595505E+03  0.63278595507E+03  0.50400000000E-02 0.  1.
          1   -1    0    0  501    0  0.00000000000E+00 -0.00000000000E+00 -0.13896379278E+04  0.13896379278E+04  0.50400000000E-02 0. -1.
    8880023    1    1    2    0    0 -0.62667635609E+02 -0.16839471886E+03  0.43363062860E+03  0.80878287706E+03  0.65864270000E+03 0.  1.
    8880022    1    1    2    0    0  0.62667635609E+02  0.16839471886E+03 -0.11904826013E+04  0.12136410058E+04  0.15294330000E+03 0.  0.
<mgrwt>
<rscale>  0 0.52346280E+03</rscale>
<asrwt>0</asrwt>
<pdfrwt beam="1">  1        1 0.21379045E+00 0.68271093E+03</pdfrwt>
<pdfrwt beam="2">  1       -1 0.97351686E-01 0.68271093E+03</pdfrwt>
<totfact> 0.83053523E+00</totfact>
</mgrwt>
</event>
<event>
 4    1  0.2514307E-008  0.9167860E+03  0.7818608E-02  0.9499605E-01
          1   -1    0    0  501    0  0.00000000000E+00  0.00000000000E+00  0.73518030209E+03  0.73518030211E+03  0.50400000000E-02 0. -1.
         -1   -1    0    0    0  501 -0.00000000000E+00 -0.00000000000E+00 -0.96768386597E+03  0.96768386598E+03  0.50400000000E-02 0.  1.
    8880023    1    1    2    0    0  0.10155994948E+02  0.63763884489E+03 -0.43741965243E+03  0.10157916122E+04  0.65864270000E+03 0.  0.
    8880022    1    1    2    0    0 -0.10155994948E+02 -0.63763884489E+03  0.20491608855E+03  0.68707255593E+03  0.15294330000E+03 0.  0.
<mgrwt>
<rscale>  0 0.84312974E+03</rscale>
<asrwt>0</asrwt>
<pdfrwt beam="1">  1        1 0.11310466E+00 0.91678604E+03</pdfrwt>
<pdfrwt beam="2">  1       -1 0.14887444E+00 0.91678604E+03</pdfrwt>
<totfact> 0.90949898E+00</totfact>
</mgrwt>
</event>
<event>
 4    1  0.2514307E-008  0.8038646E+03  0.7818608E-02  0.9702501E-01
         -1   -1    0    0    0  501 -0.00000000000E+00  0.00000000000E+00  0.65593841906E+03  0.65593841908E+03  0.50400000000E-02 0.  1.
          1   -1    0    0  501    0  0.00000000000E+00 -0.00000000000E+00 -0.14301701934E+04  0.14301701934E+04  0.50400000000E-02 0. -1.
    8880023    1    1    2    0    0  0.43452536027E+03 -0.15354427683E+03  0.33835978098E+03  0.87217296525E+03  0.65864270000E+03 0.  0.
    8880022    1    1    2    0    0 -0.43452536027E+03  0.15354427683E+03 -0.11125915553E+04  0.12139356472E+04  0.15294330000E+03 0.  0.
<mgrwt>
<rscale>  0 0.70868055E+03</rscale>
<asrwt>0</asrwt>
<pdfrwt beam="1">  1        1 0.22002618E+00 0.80386463E+03</pdfrwt>
<pdfrwt beam="2">  1       -1 0.10091360E+00 0.80386463E+03</pdfrwt>
<totfact> 0.70406337E+00</totfact>
</mgrwt>
</event>
<event>
 4    1  0.2514307E-008  0.9294596E+03  0.7818608E-02  0.9480304E-01
          1   -1    0    0  501    0  0.00000000000E+00  0.00000000000E+00  0.11929584165E+04  0.11929584165E+04  0.50400000000E-02 0. -1.
         -1   -1    0    0    0  501 -0.00000000000E+00 -0.00000000000E+00 -0.72410559296E+03  0.72410559298E+03  0.50400000000E-02 0.  1.
    8880023    1    1    2    0    0 -0.55879024594E+03 -0.34327608251E+03 -0.21851491813E+03  0.95480049408E+03  0.65864270000E+03 0.  0.
    8880022    1    1    2    0    0  0.55879024594E+03  0.34327608251E+03  0.68736774164E+03  0.96226351539E+03  0.15294330000E+03 0.  0.
<mgrwt>
<rscale>  0 0.85751607E+03</rscale>
<asrwt>0</asrwt>
<pdfrwt beam="1">  1        1 0.18353206E+00 0.92945964E+03</pdfrwt>
<pdfrwt beam="2">  1       -1 0.11140086E+00 0.92945964E+03</pdfrwt>
<totfact> 0.80997703E+00</totfact>
</mgrwt>
</event>
<event>
 4    1  0.2514307E-008  0.9063921E+03  0.7818608E-02  0.9515847E-01
          1   -1    0    0  501    0  0.00000000000E+00  0.00000000000E+00  0.16672297731E+04  0.16672297731E+04  0.50400000000E-02 0. -1.
         -1   -1    0    0    0  501 -0.00000000000E+00 -0.00000000000E+00 -0.66554201742E+03  0.66554201744E+03  0.50400000000E-02 0.  1.
    8880023    1    1    2    0    0 -0.58235791730E+03 -0.22044412067E+03 -0.23796711221E+03  0.93710986919E+03  0.65864270000E+03 0.  0.
    8880022    1    1    2    0    0  0.58235791730E+03  0.22044412067E+03  0.12396548679E+04  0.13956619213E+04  0.15294330000E+03 0.  0.
<mgrwt>
<rscale>  0 0.83125487E+03</rscale>
<asrwt>0</asrwt>
<pdfrwt beam="1">  1        1 0.25649689E+00 0.90639206E+03</pdfrwt>
<pdfrwt beam="2">  1       -1 0.10239108E+00 0.90639206E+03</pdfrwt>
<totfact> 0.46190706E+00</totfact>
</mgrwt>
</event>
<event>
 4    1  0.2514307E-008  0.8979928E+03  0.7818608E-02  0.9529262E-01
         -1   -1    0    0    0  501 -0.00000000000E+00  0.00000000000E+00  0.14378585123E+04  0.14378585123E+04  0.50400000000E-02 0.  1.
          1   -1    0    0  501    0  0.00000000000E+00 -0.00000000000E+00 -0.16587672656E+04  0.16587672656E+04  0.50400000000E-02 0. -1.
    8880023    1    1    2    0    0  0.42860458882E+03 -0.43460198016E+03  0.12254849844E+04  0.15192776007E+04  0.65864270000E+03 0.  1.
    8880022    1    1    2    0    0 -0.42860458882E+03  0.43460198016E+03 -0.14463937377E+04  0.15773481772E+04  0.15294330000E+03 0.  0.
<mgrwt>
<rscale>  0 0.82160437E+03</rscale>
<asrwt>0</asrwt>
<pdfrwt beam="1">  1        1 0.25519496E+00 0.89799275E+03</pdfrwt>
<pdfrwt beam="2">  1       -1 0.22120900E+00 0.89799275E+03</pdfrwt>
<totfact> 0.56488529E-01</totfact>
</mgrwt>
</event>
<event>
 4    1  0.2514307E-008  0.7218920E+03  0.7818608E-02  0.9916235E-01
          1   -1    0    0  501    0  0.00000000000E+00  0.00000000000E+00  0.71790258566E+03  0.71790258568E+03  0.50400000000E-02 0. -1.
         -1   -1    0    0    0  501 -0.00000000000E+00 -0.00000000000E+00 -0.66982791808E+03  0.66982791810E+03  0.50400000000E-02 0.  1.
    8880023    1    1    2    0    0  0.78787209132E+02 -0.28479903609E+03 -0.40334948718E+03  0.82693344977E+03  0.65864270000E+03 0.  1.
    8880022    1    1    2    0    0 -0.78787209132E+02  0.28479903609E+03  0.45142415476E+03  0.56079705401E+03  0.15294330000E+03 0.  0.
<mgrwt>
<rscale>  0 0.59480873E+03</rscale>
<asrwt>0</asrwt>
<pdfrwt beam="1">  1        1 0.11044655E+00 0.72189204E+03</pdfrwt>
<pdfrwt beam="2">  1       -1 0.10305045E+00 0.72189204E+03</pdfrwt>
<totfact> 0.23992766E+01</totfact>
</mgrwt>
</event>
<event>
 4    1  0.2514307E-008  0.6785758E+03  0.7818608E-02  0.1010141E+00
          1   -1    0    0  501    0  0.00000000000E+00  0.00000000000E+00  0.15910367857E+04  0.15910367857E+04  0.50400000000E-02 0. -1.
         -1   -1    0    0    0  501 -0.00000000000E+00 -0.00000000000E+00 -0.44867727926E+03  0.44867727928E+03  0.50400000000E-02 0.  1.
    8880023    1    1    2    0    0 -0.34636038626E+02  0.15954697302E+03 -0.17719572860E+03  0.70132975430E+03  0.65864270000E+03 0.  1.
    8880022    1    1    2    0    0  0.34636038626E+02 -0.15954697302E+03  0.13195552351E+04  0.13383843107E+04  0.15294330000E+03 0.  0.
<mgrwt>
<rscale>  0 0.51418634E+03</rscale>
<asrwt>0</asrwt>
<pdfrwt beam="1">  1        1 0.24477489E+00 0.67857579E+03</pdfrwt>
<pdfrwt beam="2">  1       -1 0.69027273E-01 0.67857579E+03</pdfrwt>
<totfact> 0.12618643E+01</totfact>
</mgrwt>
</event>
<event>
 4    1  0.2514307E-008  0.8895400E+03  0.7818608E-02  0.9543036E-01
          1   -1    0    0  501    0  0.00000000000E+00  0.00000000000E+00  0.21603711821E+03  0.21603711827E+03  0.50400000000E-02 0. -1.
         -1   -1    0    0    0  501 -0.00000000000E+00 -0.00000000000E+00 -0.34289926216E+04  0.34289926216E+04  0.50400000000E-02 0.  1.
    8880023    1    1    2    0    0 -0.56486878611E+01 -0.59786228959E+03 -0.26992998524E+04  0.28420944960E+04  0.65864270000E+03 0.  0.
    8880022    1    1    2    0    0  0.56486878611E+01  0.59786228959E+03 -0.51365565099E+03  0.80293524384E+03  0.15294330000E+03 0.  0.
<mgrwt>
<rscale>  0 0.81183953E+03</rscale>
<asrwt>0</asrwt>
<pdfrwt beam="1">  1        1 0.33236482E-01 0.88954001E+03</pdfrwt>
<pdfrwt beam="2">  1       -1 0.52753729E+00 0.88954001E+03</pdfrwt>
<totfact> 0.13874013E-01</totfact>
</mgrwt>
</event>
<event>
 4    1  0.2514307E-008  0.8319200E+03  0.7818608E-02  0.9645608E-01
          1   -1    0    0  501    0  0.00000000000E+00  0.00000000000E+00  0.23561201798E+04  0.23561201798E+04  0.50400000000E-02 0. -1.
         -1   -1    0    0    0  501 -0.00000000000E+00 -0.00000000000E+00 -0.41527754146E+03  0.41527754149E+03  0.50400000000E-02 0.  1.
    8880023    1    1    2    0    0  0.49224720051E+03 -0.12638570157E+03  0.79315662634E+02  0.83569242702E+03  0.65864270000E+03 0.  0.
    8880022    1    1    2    0    0 -0.49224720051E+03  0.12638570157E+03  0.18615269757E+04  0.19357052943E+04  0.15294330000E+03 0.  0.
<mgrwt>
<rscale>  0 0.74349694E+03</rscale>
<asrwt>0</asrwt>
<pdfrwt beam="1">  1        1 0.36248002E+00 0.83191998E+03</pdfrwt>
<pdfrwt beam="2">  1       -1 0.63888853E-01 0.83191998E+03</pdfrwt>
<totfact> 0.44094195E+00</totfact>
</mgrwt>
</event>
<event>
 4    1  0.2514307E-008  0.8209162E+03  0.7818608E-02  0.9667272E-01
          1   -1    0    0  501    0  0.00000000000E+00  0.00000000000E+00  0.74591844571E+03  0.74591844573E+03  0.50400000000E-02 0. -1.
         -1   -1    0    0    0  501 -0.00000000000E+00 -0.00000000000E+00 -0.11497476478E+04  0.11497476478E+04  0.50400000000E-02 0.  1.
    8880023    1    1    2    0    0  0.40471635938E+03  0.27622078287E+03 -0.87435503399E+03  0.11993332248E+04  0.65864270000E+03 0.  1.
    8880022    1    1    2    0    0 -0.40471635938E+03 -0.27622078287E+03  0.47052583195E+03  0.69633286867E+03  0.15294330000E+03 0.  0.
<mgrwt>
<rscale>  0 0.72999284E+03</rscale>
<asrwt>0</asrwt>
<pdfrwt beam="1">  1        1 0.11475668E+00 0.82091623E+03</pdfrwt>
<pdfrwt beam="2">  1       -1 0.17688425E+00 0.82091623E+03</pdfrwt>
<totfact> 0.55479771E+00</totfact>
</mgrwt>
</event>
<event>
 4    1  0.2514307E-008  0.8328131E+03  0.7818608E-02  0.9643884E-01
          1   -1    0    0  501    0  0.00000000000E+00  0.00000000000E+00  0.21718673347E+04  0.21718673347E+04  0.50400000000E-02 0. -1.
         -1   -1    0    0    0  501 -0.00000000000E+00 -0.00000000000E+00 -0.63544820230E+03  0.63544820232E+03  0.50400000000E-02 0.  1.
    8880023    1    1    2    0    0  0.50894577670E+03 -0.27232050892E+02 -0.30779132689E+03  0.88786997662E+03  0.65864270000E+03 0.  1.
    8880022    1    1    2    0    0 -0.50894577670E+03  0.27232050892E+02  0.18442104593E+04  0.19194455604E+04  0.15294330000E+03 0.  0.
<mgrwt>
<rscale>  0 0.74458529E+03</rscale>
<asrwt>0</asrwt>
<pdfrwt beam="1">  1        1 0.33413344E+00 0.83281306E+03</pdfrwt>
<pdfrwt beam="2">  1       -1 0.97761260E-01 0.83281306E+03</pdfrwt>
<totfact> 0.23781043E+00</totfact>
</mgrwt>
</event>
<event>
 4    1  0.2514307E-008  0.8965705E+03  0.7818608E-02  0.9531560E-01
         -1   -1    0    0    0  501 -0.00000000000E+00  0.00000000000E+00  0.12441663411E+04  0.12441663411E+04  0.50400000000E-02 0.  1.
          1   -1    0    0  501    0  0.00000000000E+00 -0.00000000000E+00 -0.94105809660E+03  0.94105809661E+03  0.50400000000E-02 0. -1.
    8880023    1    1    2    0    0  0.20040965312E+03  0.57433824876E+03  0.93463835203E+03  0.12951399571E+04  0.65864270000E+03 0.  1.
    8880022    1    1    2    0    0 -0.20040965312E+03 -0.57433824876E+03 -0.63153010750E+03  0.89008448068E+03  0.15294330000E+03 0.  0.
<mgrwt>
<rscale>  0 0.81996516E+03</rscale>
<asrwt>0</asrwt>
<pdfrwt beam="1">  1        1 0.14477817E+00 0.89657050E+03</pdfrwt>
<pdfrwt beam="2">  1       -1 0.19141021E+00 0.89657050E+03</pdfrwt>
<totfact> 0.29609284E+00</totfact>
</mgrwt>
</event>
<event>
 4    1  0.2514307E-008  0.7564890E+03  0.7818608E-02  0.9814283E-01
          1   -1    0    0  501    0  0.00000000000E+00  0.00000000000E+00  0.60365983384E+03  0.60365983386E+03  0.50400000000E-02 0. -1.
         -1   -1    0    0    0  501 -0.00000000000E+00 -0.00000000000E+00 -0.11140139509E+04  0.11140139509E+04  0.50400000000E-02 0.  1.
    8880023    1    1    2    0    0 -0.16147524061E+03 -0.33524792316E+03 -0.88754396396E+03  0.11661946311E+04  0.65864270000E+03 0.  0.
    8880022    1    1    2    0    0  0.16147524061E+03  0.33524792316E+03  0.37718984692E+03  0.55147915368E+03  0.15294330000E+03 0.  0.
<mgrwt>
<rscale>  0 0.64601623E+03</rscale>
<asrwt>0</asrwt>
<pdfrwt beam="1">  1        1 0.92870744E-01 0.75648901E+03</pdfrwt>
<pdfrwt beam="2">  1       -1 0.17138676E+00 0.75648901E+03</pdfrwt>
<totfact> 0.84122089E+00</totfact>
</mgrwt>
</event>
<event>
 4    1  0.2514307E-008  0.1241631E+04  0.7818608E-02  0.9117680E-01
          1   -1    0    0  501    0  0.00000000000E+00  0.00000000000E+00  0.29443395617E+04  0.29443395617E+04  0.50400000000E-02 0. -1.
         -1   -1    0    0    0  501 -0.00000000000E+00 -0.00000000000E+00 -0.46769449617E+03  0.46769449619E+03  0.50400000000E-02 0.  1.
    8880023    1    1    2    0    0  0.97183838642E+03  0.40418655397E+03  0.10112180811E+04  0.16013147203E+04  0.65864270000E+03 0.  0.
    8880022    1    1    2    0    0 -0.97183838642E+03 -0.40418655397E+03  0.14654269844E+04  0.18107193375E+04  0.15294330000E+03 0.  0.
<mgrwt>
<rscale>  0 0.11945054E+04</rscale>
<asrwt>0</asrwt>
<pdfrwt beam="1">  1        1 0.45297532E+00 0.12416307E+04</pdfrwt>
<pdfrwt beam="2">  1       -1 0.71952998E-01 0.12416307E+04</pdfrwt>
<totfact> 0.12695823E+00</totfact>
</mgrwt>
</event>
<event>
 4    1  0.2514307E-008  0.7835343E+03  0.7818608E-02  0.9747599E-01
          1   -1    0    0  501    0  0.00000000000E+00  0.00000000000E+00  0.11670987811E+04  0.11670987811E+04  0.50400000000E-02 0. -1.
         -1   -1    0    0    0  501 -0.00000000000E+00 -0.00000000000E+00 -0.49792548410E+03  0.49792548412E+03  0.50400000000E-02 0.  1.
    8880023    1    1    2    0    0  0.41622591925E+03  0.82896543143E+02 -0.83025402484E+02  0.78792085671E+03  0.65864270000E+03 0.  1.
    8880022    1    1    2    0    0 -0.41622591925E+03 -0.82896543143E+02  0.75219869946E+03  0.87710340850E+03  0.15294330000E+03 0.  0.
<mgrwt>
<rscale>  0 0.68252110E+03</rscale>
<asrwt>0</asrwt>
<pdfrwt beam="1">  1        1 0.17955366E+00 0.78353434E+03</pdfrwt>
<pdfrwt beam="2">  1       -1 0.76603921E-01 0.78353434E+03</pdfrwt>
<totfact> 0.19835424E+01</totfact>
</mgrwt>
</event>
<event>
 4    1  0.2514307E-008  0.1203075E+04  0.7818608E-02  0.9154139E-01
         -1   -1    0    0    0  501 -0.00000000000E+00  0.00000000000E+00  0.80075091065E+03  0.80075091066E+03  0.50400000000E-02 0.  1.
          1   -1    0    0  501    0  0.00000000000E+00 -0.00000000000E+00 -0.27233198507E+04  0.27233198507E+04  0.50400000000E-02 0. -1.
    8880023    1    1    2    0    0 -0.69275875793E+03  0.73052319172E+03  0.15240395421E+03  0.12126895736E+04  0.65864270000E+03 0.  0.
    8880022    1    1    2    0    0  0.69275875793E+03 -0.73052319172E+03 -0.20749728942E+04  0.23113811878E+04  0.15294330000E+03 0.  0.
<mgrwt>
<rscale>  0 0.11539587E+04</rscale>
<asrwt>0</asrwt>
<pdfrwt beam="1">  1        1 0.41897228E+00 0.12030748E+04</pdfrwt>
<pdfrwt beam="2">  1       -1 0.12319245E+00 0.12030748E+04</pdfrwt>
<totfact> 0.54296726E-01</totfact>
</mgrwt>
</event>
<event>
 4    1  0.2514307E-008  0.1103169E+04  0.7818608E-02  0.9257536E-01
          1   -1    0    0  501    0  0.00000000000E+00  0.00000000000E+00  0.85192991335E+03  0.85192991336E+03  0.50400000000E-02 0. -1.
         -1   -1    0    0    0  501 -0.00000000000E+00 -0.00000000000E+00 -0.13374144133E+04  0.13374144133E+04  0.50400000000E-02 0.  1.
    8880023    1    1    2    0    0 -0.17295678175E+03  0.86790421905E+03 -0.64397998667E+03  0.12773770827E+04  0.65864270000E+03 0.  0.
    8880022    1    1    2    0    0  0.17295678175E+03 -0.86790421905E+03  0.15849548674E+03  0.91196724400E+03  0.15294330000E+03 0.  0.
<mgrwt>
<rscale>  0 0.10478796E+04</rscale>
<asrwt>0</asrwt>
<pdfrwt beam="1">  1        1 0.13106614E+00 0.11031691E+04</pdfrwt>
<pdfrwt beam="2">  1       -1 0.20575606E+00 0.11031691E+04</pdfrwt>
<totfact> 0.27207167E+00</totfact>
</mgrwt>
</event>
<event>
 4    1  0.2514307E-008  0.1381304E+04  0.7818608E-02  0.8998348E-01
          1   -1    0    0  501    0  0.00000000000E+00  0.00000000000E+00  0.20665408607E+04  0.20665408607E+04  0.50400000000E-02 0. -1.
         -1   -1    0    0    0  501 -0.00000000000E+00 -0.00000000000E+00 -0.13410261788E+04  0.13410261788E+04  0.50400000000E-02 0.  1.
    8880023    1    1    2    0    0  0.89705763105E+03 -0.81821559694E+03 -0.68362855451E+03  0.15412161962E+04  0.65864270000E+03 0.  0.
    8880022    1    1    2    0    0 -0.89705763105E+03  0.81821559694E+03  0.14091432365E+04  0.18663508433E+04  0.15294330000E+03 0.  0.
<mgrwt>
<rscale>  0 0.13401105E+04</rscale>
<asrwt>0</asrwt>
<pdfrwt beam="1">  1        1 0.31792936E+00 0.13813035E+04</pdfrwt>
<pdfrwt beam="2">  1       -1 0.20631172E+00 0.13813035E+04</pdfrwt>
<totfact> 0.35061555E-01</totfact>
</mgrwt>
</event>
<event>
 4    1  0.2514307E-008  0.7449720E+03  0.7818608E-02  0.9845694E-01
          1   -1    0    0  501    0  0.00000000000E+00  0.00000000000E+00  0.13184352310E+04  0.13184352311E+04  0.50400000000E-02 0. -1.
         -1   -1    0    0    0  501 -0.00000000000E+00 -0.00000000000E+00 -0.47972064696E+03  0.47972064699E+03  0.50400000000E-02 0.  1.
    8880023    1    1    2    0    0  0.22268770608E+03 -0.26755043279E+03 -0.13114765464E+03  0.75642776397E+03  0.65864270000E+03 0.  1.
    8880022    1    1    2    0    0 -0.22268770608E+03  0.26755043279E+03  0.96986223872E+03  0.10417281141E+04  0.15294330000E+03 0.  0.
<mgrwt>
<rscale>  0 0.62966962E+03</rscale>
<asrwt>0</asrwt>
<pdfrwt beam="1">  1        1 0.20283618E+00 0.74497198E+03</pdfrwt>
<pdfrwt beam="2">  1       -1 0.73803178E-01 0.74497198E+03</pdfrwt>
<totfact> 0.16779462E+01</totfact>
</mgrwt>
</event>
<event>
 4    1  0.2514307E-008  0.9834249E+03  0.7818608E-02  0.9403571E-01
          1   -1    0    0  501    0  0.00000000000E+00  0.00000000000E+00  0.15034723384E+04  0.15034723384E+04  0.50400000000E-02 0. -1.
         -1   -1    0    0    0  501 -0.00000000000E+00 -0.00000000000E+00 -0.11433842786E+04  0.11433842786E+04  0.50400000000E-02 0.  1.
    8880023    1    1    2    0    0  0.40640623259E+03 -0.60675231234E+03 -0.79987586171E+03  0.12676458476E+04  0.65864270000E+03 0.  0.
    8880022    1    1    2    0    0 -0.40640623259E+03  0.60675231234E+03  0.11599639214E+04  0.13792107694E+04  0.15294330000E+03 0.  0.
<mgrwt>
<rscale>  0 0.91782346E+03</rscale>
<asrwt>0</asrwt>
<pdfrwt beam="1">  1        1 0.23130344E+00 0.98342493E+03</pdfrwt>
<pdfrwt beam="2">  1       -1 0.17590527E+00 0.98342493E+03</pdfrwt>
<totfact> 0.14618244E+00</totfact>
</mgrwt>
</event>
<event>
 4    1  0.2514307E-008  0.1102663E+04  0.7818608E-02  0.9258097E-01
         -1   -1    0    0    0  501 -0.00000000000E+00  0.00000000000E+00  0.97665506710E+03  0.97665506711E+03  0.50400000000E-02 0.  1.
          1   -1    0    0  501    0  0.00000000000E+00 -0.00000000000E+00 -0.22635559615E+04  0.22635559615E+04  0.50400000000E-02 0. -1.
    8880023    1    1    2    0    0 -0.39164228161E+03  0.79288783133E+03  0.52270457482E+03  0.12202807335E+04  0.65864270000E+03 0.  1.
    8880022    1    1    2    0    0  0.39164228161E+03 -0.79288783133E+03 -0.18096054692E+04  0.20199302951E+04  0.15294330000E+03 0.  0.
<mgrwt>
<rscale>  0 0.10473374E+04</rscale>
<asrwt>0</asrwt>
<pdfrwt beam="1">  1        1 0.34823938E+00 0.11026627E+04</pdfrwt>
<pdfrwt beam="2">  1       -1 0.15025463E+00 0.11026627E+04</pdfrwt>
<totfact> 0.68360288E-01</totfact>
</mgrwt>
</event>
<event>
 4    1  0.2514307E-008  0.6833234E+03  0.7818608E-02  0.1007503E+00
         -1   -1    0    0    0  501 -0.00000000000E+00  0.00000000000E+00  0.92574955108E+03  0.92574955109E+03  0.50400000000E-02 0.  1.
          1   -1    0    0  501    0  0.00000000000E+00 -0.00000000000E+00 -0.54483935936E+03  0.54483935939E+03  0.50400000000E-02 0. -1.
    8880023    1    1    2    0    0 -0.17716757785E+03 -0.41621341519E+02  0.76069437359E+03  0.10225393992E+04  0.65864270000E+03 0.  1.
    8880022    1    1    2    0    0  0.17716757785E+03  0.41621341519E+02 -0.37978418187E+03  0.44804951124E+03  0.15294330000E+03 0.  0.
<mgrwt>
<rscale>  0 0.52479252E+03</rscale>
<asrwt>0</asrwt>
<pdfrwt beam="1">  1        1 0.83821440E-01 0.68332342E+03</pdfrwt>
<pdfrwt beam="2">  1       -1 0.14242301E+00 0.68332342E+03</pdfrwt>
<totfact> 0.16311260E+01</totfact>
</mgrwt>
</event>
<event>
 4    1  0.2514307E-008  0.1123798E+04  0.7818608E-02  0.9235012E-01
          1   -1    0    0  501    0  0.00000000000E+00  0.00000000000E+00  0.19731505085E+04  0.19731505085E+04  0.50400000000E-02 0. -1.
         -1   -1    0    0    0  501 -0.00000000000E+00 -0.00000000000E+00 -0.13305632916E+04  0.13305632917E+04  0.50400000000E-02 0.  1.
    8880023    1    1    2    0    0 -0.23384448710E+03  0.88001576272E+03 -0.94423354287E+03  0.14678208939E+04  0.65864270000E+03 0.  0.
    8880022    1    1    2    0    0  0.23384448710E+03 -0.88001576272E+03  0.15868207597E+04  0.18358929063E+04  0.15294330000E+03 0.  0.
<mgrwt>
<rscale>  0 0.10699243E+04</rscale>
<asrwt>0</asrwt>
<pdfrwt beam="1">  1        1 0.30356162E+00 0.11237977E+04</pdfrwt>
<pdfrwt beam="2">  1       -1 0.20470204E+00 0.11237977E+04</pdfrwt>
<totfact> 0.43096240E-01</totfact>
</mgrwt>
</event>
<event>
 4    1  0.2514307E-008  0.8748498E+03  0.7818608E-02  0.9567676E-01
          1   -1    0    0  501    0  0.00000000000E+00  0.00000000000E+00  0.89208231651E+03  0.89208231652E+03  0.50400000000E-02 0. -1.
         -1   -1    0    0    0  501 -0.00000000000E+00 -0.00000000000E+00 -0.10290456956E+04  0.10290456956E+04  0.50400000000E-02 0.  1.
    8880023    1    1    2    0    0  0.33085461291E+03 -0.47126127431E+03 -0.68539402806E+03  0.11113627416E+04  0.65864270000E+03 0.  0.
    8880022    1    1    2    0    0 -0.33085461291E+03  0.47126127431E+03  0.54843064896E+03  0.80976527049E+03  0.15294330000E+03 0.  0.
<mgrwt>
<rscale>  0 0.79473080E+03</rscale>
<asrwt>0</asrwt>
<pdfrwt beam="1">  1        1 0.13724343E+00 0.87484980E+03</pdfrwt>
<pdfrwt beam="2">  1       -1 0.15831472E+00 0.87484980E+03</pdfrwt>
<totfact> 0.56567789E+00</totfact>
</mgrwt>
</event>
<event>
 4    1  0.2514307E-008  0.1100057E+04  0.7818608E-02  0.9260992E-01
         -1   -1    0    0    0  501 -0.00000000000E+00  0.00000000000E+00  0.95682337046E+03  0.95682337047E+03  0.50400000000E-02 0.  1.
          1   -1    0    0  501    0  0.00000000000E+00 -0.00000000000E+00 -0.14104270484E+04  0.14104270484E+04  0.50400000000E-02 0. -1.
    8880023    1    1    2    0    0  0.23056683182E+03  0.85038533792E+03  0.36080653321E+03  0.11577166525E+04  0.65864270000E+03 0.  0.
    8880022    1    1    2    0    0 -0.23056683182E+03 -0.85038533792E+03 -0.81441021117E+03  0.12095337664E+04  0.15294330000E+03 0.  0.
<mgrwt>
<rscale>  0 0.10445469E+04</rscale>
<asrwt>0</asrwt>
<pdfrwt beam="1">  1        1 0.21698878E+00 0.11000575E+04</pdfrwt>
<pdfrwt beam="2">  1       -1 0.14720359E+00 0.11000575E+04</pdfrwt>
<totfact> 0.27511652E+00</totfact>
</mgrwt>
</event>
<event>
 4    1  0.2514307E-008  0.8367603E+03  0.7818608E-02  0.9636319E-01
         -1   -1    0    0    0  501 -0.00000000000E+00  0.00000000000E+00  0.14325134379E+04  0.14325134380E+04  0.50400000000E-02 0.  1.
          1   -1    0    0  501    0  0.00000000000E+00 -0.00000000000E+00 -0.95396373600E+03  0.95396373601E+03  0.50400000000E-02 0. -1.
    8880023    1    1    2    0    0  0.45620766239E+03  0.24131353398E+03  0.12143973129E+04  0.14747639447E+04  0.65864270000E+03 0.  0.
    8880022    1    1    2    0    0 -0.45620766239E+03 -0.24131353398E+03 -0.73584761091E+03  0.91171322925E+03  0.15294330000E+03 0.  0.
<mgrwt>
<rscale>  0 0.74938262E+03</rscale>
<asrwt>0</asrwt>
<pdfrwt beam="1">  1        1 0.14676365E+00 0.83676034E+03</pdfrwt>
<pdfrwt beam="2">  1       -1 0.22038668E+00 0.83676034E+03</pdfrwt>
<totfact> 0.18535638E+00</totfact>
</mgrwt>
</event>
<event>
 4    1  0.2514307E-008  0.7187472E+03  0.7818608E-02  0.9926848E-01
         -1   -1    0    0    0  501 -0.00000000000E+00  0.00000000000E+00  0.10412232443E+04  0.10412232443E+04  0.50400000000E-02 0.  1.
          1   -1    0    0  501    0  0.00000000000E+00 -0.00000000000E+00 -0.51431681705E+03  0.51431681708E+03  0.50400000000E-02 0. -1.
    8880023    1    1    2    0    0 -0.17828842852E+03 -0.22583301426E+03  0.83870318068E+03  0.11045454022E+04  0.65864270000E+03 0.  0.
    8880022    1    1    2    0    0  0.17828842852E+03  0.22583301426E+03 -0.31179675346E+03  0.45099465912E+03  0.15294330000E+03 0.  0.
<mgrwt>
<rscale>  0 0.58977578E+03</rscale>
<asrwt>0</asrwt>
<pdfrwt beam="1">  1        1 0.79125664E-01 0.71874719E+03</pdfrwt>
<pdfrwt beam="2">  1       -1 0.16018819E+00 0.71874719E+03</pdfrwt>
<totfact> 0.12820908E+01</totfact>
</mgrwt>
</event>
<event>
 4    1  0.2514307E-008  0.1170814E+04  0.7818608E-02  0.9186029E-01
         -1   -1    0    0    0  501 -0.00000000000E+00  0.00000000000E+00  0.14516672952E+04  0.14516672952E+04  0.50400000000E-02 0.  1.
          1   -1    0    0  501    0  0.00000000000E+00 -0.00000000000E+00 -0.13983142811E+04  0.13983142811E+04  0.50400000000E-02 0. -1.
    8880023    1    1    2    0    0 -0.78111093893E+03  0.57171748511E+03  0.96064605404E+03  0.15144788639E+04  0.65864270000E+03 0.  0.
    8880022    1    1    2    0    0  0.78111093893E+03 -0.57171748511E+03 -0.90729303990E+03  0.13355027125E+04  0.15294330000E+03 0.  0.
<mgrwt>
<rscale>  0 0.11198805E+04</rscale>
<asrwt>0</asrwt>
<pdfrwt beam="1">  1        1 0.21512528E+00 0.11708140E+04</pdfrwt>
<pdfrwt beam="2">  1       -1 0.22333343E+00 0.11708140E+04</pdfrwt>
<totfact> 0.79233671E-01</totfact>
</mgrwt>
</event>
<event>
 4    1  0.2514307E-008  0.1374999E+04  0.7818608E-02  0.9003356E-01
         -1   -1    0    0    0  501 -0.00000000000E+00  0.00000000000E+00  0.17149259456E+04  0.17149259456E+04  0.50400000000E-02 0.  1.
          1   -1    0    0  501    0  0.00000000000E+00 -0.00000000000E+00 -0.14303820700E+04  0.14303820700E+04  0.50400000000E-02 0. -1.
    8880023    1    1    2    0    0  0.11675998802E+04  0.30581620195E+03  0.10304056695E+04  0.17182430211E+04  0.65864270000E+03 0.  1.
    8880022    1    1    2    0    0 -0.11675998802E+04 -0.30581620195E+03 -0.74586179388E+03  0.14270649944E+04  0.15294330000E+03 0.  0.
<mgrwt>
<rscale>  0 0.13335739E+04</rscale>
<asrwt>0</asrwt>
<pdfrwt beam="1">  1        1 0.22005878E+00 0.13749994E+04</pdfrwt>
<pdfrwt beam="2">  1       -1 0.26383476E+00 0.13749994E+04</pdfrwt>
<totfact> 0.39779151E-01</totfact>
</mgrwt>
</event>
<event>
 4    1  0.2514307E-008  0.8197347E+03  0.7818608E-02  0.9669646E-01
         -1   -1    0    0    0  501 -0.00000000000E+00  0.00000000000E+00  0.69796752937E+03  0.69796752939E+03  0.50400000000E-02 0.  1.
          1   -1    0    0  501    0  0.00000000000E+00 -0.00000000000E+00 -0.13915968162E+04  0.13915968162E+04  0.50400000000E-02 0. -1.
    8880023    1    1    2    0    0 -0.48110549019E+03 -0.81806037303E+02  0.37759681628E+03  0.90252107031E+03  0.65864270000E+03 0.  1.
    8880022    1    1    2    0    0  0.48110549019E+03  0.81806037303E+02 -0.10712261031E+04  0.11870432753E+04  0.15294330000E+03 0.  0.
<mgrwt>
<rscale>  0 0.72853189E+03</rscale>
<asrwt>0</asrwt>
<pdfrwt beam="1">  1        1 0.21409182E+00 0.81973467E+03</pdfrwt>
<pdfrwt beam="2">  1       -1 0.10737962E+00 0.81973467E+03</pdfrwt>
<totfact> 0.64696659E+00</totfact>
</mgrwt>
</event>
<event>
 4    1  0.2514307E-008  0.6640752E+03  0.7818608E-02  0.1020322E+00
         -1   -1    0    0    0  501 -0.00000000000E+00  0.00000000000E+00  0.35922692320E+03  0.35922692323E+03  0.50400000000E-02 0.  1.
          1   -1    0    0  501    0  0.00000000000E+00 -0.00000000000E+00 -0.13030532791E+04  0.13030532791E+04  0.50400000000E-02 0. -1.
    8880023    1    1    2    0    0  0.54521044240E+02 -0.64908295703E+02  0.37848548762E+02  0.66515287718E+03  0.65864270000E+03 0.  1.
    8880022    1    1    2    0    0 -0.54521044240E+02  0.64908295703E+02 -0.98167490468E+03  0.99712732518E+03  0.15294330000E+03 0.  0.
<mgrwt>
<rscale>  0 0.47570509E+03</rscale>
<asrwt>0</asrwt>
<pdfrwt beam="1">  1        1 0.20046973E+00 0.66407517E+03</pdfrwt>
<pdfrwt beam="2">  1       -1 0.55265681E-01 0.66407517E+03</pdfrwt>
<totfact> 0.31006264E+01</totfact>
</mgrwt>
</event>
<event>
 4    1  0.2514307E-008  0.1014415E+04  0.7818608E-02  0.9362937E-01
         -1   -1    0    0    0  501 -0.00000000000E+00  0.00000000000E+00  0.16531483396E+04  0.16531483396E+04  0.50400000000E-02 0.  1.
          1   -1    0    0  501    0  0.00000000000E+00 -0.00000000000E+00 -0.17774951642E+04  0.17774951643E+04  0.50400000000E-02 0. -1.
    8880023    1    1    2    0    0 -0.26580344977E+03 -0.72427604113E+03  0.13920224184E+04  0.17224296437E+04  0.65864270000E+03 0.  1.
    8880022    1    1    2    0    0  0.26580344977E+03  0.72427604113E+03 -0.15163692431E+04  0.17082138602E+04  0.15294330000E+03 0.  0.
<mgrwt>
<rscale>  0 0.95189620E+03</rscale>
<asrwt>0</asrwt>
<pdfrwt beam="1">  1        1 0.27346080E+00 0.10144148E+04</pdfrwt>
<pdfrwt beam="2">  1       -1 0.25433051E+00 0.10144148E+04</pdfrwt>
<totfact> 0.27894603E-01</totfact>
</mgrwt>
</event>
<event>
 4    1  0.2514307E-008  0.1012400E+04  0.7818608E-02  0.9365511E-01
          1   -1    0    0  501    0  0.00000000000E+00  0.00000000000E+00  0.73413778035E+03  0.73413778037E+03  0.50400000000E-02 0. -1.
         -1   -1    0    0    0  501 -0.00000000000E+00 -0.00000000000E+00 -0.13851655655E+04  0.13851655655E+04  0.50400000000E-02 0.  1.
    8880023    1    1    2    0    0  0.80598890973E+02  0.76462264125E+03 -0.83703572010E+03  0.13136144669E+04  0.65864270000E+03 0.  0.
    8880022    1    1    2    0    0 -0.80598890973E+02 -0.76462264125E+03  0.18600793498E+03  0.80568887893E+03  0.15294330000E+03 0.  0.
<mgrwt>
<rscale>  0 0.94969150E+03</rscale>
<asrwt>0</asrwt>
<pdfrwt beam="1">  1        1 0.11294427E+00 0.10124002E+04</pdfrwt>
<pdfrwt beam="2">  1       -1 0.21310239E+00 0.10124002E+04</pdfrwt>
<totfact> 0.31118986E+00</totfact>
</mgrwt>
</event>
<event>
 4    1  0.2514307E-008  0.1242480E+04  0.7818608E-02  0.9116895E-01
         -1   -1    0    0    0  501 -0.00000000000E+00  0.00000000000E+00  0.67396023631E+03  0.67396023633E+03  0.50400000000E-02 0.  1.
          1   -1    0    0  501    0  0.00000000000E+00 -0.00000000000E+00 -0.34434040537E+04  0.34434040537E+04  0.50400000000E-02 0. -1.
    8880023    1    1    2    0    0  0.67830599109E+03 -0.80613133449E+03 -0.10357435749E+03  0.12467897176E+04  0.65864270000E+03 0.  0.
    8880022    1    1    2    0    0 -0.67830599109E+03  0.80613133449E+03 -0.26658694599E+04  0.28705745725E+04  0.15294330000E+03 0.  0.
<mgrwt>
<rscale>  0 0.11953967E+04</rscale>
<asrwt>0</asrwt>
<pdfrwt beam="1">  1        1 0.52975446E+00 0.12424802E+04</pdfrwt>
<pdfrwt beam="2">  1       -1 0.10368619E+00 0.12424802E+04</pdfrwt>
<totfact> 0.24178000E-01</totfact>
</mgrwt>
</event>
<event>
 4    1  0.2514307E-008  0.1003508E+04  0.7818608E-02  0.9376983E-01
          1   -1    0    0  501    0  0.00000000000E+00  0.00000000000E+00  0.17521106968E+04  0.17521106968E+04  0.50400000000E-02 0. -1.
         -1   -1    0    0    0  501 -0.00000000000E+00 -0.00000000000E+00 -0.15750879230E+04  0.15750879230E+04  0.50400000000E-02 0.  1.
    8880023    1    1    2    0    0 -0.45368126155E+02  0.75575064735E+03 -0.13108003472E+04  0.16508255705E+04  0.65864270000E+03 0.  0.
    8880022    1    1    2    0    0  0.45368126155E+02 -0.75575064735E+03  0.14878231210E+04  0.16763730492E+04  0.15294330000E+03 0.  0.
<mgrwt>
<rscale>  0 0.93994344E+03</rscale>
<asrwt>0</asrwt>
<pdfrwt beam="1">  1        1 0.26955549E+00 0.10035076E+04</pdfrwt>
<pdfrwt beam="2">  1       -1 0.24232122E+00 0.10035076E+04</pdfrwt>
<totfact> 0.34800081E-01</totfact>
</mgrwt>
</event>
<event>
 4    1  0.2514307E-008  0.8466694E+03  0.7818608E-02  0.9617730E-01
          1   -1    0    0  501    0  0.00000000000E+00  0.00000000000E+00  0.95543968472E+03  0.95543968473E+03  0.50400000000E-02 0. -1.
         -1   -1    0    0    0  501 -0.00000000000E+00 -0.00000000000E+00 -0.76162427379E+03  0.76162427381E+03  0.50400000000E-02 0.  1.
    8880023    1    1    2    0    0  0.44016909251E+03 -0.29881446536E+03 -0.37263463509E+03  0.92504361640E+03  0.65864270000E+03 0.  0.
    8880022    1    1    2    0    0 -0.44016909251E+03  0.29881446536E+03  0.56645004602E+03  0.79202034214E+03  0.15294330000E+03 0.  0.
<mgrwt>
<rscale>  0 0.76133697E+03</rscale>
<asrwt>0</asrwt>
<pdfrwt beam="1">  1        1 0.14699072E+00 0.84666943E+03</pdfrwt>
<pdfrwt beam="2">  1       -1 0.11717296E+00 0.84666943E+03</pdfrwt>
<totfact> 0.10973075E+01</totfact>
</mgrwt>
</event>
<event>
 4    1  0.2514307E-008  0.1276880E+04  0.7818608E-02  0.9085787E-01
         -1   -1    0    0    0  501 -0.00000000000E+00  0.00000000000E+00  0.14261909872E+04  0.14261909872E+04  0.50400000000E-02 0.  1.
          1   -1    0    0  501    0  0.00000000000E+00 -0.00000000000E+00 -0.20419658515E+04  0.20419658515E+04  0.50400000000E-02 0. -1.
    8880023    1    1    2    0    0 -0.10493196944E+04 -0.30909682071E+03  0.92189209291E+03  0.15748993310E+04  0.65864270000E+03 0.  0.
    8880022    1    1    2    0    0  0.10493196944E+04  0.30909682071E+03 -0.15376669572E+04  0.18932575076E+04  0.15294330000E+03 0.  0.
<mgrwt>
<rscale>  0 0.12314244E+04</rscale>
<asrwt>0</asrwt>
<pdfrwt beam="1">  1        1 0.31414859E+00 0.12768801E+04</pdfrwt>
<pdfrwt beam="2">  1       -1 0.21941400E+00 0.12768801E+04</pdfrwt>
<totfact> 0.30103140E-01</totfact>
</mgrwt>
</event>
<event>
 4    1  0.2514307E-008  0.1042148E+04  0.7818608E-02  0.9328381E-01
         -1   -1    0    0    0  501 -0.00000000000E+00  0.00000000000E+00  0.65359423385E+03  0.65359423387E+03  0.50400000000E-02 0.  1.
          1   -1    0    0  501    0  0.00000000000E+00 -0.00000000000E+00 -0.18094569635E+04  0.18094569635E+04  0.50400000000E-02 0. -1.
    8880023    1    1    2    0    0  0.41743610416E+03 -0.69138184059E+03  0.31453298362E+01  0.10421525080E+04  0.65864270000E+03 0.  0.
    8880022    1    1    2    0    0 -0.41743610416E+03  0.69138184059E+03 -0.11590080595E+04  0.14208986894E+04  0.15294330000E+03 0.  0.
<mgrwt>
<rscale>  0 0.98211529E+03</rscale>
<asrwt>0</asrwt>
<pdfrwt beam="1">  1        1 0.27837799E+00 0.10421478E+04</pdfrwt>
<pdfrwt beam="2">  1       -1 0.10055296E+00 0.10421478E+04</pdfrwt>
<totfact> 0.37903296E+00</totfact>
</mgrwt>
</event>
<event>
 4    1  0.2514307E-008  0.6843622E+03  0.7818608E-02  0.1006956E+00
         -1   -1    0    0    0  501 -0.00000000000E+00  0.00000000000E+00  0.39274375017E+03  0.39274375020E+03  0.50400000000E-02 0.  1.
          1   -1    0    0  501    0  0.00000000000E+00 -0.00000000000E+00 -0.23445353621E+04  0.23445353621E+04  0.50400000000E-02 0. -1.
    8880023    1    1    2    0    0  0.16573142898E+03 -0.84110315684E+02  0.82033330705E+02  0.68926128962E+03  0.65864270000E+03 0.  1.
    8880022    1    1    2    0    0 -0.16573142898E+03  0.84110315684E+02 -0.20338249426E+04  0.20480178227E+04  0.15294330000E+03 0.  0.
<mgrwt>
<rscale>  0 0.52702398E+03</rscale>
<asrwt>0</asrwt>
<pdfrwt beam="1">  1        1 0.36069774E+00 0.68436223E+03</pdfrwt>
<pdfrwt beam="2">  1       -1 0.60422117E-01 0.68436223E+03</pdfrwt>
<totfact> 0.51503615E+00</totfact>
</mgrwt>
</event>
<event>
 4    1  0.2514307E-008  0.1361538E+04  0.7818608E-02  0.9014160E-01
          1   -1    0    0  501    0  0.00000000000E+00  0.00000000000E+00  0.27550409633E+04  0.27550409633E+04  0.50400000000E-02 0. -1.
         -1   -1    0    0    0  501 -0.00000000000E+00 -0.00000000000E+00 -0.14239893341E+04  0.14239893341E+04  0.50400000000E-02 0.  1.
    8880023    1    1    2    0    0 -0.96279228476E+02  0.11877317644E+04 -0.90903490618E+03  0.16371105952E+04  0.65864270000E+03 0.  0.
    8880022    1    1    2    0    0  0.96279228476E+02 -0.11877317644E+04  0.22400865354E+04  0.25419197023E+04  0.15294330000E+03 0.  0.
<mgrwt>
<rscale>  0 0.13196068E+04</rscale>
<asrwt>0</asrwt>
<pdfrwt beam="1">  1        1 0.42385246E+00 0.13615383E+04</pdfrwt>
<pdfrwt beam="2">  1       -1 0.21907528E+00 0.13615383E+04</pdfrwt>
<totfact> 0.96528622E-02</totfact>
</mgrwt>
</event>
<event>
 4    1  0.2514307E-008  0.1165291E+04  0.7818608E-02  0.9191623E-01
         -1   -1    0    0    0  501 -0.00000000000E+00  0.00000000000E+00  0.64602348507E+03  0.64602348509E+03  0.50400000000E-02 0.  1.
          1   -1    0    0  501    0  0.00000000000E+00 -0.00000000000E+00 -0.18813179022E+04  0.18813179022E+04  0.50400000000E-02 0. -1.
    8880023    1    1    2    0    0 -0.75917724047E+03 -0.58969650779E+03 -0.36362258068E+03  0.12207062059E+04  0.65864270000E+03 0.  0.
    8880022    1    1    2    0    0  0.75917724047E+03  0.58969650779E+03 -0.87167183649E+03  0.13066351814E+04  0.15294330000E+03 0.  0.
<mgrwt>
<rscale>  0 0.11140307E+04</rscale>
<asrwt>0</asrwt>
<pdfrwt beam="1">  1        1 0.28943352E+00 0.11652906E+04</pdfrwt>
<pdfrwt beam="2">  1       -1 0.99388229E-01 0.11652906E+04</pdfrwt>
<totfact> 0.34308361E+00</totfact>
</mgrwt>
</event>
<event>
 4    1  0.2514307E-008  0.6683431E+03  0.7818608E-02  0.1016880E+00
         -1   -1    0    0    0  501 -0.00000000000E+00  0.00000000000E+00  0.80996116224E+03  0.80996116226E+03  0.50400000000E-02 0.  1.
          1   -1    0    0  501    0  0.00000000000E+00 -0.00000000000E+00 -0.10165394934E+04  0.10165394934E+04  0.50400000000E-02 0. -1.
    8880023    1    1    2    0    0  0.28062172821E+02  0.10993072471E+03  0.65996812583E+03  0.93927652113E+03  0.65864270000E+03 0.  1.
    8880022    1    1    2    0    0 -0.28062172821E+02 -0.10993072471E+03 -0.86654645695E+03  0.88722413450E+03  0.15294330000E+03 0.  0.
<mgrwt>
<rscale>  0 0.48829683E+03</rscale>
<asrwt>0</asrwt>
<pdfrwt beam="1">  1        1 0.15639069E+00 0.66834307E+03</pdfrwt>
<pdfrwt beam="2">  1       -1 0.12460941E+00 0.66834307E+03</pdfrwt>
<totfact> 0.86685772E+00</totfact>
</mgrwt>
</event>
<event>
 4    1  0.2514307E-008  0.7212194E+03  0.7818608E-02  0.9918481E-01
          1   -1    0    0  501    0  0.00000000000E+00  0.00000000000E+00  0.28426511715E+04  0.28426511715E+04  0.50400000000E-02 0. -1.
         -1   -1    0    0    0  501 -0.00000000000E+00 -0.00000000000E+00 -0.29111386800E+03  0.29111386804E+03  0.50400000000E-02 0.  1.
    8880023    1    1    2    0    0 -0.23403335719E+03  0.17769514999E+03  0.18555817910E+03  0.74470747458E+03  0.65864270000E+03 0.  1.
    8880022    1    1    2    0    0  0.23403335719E+03 -0.17769514999E+03  0.23659791244E+04  0.23890575650E+04  0.15294330000E+03 0.  0.
<mgrwt>
<rscale>  0 0.59373900E+03</rscale>
<asrwt>0</asrwt>
<pdfrwt beam="1">  1        1 0.43733096E+00 0.72121937E+03</pdfrwt>
<pdfrwt beam="2">  1       -1 0.44786748E-01 0.72121937E+03</pdfrwt>
<totfact> 0.41159784E+00</totfact>
</mgrwt>
</event>
<event>
 4    1  0.2514307E-008  0.8318280E+03  0.7818608E-02  0.9645786E-01
          1   -1    0    0  501    0  0.00000000000E+00  0.00000000000E+00  0.12387557227E+04  0.12387557227E+04  0.50400000000E-02 0. -1.
         -1   -1    0    0    0  501 -0.00000000000E+00 -0.00000000000E+00 -0.98200590889E+03  0.98200590890E+03  0.50400000000E-02 0.  1.
    8880023    1    1    2    0    0 -0.49318643804E+03 -0.12204430767E+03 -0.72589512397E+03  0.11040206579E+04  0.65864270000E+03 0.  0.
    8880022    1    1    2    0    0  0.49318643804E+03  0.12204430767E+03  0.98264493775E+03  0.11167409737E+04  0.15294330000E+03 0.  0.
<mgrwt>
<rscale>  0 0.74338483E+03</rscale>
<asrwt>0</asrwt>
<pdfrwt beam="1">  1        1 0.19057780E+00 0.83182804E+03</pdfrwt>
<pdfrwt beam="2">  1       -1 0.15107783E+00 0.83182804E+03</pdfrwt>
<totfact> 0.35194835E+00</totfact>
</mgrwt>
</event>
<event>
 4    1  0.2514307E-008  0.8678724E+03  0.7818608E-02  0.9579710E-01
         -1   -1    0    0    0  501 -0.00000000000E+00  0.00000000000E+00  0.96847860100E+03  0.96847860101E+03  0.50400000000E-02 0.  1.
          1   -1    0    0  501    0  0.00000000000E+00 -0.00000000000E+00 -0.90245395954E+03  0.90245395955E+03  0.50400000000E-02 0. -1.
    8880023    1    1    2    0    0  0.15813319743E+03 -0.54257366986E+03  0.61867901412E+03  0.10658171626E+04  0.65864270000E+03 0.  1.
    8880022    1    1    2    0    0 -0.15813319743E+03  0.54257366986E+03 -0.55265437266E+03  0.80511539794E+03  0.15294330000E+03 0.  0.
<mgrwt>
<rscale>  0 0.78653756E+03</rscale>
<asrwt>0</asrwt>
<pdfrwt beam="1">  1        1 0.13883907E+00 0.86787240E+03</pdfrwt>
<pdfrwt beam="2">  1       -1 0.14899671E+00 0.86787240E+03</pdfrwt>
<totfact> 0.65495453E+00</totfact>
</mgrwt>
</event>
<event>
 4    1  0.2514307E-008  0.7575729E+03  0.7818608E-02  0.9811432E-01
         -1   -1    0    0    0  501 -0.00000000000E+00  0.00000000000E+00  0.90626232588E+03  0.90626232590E+03  0.50400000000E-02 0.  1.
          1   -1    0    0  501    0  0.00000000000E+00 -0.00000000000E+00 -0.13324948970E+04  0.13324948970E+04  0.50400000000E-02 0. -1.
    8880023    1    1    2    0    0 -0.30089564547E+03  0.22263948645E+03  0.70658162841E+03  0.10359412794E+04  0.65864270000E+03 0.  1.
    8880022    1    1    2    0    0  0.30089564547E+03 -0.22263948645E+03 -0.11328141995E+04  0.12028159435E+04  0.15294330000E+03 0.  0.
<mgrwt>
<rscale>  0 0.64752636E+03</rscale>
<asrwt>0</asrwt>
<pdfrwt beam="1">  1        1 0.20499922E+00 0.75757292E+03</pdfrwt>
<pdfrwt beam="2">  1       -1 0.13942497E+00 0.75757292E+03</pdfrwt>
<totfact> 0.37786471E+00</totfact>
</mgrwt>
</event>
<event>
 4    1  0.2514307E-008  0.7114107E+03  0.7818608E-02  0.9952799E-01
         -1   -1    0    0    0  501 -0.00000000000E+00  0.00000000000E+00  0.14854529265E+04  0.14854529265E+04  0.50400000000E-02 0.  1.
          1   -1    0    0  501    0  0.00000000000E+00 -0.00000000000E+00 -0.72244773222E+03  0.72244773223E+03  0.50400000000E-02 0. -1.
    8880023    1    1    2    0    0 -0.16418505989E+03  0.21292763217E+03  0.13603912494E+04  0.15351773410E+04  0.65864270000E+03 0.  1.
    8880022    1    1    2    0    0  0.16418505989E+03 -0.21292763217E+03 -0.59738605513E+03  0.67272331780E+03  0.15294330000E+03 0.  0.
<mgrwt>
<rscale>  0 0.57769238E+03</rscale>
<asrwt>0</asrwt>
<pdfrwt beam="1">  1        1 0.11114580E+00 0.71141065E+03</pdfrwt>
<pdfrwt beam="2">  1       -1 0.22853122E+00 0.71141065E+03</pdfrwt>
<totfact> 0.26295977E+00</totfact>
</mgrwt>
</event>
<event>
 4    1  0.2514307E-008  0.7183545E+03  0.7818608E-02  0.9928194E-01
          1   -1    0    0  501    0  0.00000000000E+00  0.00000000000E+00  0.28569208680E+04  0.28569208680E+04  0.50400000000E-02 0. -1.
         -1   -1    0    0    0  501 -0.00000000000E+00 -0.00000000000E+00 -0.40455773523E+03  0.40455773526E+03  0.50400000000E-02 0.  1.
    8880023    1    1    2    0    0  0.17949777435E+03 -0.22361475634E+03 -0.66787093480E+02  0.72145251567E+03  0.65864270000E+03 0.  1.
    8880022    1    1    2    0    0 -0.17949777435E+03  0.22361475634E+03  0.25191502263E+04  0.25400260876E+04  0.15294330000E+03 0.  0.
<mgrwt>
<rscale>  0 0.58914154E+03</rscale>
<asrwt>0</asrwt>
<pdfrwt beam="1">  1        1 0.43952631E+00 0.71835452E+03</pdfrwt>
<pdfrwt beam="2">  1       -1 0.62239649E-01 0.71835452E+03</pdfrwt>
<totfact> 0.21421607E+00</totfact>
</mgrwt>
</event>
<event>
 4    1  0.2514307E-008  0.1600873E+04  0.7818608E-02  0.8841506E-01
          1   -1    0    0  501    0  0.00000000000E+00  0.00000000000E+00  0.93840209261E+03  0.93840209263E+03  0.50400000000E-02 0. -1.
         -1   -1    0    0    0  501 -0.00000000000E+00 -0.00000000000E+00 -0.27274884741E+04  0.27274884741E+04  0.50400000000E-02 0.  1.
    8880023    1    1    2    0    0  0.13948239548E+04  0.42831022097E+03 -0.41038691238E+03  0.16526376295E+04  0.65864270000E+03 0.  0.
    8880022    1    1    2    0    0 -0.13948239548E+04 -0.42831022097E+03 -0.13786994691E+04  0.20132529373E+04  0.15294330000E+03 0.  0.
<mgrwt>
<rscale>  0 0.15663268E+04</rscale>
<asrwt>0</asrwt>
<pdfrwt beam="1">  1        1 0.14436955E+00 0.16008728E+04</pdfrwt>
<pdfrwt beam="2">  1       -1 0.41961361E+00 0.16008728E+04</pdfrwt>
<totfact> 0.83730083E-02</totfact>
</mgrwt>
</event>
<event>
 4    1  0.2514307E-008  0.8051494E+03  0.7818608E-02  0.9699771E-01
         -1   -1    0    0    0  501 -0.00000000000E+00  0.00000000000E+00  0.49334126815E+03  0.49334126818E+03  0.50400000000E-02 0.  1.
          1   -1    0    0  501    0  0.00000000000E+00 -0.00000000000E+00 -0.13233712067E+04  0.13233712067E+04  0.50400000000E-02 0. -1.
    8880023    1    1    2    0    0 -0.33016777378E+03  0.32472228760E+03  0.54130180002E+02  0.80696691726E+03  0.65864270000E+03 0.  0.
    8880022    1    1    2    0    0  0.33016777378E+03 -0.32472228760E+03 -0.88416011859E+03  0.10097455577E+04  0.15294330000E+03 0.  0.
<mgrwt>
<rscale>  0 0.71030448E+03</rscale>
<asrwt>0</asrwt>
<pdfrwt beam="1">  1        1 0.20359557E+00 0.80514938E+03</pdfrwt>
<pdfrwt beam="2">  1       -1 0.75898657E-01 0.80514938E+03</pdfrwt>
<totfact> 0.15580824E+01</totfact>
</mgrwt>
</event>
<event>
 4    1  0.2514307E-008  0.7583127E+03  0.7818608E-02  0.9809495E-01
         -1   -1    0    0    0  501 -0.00000000000E+00  0.00000000000E+00  0.14688560312E+04  0.14688560312E+04  0.50400000000E-02 0.  1.
          1   -1    0    0  501    0  0.00000000000E+00 -0.00000000000E+00 -0.40419262397E+03  0.40419262400E+03  0.50400000000E-02 0. -1.
    8880023    1    1    2    0    0 -0.36814396192E+03  0.75484873023E+02  0.12217611200E+04  0.14379632761E+04  0.65864270000E+03 0.  1.
    8880022    1    1    2    0    0  0.36814396192E+03 -0.75484873023E+02 -0.15709771278E+03  0.43508537913E+03  0.15294330000E+03 0.  0.
<mgrwt>
<rscale>  0 0.64855444E+03</rscale>
<asrwt>0</asrwt>
<pdfrwt beam="1">  1        1 0.62183481E-01 0.75831270E+03</pdfrwt>
<pdfrwt beam="2">  1       -1 0.22597785E+00 0.75831270E+03</pdfrwt>
<totfact> 0.61476638E+00</totfact>
</mgrwt>
</event>
<event>
 4    1  0.2514307E-008  0.1559819E+04  0.7818608E-02  0.8868511E-01
         -1   -1    0    0    0  501 -0.00000000000E+00  0.00000000000E+00  0.17601778715E+04  0.17601778715E+04  0.50400000000E-02 0.  1.
          1   -1    0    0  501    0  0.00000000000E+00 -0.00000000000E+00 -0.15934595663E+04  0.15934595663E+04  0.50400000000E-02 0. -1.
    8880023    1    1    2    0    0 -0.69651823542E+03 -0.12304826170E+04  0.84938854679E+03  0.17760901533E+04  0.65864270000E+03 0.  0.
    8880022    1    1    2    0    0  0.69651823542E+03  0.12304826170E+04 -0.68267024162E+03  0.15775472845E+04  0.15294330000E+03 0.  0.
<mgrwt>
<rscale>  0 0.15242102E+04</rscale>
<asrwt>0</asrwt>
<pdfrwt beam="1">  1        1 0.24514763E+00 0.15598190E+04</pdfrwt>
<pdfrwt beam="2">  1       -1 0.27079660E+00 0.15598190E+04</pdfrwt>
<totfact> 0.27018688E-01</totfact>
</mgrwt>
</event>
<event>
 4    1  0.2514307E-008  0.1547236E+04  0.7818608E-02  0.8876982E-01
         -1   -1    0    0    0  501 -0.00000000000E+00  0.00000000000E+00  0.27109610580E+04  0.27109610580E+04  0.50400000000E-02 0.  1.
          1   -1    0    0  501    0  0.00000000000E+00 -0.00000000000E+00 -0.14026807989E+04  0.14026807989E+04  0.50400000000E-02 0. -1.
    8880023    1    1    2    0    0 -0.76268269569E+03  0.11740713791E+04  0.20128984352E+04  0.25388380835E+04  0.65864270000E+03 0.  0.
    8880022    1    1    2    0    0  0.76268269569E+03 -0.11740713791E+04 -0.70461817610E+03  0.15748037734E+04  0.15294330000E+03 0.  0.
<mgrwt>
<rscale>  0 0.15112871E+04</rscale>
<asrwt>0</asrwt>
<pdfrwt beam="1">  1        1 0.21579705E+00 0.15472358E+04</pdfrwt>
<pdfrwt beam="2">  1       -1 0.41707093E+00 0.15472358E+04</pdfrwt>
<totfact> 0.39340070E-02</totfact>
</mgrwt>
</event>
<event>
 4    1  0.2514307E-008  0.8326446E+03  0.7818608E-02  0.9644209E-01
         -1   -1    0    0    0  501 -0.00000000000E+00  0.00000000000E+00  0.26024648872E+04  0.26024648872E+04  0.50400000000E-02 0.  1.
          1   -1    0    0  501    0  0.00000000000E+00 -0.00000000000E+00 -0.66729541392E+03  0.66729541393E+03  0.50400000000E-02 0. -1.
    8880023    1    1    2    0    0  0.14894312496E+02  0.50918073328E+03  0.24143368978E+04  0.25538832632E+04  0.65864270000E+03 0.  1.
    8880022    1    1    2    0    0 -0.14894312496E+02 -0.50918073328E+03 -0.47916742453E+03  0.71587703793E+03  0.15294330000E+03 0.  0.
<mgrwt>
<rscale>  0 0.74438010E+03</rscale>
<asrwt>0</asrwt>
<pdfrwt beam="1">  1        1 0.10266083E+00 0.83264462E+03</pdfrwt>
<pdfrwt beam="2">  1       -1 0.40037922E+00 0.83264462E+03</pdfrwt>
<totfact> 0.22026479E-01</totfact>
</mgrwt>
</event>
<event>
 4    1  0.2514307E-008  0.7051698E+03  0.7818608E-02  0.9976395E-01
          1   -1    0    0  501    0  0.00000000000E+00  0.00000000000E+00  0.22310409136E+04  0.22310409136E+04  0.50400000000E-02 0. -1.
         -1   -1    0    0    0  501 -0.00000000000E+00 -0.00000000000E+00 -0.14027331218E+03  0.14027331227E+03  0.50400000000E-02 0.  1.
    8880023    1    1    2    0    0 -0.12993430883E+03  0.21580374938E+03  0.89315399556E+03  0.11379755924E+04  0.65864270000E+03 0.  0.
    8880022    1    1    2    0    0  0.12993430883E+03 -0.21580374938E+03  0.11976136059E+04  0.12333386335E+04  0.15294330000E+03 0.  0.
<mgrwt>
<rscale>  0 0.56697497E+03</rscale>
<asrwt>0</asrwt>
<pdfrwt beam="1">  1        1 0.34323706E+00 0.70516976E+03</pdfrwt>
<pdfrwt beam="2">  1       -1 0.21580510E-01 0.70516976E+03</pdfrwt>
<totfact> 0.39006020E+01</totfact>
</mgrwt>
</event>
<event>
 4    1  0.2514307E-008  0.1339796E+04  0.7818608E-02  0.9031933E-01
          1   -1    0    0  501    0  0.00000000000E+00  0.00000000000E+00  0.26532457497E+04  0.26532457497E+04  0.50400000000E-02 0. -1.
         -1   -1    0    0    0  501 -0.00000000000E+00 -0.00000000000E+00 -0.10524740201E+04  0.10524740201E+04  0.50400000000E-02 0.  1.
    8880023    1    1    2    0    0 -0.10089149691E+04 -0.58594757565E+03 -0.38805401334E+03  0.13948620361E+04  0.65864270000E+03 0.  1.
    8880022    1    1    2    0    0  0.10089149691E+04  0.58594757565E+03  0.19888257430E+04  0.23108577337E+04  0.15294330000E+03 0.  0.
<mgrwt>
<rscale>  0 0.12970181E+04</rscale>
<asrwt>0</asrwt>
<pdfrwt beam="1">  1        1 0.40819165E+00 0.13397963E+04</pdfrwt>
<pdfrwt beam="2">  1       -1 0.16191908E+00 0.13397963E+04</pdfrwt>
<totfact> 0.28982268E-01</totfact>
</mgrwt>
</event>
<event>
 4    1  0.2514307E-008  0.8326790E+03  0.7818608E-02  0.9644142E-01
          1   -1    0    0  501    0  0.00000000000E+00  0.00000000000E+00  0.95427179381E+03  0.95427179383E+03  0.50400000000E-02 0. -1.
         -1   -1    0    0    0  501 -0.00000000000E+00 -0.00000000000E+00 -0.20452090485E+04  0.20452090485E+04  0.50400000000E-02 0.  1.
    8880023    1    1    2    0    0  0.94301984729E+01  0.50936737854E+03 -0.18752503868E+04  0.20518085375E+04  0.65864270000E+03 0.  1.
    8880022    1    1    2    0    0 -0.94301984729E+01 -0.50936737854E+03  0.78431313218E+03  0.94767230480E+03  0.15294330000E+03 0.  0.
<mgrwt>
<rscale>  0 0.74442194E+03</rscale>
<asrwt>0</asrwt>
<pdfrwt beam="1">  1        1 0.14681105E+00 0.83267897E+03</pdfrwt>
<pdfrwt beam="2">  1       -1 0.31464755E+00 0.83267897E+03</pdfrwt>
<totfact> 0.45646255E-01</totfact>
</mgrwt>
</event>
<event>
 4    1  0.2514307E-008  0.9082669E+03  0.7818608E-02  0.9512889E-01
          1   -1    0    0  501    0  0.00000000000E+00  0.00000000000E+00  0.29144238778E+04  0.29144238778E+04  0.50400000000E-02 0. -1.
         -1   -1    0    0    0  501 -0.00000000000E+00 -0.00000000000E+00 -0.85049685842E+03  0.85049685844E+03  0.50400000000E-02 0.  1.
    8880023    1    1    2    0    0 -0.61225446304E+03  0.12760508748E+03 -0.55741137359E+03  0.10656717278E+04  0.65864270000E+03 0.  1.
    8880022    1    1    2    0    0  0.61225446304E+03 -0.12760508748E+03  0.26213383930E+04  0.26992490084E+04  0.15294330000E+03 0.  0.
<mgrwt>
<rscale>  0 0.83340221E+03</rscale>
<asrwt>0</asrwt>
<pdfrwt beam="1">  1        1 0.44837290E+00 0.90826692E+03</pdfrwt>
<pdfrwt beam="2">  1       -1 0.13084567E+00 0.90826692E+03</pdfrwt>
<totfact> 0.35933253E-01</totfact>
</mgrwt>
</event>
<event>
 4    1  0.2514307E-008  0.1452278E+04  0.7818608E-02  0.8944091E-01
         -1   -1    0    0    0  501 -0.00000000000E+00  0.00000000000E+00  0.16874791806E+04  0.16874791806E+04  0.50400000000E-02 0.  1.
          1   -1    0    0  501    0  0.00000000000E+00 -0.00000000000E+00 -0.12952447140E+04  0.12952447140E+04  0.50400000000E-02 0. -1.
    8880023    1    1    2    0    0  0.88266982730E+03 -0.94667533956E+03  0.74537697227E+03  0.16323900452E+04  0.65864270000E+03 0.  0.
    8880022    1    1    2    0    0 -0.88266982730E+03  0.94667533956E+03 -0.35314250568E+03  0.13503338494E+04  0.15294330000E+03 0.  0.
<mgrwt>
<rscale>  0 0.14135187E+04</rscale>
<asrwt>0</asrwt>
<pdfrwt beam="1">  1        1 0.19926842E+00 0.14522777E+04</pdfrwt>
<pdfrwt beam="2">  1       -1 0.25961218E+00 0.14522777E+04</pdfrwt>
<totfact> 0.52401899E-01</totfact>
</mgrwt>
</event>
<event>
 4    1  0.2514307E-008  0.8861324E+03  0.7818608E-02  0.9548671E-01
          1   -1    0    0  501    0  0.00000000000E+00  0.00000000000E+00  0.11613851500E+04  0.11613851500E+04  0.50400000000E-02 0. -1.
         -1   -1    0    0    0  501 -0.00000000000E+00 -0.00000000000E+00 -0.54717591119E+03  0.54717591121E+03  0.50400000000E-02 0.  1.
    8880023    1    1    2    0    0 -0.53257397769E+03 -0.26035616053E+03  0.69084164872E+02  0.88882124195E+03  0.65864270000E+03 0.  0.
    8880022    1    1    2    0    0  0.53257397769E+03  0.26035616053E+03  0.54512507394E+03  0.81973981927E+03  0.15294330000E+03 0.  0.
<mgrwt>
<rscale>  0 0.80788704E+03</rscale>
<asrwt>0</asrwt>
<pdfrwt beam="1">  1        1 0.17867464E+00 0.88613237E+03</pdfrwt>
<pdfrwt beam="2">  1       -1 0.84180911E-01 0.88613237E+03</pdfrwt>
<totfact> 0.16193040E+01</totfact>
</mgrwt>
</event>
<event>
 4    1  0.2514307E-008  0.9287122E+03  0.7818608E-02  0.9481428E-01
          1   -1    0    0  501    0  0.00000000000E+00  0.00000000000E+00  0.10014751723E+04  0.10014751723E+04  0.50400000000E-02 0. -1.
         -1   -1    0    0    0  501 -0.00000000000E+00 -0.00000000000E+00 -0.22697796093E+04  0.22697796093E+04  0.50400000000E-02 0.  1.
    8880023    1    1    2    0    0 -0.16916344301E+03  0.63251872666E+03 -0.20437709264E+04  0.22448844103E+04  0.65864270000E+03 0.  0.
    8880022    1    1    2    0    0  0.16916344301E+03 -0.63251872666E+03  0.77546648929E+03  0.10263703713E+04  0.15294330000E+03 0.  0.
<mgrwt>
<rscale>  0 0.85667034E+03</rscale>
<asrwt>0</asrwt>
<pdfrwt beam="1">  1        1 0.15407310E+00 0.92871224E+03</pdfrwt>
<pdfrwt beam="2">  1       -1 0.34919686E+00 0.92871224E+03</pdfrwt>
<totfact> 0.24538040E-01</totfact>
</mgrwt>
</event>
<event>
 4    1  0.2514307E-008  0.9976883E+03  0.7818608E-02  0.9384588E-01
          1   -1    0    0  501    0  0.00000000000E+00  0.00000000000E+00  0.90129205418E+03  0.90129205419E+03  0.50400000000E-02 0. -1.
         -1   -1    0    0    0  501 -0.00000000000E+00 -0.00000000000E+00 -0.15315210377E+04  0.15315210377E+04  0.50400000000E-02 0.  1.
    8880023    1    1    2    0    0 -0.74139608957E+03 -0.10910341237E+03 -0.11390410840E+04  0.15141983072E+04  0.65864270000E+03 0.  1.
    8880022    1    1    2    0    0  0.74139608957E+03  0.10910341237E+03  0.50881210041E+03  0.91861478475E+03  0.15294330000E+03 0.  0.
<mgrwt>
<rscale>  0 0.93354926E+03</rscale>
<asrwt>0</asrwt>
<pdfrwt beam="1">  1        1 0.13866032E+00 0.99768829E+03</pdfrwt>
<pdfrwt beam="2">  1       -1 0.23561862E+00 0.99768829E+03</pdfrwt>
<totfact> 0.15838230E+00</totfact>
</mgrwt>
</event>
<event>
 4    1  0.2514307E-008  0.1057059E+04  0.7818608E-02  0.9310444E-01
          1   -1    0    0  501    0  0.00000000000E+00  0.00000000000E+00  0.15115334495E+04  0.15115334495E+04  0.50400000000E-02 0. -1.
         -1   -1    0    0    0  501 -0.00000000000E+00 -0.00000000000E+00 -0.10668986385E+04  0.10668986385E+04  0.50400000000E-02 0.  1.
    8880023    1    1    2    0    0 -0.80937101138E+03  0.16876446899E+03 -0.61716890542E+03  0.12240386204E+04  0.65864270000E+03 0.  0.
    8880022    1    1    2    0    0  0.80937101138E+03 -0.16876446899E+03  0.10618037164E+04  0.13543934676E+04  0.15294330000E+03 0.  0.
<mgrwt>
<rscale>  0 0.99827056E+03</rscale>
<asrwt>0</asrwt>
<pdfrwt beam="1">  1        1 0.23254361E+00 0.10570587E+04</pdfrwt>
<pdfrwt beam="2">  1       -1 0.16413825E+00 0.10570587E+04</pdfrwt>
<totfact> 0.17433542E+00</totfact>
</mgrwt>
</event>
<event>
 4    1  0.2514307E-008  0.1050576E+04  0.7818608E-02  0.9318189E-01
          1   -1    0    0  501    0  0.00000000000E+00  0.00000000000E+00  0.17337814880E+04  0.17337814880E+04  0.50400000000E-02 0. -1.
         -1   -1    0    0    0  501 -0.00000000000E+00 -0.00000000000E+00 -0.13356113324E+04  0.13356113324E+04  0.50400000000E-02 0.  1.
    8880023    1    1    2    0    0  0.76132346260E+03 -0.30047846438E+03 -0.99460634010E+03  0.14467040818E+04  0.65864270000E+03 0.  0.
    8880022    1    1    2    0    0 -0.76132346260E+03  0.30047846438E+03  0.13927764957E+04  0.16226887386E+04  0.15294330000E+03 0.  0.
<mgrwt>
<rscale>  0 0.99125481E+03</rscale>
<asrwt>0</asrwt>
<pdfrwt beam="1">  1        1 0.26673561E+00 0.10505765E+04</pdfrwt>
<pdfrwt beam="2">  1       -1 0.20547867E+00 0.10505765E+04</pdfrwt>
<totfact> 0.62480840E-01</totfact>
</mgrwt>
</event>
<event>
 4    1  0.2514307E-008  0.1051452E+04  0.7818608E-02  0.9317138E-01
         -1   -1    0    0    0  501 -0.00000000000E+00  0.00000000000E+00  0.53219627409E+03  0.53219627411E+03  0.50400000000E-02 0.  1.
          1   -1    0    0  501    0  0.00000000000E+00 -0.00000000000E+00 -0.22768381885E+04  0.22768381885E+04  0.50400000000E-02 0. -1.
    8880023    1    1    2    0    0 -0.64854382382E+03  0.50113126132E+03 -0.22433456786E+03  0.10751175922E+04  0.65864270000E+03 0.  0.
    8880022    1    1    2    0    0  0.64854382382E+03 -0.50113126132E+03 -0.15203073466E+04  0.17339168704E+04  0.15294330000E+03 0.  0.
<mgrwt>
<rscale>  0 0.99220332E+03</rscale>
<asrwt>0</asrwt>
<pdfrwt beam="1">  1        1 0.35028279E+00 0.10514523E+04</pdfrwt>
<pdfrwt beam="2">  1       -1 0.81876351E-01 0.10514523E+04</pdfrwt>
<totfact> 0.28886645E+00</totfact>
</mgrwt>
</event>
<event>
 4    1  0.2514307E-008  0.7613520E+03  0.7818608E-02  0.9801620E-01
         -1   -1    0    0    0  501 -0.00000000000E+00  0.00000000000E+00  0.81904176843E+03  0.81904176844E+03  0.50400000000E-02 0.  1.
          1   -1    0    0  501    0  0.00000000000E+00 -0.00000000000E+00 -0.76814301453E+03  0.76814301455E+03  0.50400000000E-02 0. -1.
    8880023    1    1    2    0    0 -0.38144814367E+03 -0.18547286512E+02  0.55085455222E+03  0.93973274504E+03  0.65864270000E+03 0.  1.
    8880022    1    1    2    0    0  0.38144814367E+03  0.18547286512E+02 -0.49995579832E+03  0.64745203794E+03  0.15294330000E+03 0.  0.
<mgrwt>
<rscale>  0 0.65275690E+03</rscale>
<asrwt>0</asrwt>
<pdfrwt beam="1">  1        1 0.11817585E+00 0.76135202E+03</pdfrwt>
<pdfrwt beam="2">  1       -1 0.12600643E+00 0.76135202E+03</pdfrwt>
<totfact> 0.13301618E+01</totfact>
</mgrwt>
</event>
<event>
 4    1  0.2514307E-008  0.9780870E+03  0.7818608E-02  0.9410805E-01
          1   -1    0    0  501    0  0.00000000000E+00  0.00000000000E+00  0.23749800016E+04  0.23749800016E+04  0.50400000000E-02 0. -1.
         -1   -1    0    0    0  501 -0.00000000000E+00 -0.00000000000E+00 -0.56609989005E+03  0.56609989007E+03  0.50400000000E-02 0.  1.
    8880023    1    1    2    0    0  0.49422584583E+03  0.52781127175E+03 -0.96138045191E+01  0.97813422227E+03  0.65864270000E+03 0.  1.
    8880022    1    1    2    0    0 -0.49422584583E+03 -0.52781127175E+03  0.18184939161E+04  0.19629456694E+04  0.15294330000E+03 0.  0.
<mgrwt>
<rscale>  0 0.91191761E+03</rscale>
<asrwt>0</asrwt>
<pdfrwt beam="1">  1        1 0.36538154E+00 0.97808698E+03</pdfrwt>
<pdfrwt beam="2">  1       -1 0.87092290E-01 0.97808698E+03</pdfrwt>
<totfact> 0.21893437E+00</totfact>
</mgrwt>
</event>
<event>
 4    1  0.2514307E-008  0.1087852E+04  0.7818608E-02  0.9274703E-01
          1   -1    0    0  501    0  0.00000000000E+00  0.00000000000E+00  0.14612117666E+04  0.14612117666E+04  0.50400000000E-02 0. -1.
         -1   -1    0    0    0  501 -0.00000000000E+00 -0.00000000000E+00 -0.76966619060E+03  0.76966619062E+03  0.50400000000E-02 0.  1.
    8880023    1    1    2    0    0 -0.86569473913E+03 -0.13617840886E+02 -0.37837288403E+02  0.10885103094E+04  0.65864270000E+03 0.  0.
    8880022    1    1    2    0    0  0.86569473913E+03  0.13617840886E+02  0.72938286438E+03  0.11423676478E+04  0.15294330000E+03 0.  0.
<mgrwt>
<rscale>  0 0.10314549E+04</rscale>
<asrwt>0</asrwt>
<pdfrwt beam="1">  1        1 0.22480181E+00 0.10878525E+04</pdfrwt>
<pdfrwt beam="2">  1       -1 0.11841018E+00 0.10878525E+04</pdfrwt>
<totfact> 0.44290170E+00</totfact>
</mgrwt>
</event>
<event>
 4    1  0.2514307E-008  0.8752262E+03  0.7818608E-02  0.9567033E-01
         -1   -1    0    0    0  501 -0.00000000000E+00  0.00000000000E+00  0.69340278034E+03  0.69340278036E+03  0.50400000000E-02 0.  1.
          1   -1    0    0  501    0  0.00000000000E+00 -0.00000000000E+00 -0.14453567594E+04  0.14453567594E+04  0.50400000000E-02 0. -1.
    8880023    1    1    2    0    0 -0.40504819543E+03  0.41005683828E+03  0.30361701193E+03  0.92639308473E+03  0.65864270000E+03 0.  1.
    8880022    1    1    2    0    0  0.40504819543E+03 -0.41005683828E+03 -0.10555709910E+04  0.12123664550E+04  0.15294330000E+03 0.  0.
<mgrwt>
<rscale>  0 0.79517148E+03</rscale>
<asrwt>0</asrwt>
<pdfrwt beam="1">  1        1 0.22236258E+00 0.87522618E+03</pdfrwt>
<pdfrwt beam="2">  1       -1 0.10667735E+00 0.87522618E+03</pdfrwt>
<totfact> 0.59815839E+00</totfact>
</mgrwt>
</event>
<event>
 4    1  0.2514307E-008  0.8277381E+03  0.7818608E-02  0.9653749E-01
         -1   -1    0    0    0  501 -0.00000000000E+00  0.00000000000E+00  0.44673860333E+03  0.44673860336E+03  0.50400000000E-02 0.  1.
          1   -1    0    0  501    0  0.00000000000E+00 -0.00000000000E+00 -0.11000102155E+04  0.11000102156E+04  0.50400000000E-02 0. -1.
    8880023    1    1    2    0    0 -0.22007156707E+03  0.45045386362E+03 -0.19473080261E+03  0.85033550416E+03  0.65864270000E+03 0.  0.
    8880022    1    1    2    0    0  0.22007156707E+03 -0.45045386362E+03 -0.45854080961E+03  0.69641331476E+03  0.15294330000E+03 0.  1.
<mgrwt>
<rscale>  0 0.73838580E+03</rscale>
<asrwt>0</asrwt>
<pdfrwt beam="1">  1        1 0.16923234E+00 0.82773811E+03</pdfrwt>
<pdfrwt beam="2">  1       -1 0.68729016E-01 0.82773811E+03</pdfrwt>
<totfact> 0.27694740E+01</totfact>
</mgrwt>
</event>
<event>
 4    1  0.2514307E-008  0.1144067E+04  0.7818608E-02  0.9213509E-01
         -1   -1    0    0    0  501 -0.00000000000E+00  0.00000000000E+00  0.12932576219E+04  0.12932576219E+04  0.50400000000E-02 0.  1.
          1   -1    0    0  501    0  0.00000000000E+00 -0.00000000000E+00 -0.29914917901E+04  0.29914917901E+04  0.50400000000E-02 0. -1.
    8880023    1    1    2    0    0  0.78327226410E+03 -0.51143324772E+03  0.94044244697E+03  0.14809867011E+04  0.65864270000E+03 0.  1.
    8880022    1    1    2    0    0 -0.78327226410E+03  0.51143324772E+03 -0.26386766152E+04  0.28037627109E+04  0.15294330000E+03 0.  0.
<mgrwt>
<rscale>  0 0.10915073E+04</rscale>
<asrwt>0</asrwt>
<pdfrwt beam="1">  1        1 0.46022951E+00 0.11440671E+04</pdfrwt>
<pdfrwt beam="2">  1       -1 0.19896271E+00 0.11440671E+04</pdfrwt>
<totfact> 0.92893377E-02</totfact>
</mgrwt>
</event>
<event>
 4    1  0.2514307E-008  0.6777494E+03  0.7818608E-02  0.1010626E+00
          1   -1    0    0  501    0  0.00000000000E+00  0.00000000000E+00  0.21445928057E+04  0.21445928057E+04  0.50400000000E-02 0. -1.
         -1   -1    0    0    0  501 -0.00000000000E+00 -0.00000000000E+00 -0.43151397496E+03  0.43151397499E+03  0.50400000000E-02 0.  1.
    8880023    1    1    2    0    0 -0.24263478787E+02  0.15794086732E+03 -0.15477853465E+03  0.69519827030E+03  0.65864270000E+03 0.  1.
    8880022    1    1    2    0    0  0.24263478787E+02 -0.15794086732E+03  0.18678573654E+04  0.18809085104E+04  0.15294330000E+03 0.  0.
<mgrwt>
<rscale>  0 0.51226416E+03</rscale>
<asrwt>0</asrwt>
<pdfrwt beam="1">  1        1 0.32993735E+00 0.67774939E+03</pdfrwt>
<pdfrwt beam="2">  1       -1 0.66386767E-01 0.67774939E+03</pdfrwt>
<totfact> 0.58225801E+00</totfact>
</mgrwt>
</event>
<event>
 4    1  0.2514307E-008  0.1203092E+04  0.7818608E-02  0.9154122E-01
         -1   -1    0    0    0  501 -0.00000000000E+00  0.00000000000E+00  0.61425434043E+03  0.61425434045E+03  0.50400000000E-02 0.  1.
          1   -1    0    0  501    0  0.00000000000E+00 -0.00000000000E+00 -0.27669012104E+04  0.27669012104E+04  0.50400000000E-02 0. -1.
    8880023    1    1    2    0    0 -0.77117945029E+03 -0.64722708598E+03 -0.25839604119E+03  0.12305280841E+04  0.65864270000E+03 0.  0.
    8880022    1    1    2    0    0  0.77117945029E+03  0.64722708598E+03 -0.18942508287E+04  0.21506274667E+04  0.15294330000E+03 0.  0.
<mgrwt>
<rscale>  0 0.11539771E+04</rscale>
<asrwt>0</asrwt>
<pdfrwt beam="1">  1        1 0.42567710E+00 0.12030922E+04</pdfrwt>
<pdfrwt beam="2">  1       -1 0.94500669E-01 0.12030922E+04</pdfrwt>
<totfact> 0.94687625E-01</totfact>
</mgrwt>
</event>
<event>
 4    1  0.5278782E-008  0.1603301E+04  0.7818608E-02  0.8839938E-01
         -1   -1    0    0    0  501 -0.00000000000E+00  0.00000000000E+00  0.22571569216E+04  0.22571569216E+04  0.50400000000E-02 0.  1.
          1   -1    0    0  501    0  0.00000000000E+00 -0.00000000000E+00 -0.36286543032E+04  0.36286543032E+04  0.50400000000E-02 0. -1.
    8880023    1    1    2    0    0  0.63682203158E+03 -0.13157588531E+04  0.17877729865E+04  0.24013967013E+04  0.65864270000E+03 0.  1.
    8880022    1    1    2    0    0 -0.63682203158E+03  0.13157588531E+04 -0.31592703681E+04  0.34844145235E+04  0.15294330000E+03 0.  0.
<mgrwt>
<rscale>  0 0.15688156E+04</rscale>
<asrwt>0</asrwt>
<pdfrwt beam="1">  1        1 0.55825451E+00 0.16033009E+04</pdfrwt>
<pdfrwt beam="2">  1       -1 0.34725491E+00 0.16033009E+04</pdfrwt>
<totfact> 0.29888661E-03</totfact>
</mgrwt>
</event>
<event>
 4    1  0.2514307E-008  0.7608542E+03  0.7818608E-02  0.9802901E-01
         -1   -1    0    0    0  501 -0.00000000000E+00  0.00000000000E+00  0.40805800287E+03  0.40805800290E+03  0.50400000000E-02 0.  1.
          1   -1    0    0  501    0  0.00000000000E+00 -0.00000000000E+00 -0.19049579517E+04  0.19049579517E+04  0.50400000000E-02 0. -1.
    8880023    1    1    2    0    0  0.10414868751E+03 -0.36639041161E+03  0.54011036160E-02  0.76085418388E+03  0.65864270000E+03 0.  1.
    8880022    1    1    2    0    0 -0.10414868751E+03  0.36639041161E+03 -0.14969053499E+04  0.15521617707E+04  0.15294330000E+03 0.  0.
<mgrwt>
<rscale>  0 0.65207086E+03</rscale>
<asrwt>0</asrwt>
<pdfrwt beam="1">  1        1 0.29307045E+00 0.76085418E+03</pdfrwt>
<pdfrwt beam="2">  1       -1 0.62778156E-01 0.76085418E+03</pdfrwt>
<totfact> 0.92808249E+00</totfact>
</mgrwt>
</event>
<event>
 4    1  0.2514307E-008  0.7242467E+03  0.7818608E-02  0.9908470E-01
          1   -1    0    0  501    0  0.00000000000E+00  0.00000000000E+00  0.24189125157E+04  0.24189125157E+04  0.50400000000E-02 0. -1.
         -1   -1    0    0    0  501 -0.00000000000E+00 -0.00000000000E+00 -0.31991389384E+03  0.31991389388E+03  0.50400000000E-02 0.  1.
    8880023    1    1    2    0    0  0.27564043505E+03 -0.12143104255E+03  0.12355830585E+03  0.73471083341E+03  0.65864270000E+03 0.  1.
    8880022    1    1    2    0    0 -0.27564043505E+03  0.12143104255E+03  0.19754403160E+04  0.20041155761E+04  0.15294330000E+03 0.  0.
<mgrwt>
<rscale>  0 0.59852551E+03</rscale>
<asrwt>0</asrwt>
<pdfrwt beam="1">  1        1 0.37214039E+00 0.72424675E+03</pdfrwt>
<pdfrwt beam="2">  1       -1 0.49217522E-01 0.72424675E+03</pdfrwt>
<totfact> 0.67593345E+00</totfact>
</mgrwt>
</event>
<event>
 4    1  0.2514307E-008  0.1374141E+04  0.7818608E-02  0.9004041E-01
         -1   -1    0    0    0  501 -0.00000000000E+00  0.00000000000E+00  0.72568696843E+03  0.72568696845E+03  0.50400000000E-02 0.  1.
          1   -1    0    0  501    0  0.00000000000E+00 -0.00000000000E+00 -0.35033616272E+04  0.35033616272E+04  0.50400000000E-02 0. -1.
    8880023    1    1    2    0    0 -0.89213705527E+03  0.81150790528E+03 -0.21260906404E+03  0.13904914333E+04  0.65864270000E+03 0.  0.
    8880022    1    1    2    0    0  0.89213705527E+03 -0.81150790528E+03 -0.25650655948E+04  0.28385571624E+04  0.15294330000E+03 0.  0.
<mgrwt>
<rscale>  0 0.13326838E+04</rscale>
<asrwt>0</asrwt>
<pdfrwt beam="1">  1        1 0.53897870E+00 0.13741411E+04</pdfrwt>
<pdfrwt beam="2">  1       -1 0.11164415E+00 0.13741411E+04</pdfrwt>
<totfact> 0.17889387E-01</totfact>
</mgrwt>
</event>
<event>
 4    1  0.2514307E-008  0.8444475E+03  0.7818608E-02  0.9621850E-01
          1   -1    0    0  501    0  0.00000000000E+00  0.00000000000E+00  0.12542348804E+04  0.12542348804E+04  0.50400000000E-02 0. -1.
         -1   -1    0    0    0  501 -0.00000000000E+00 -0.00000000000E+00 -0.84076053130E+03  0.84076053131E+03  0.50400000000E-02 0.  1.
    8880023    1    1    2    0    0 -0.42587025739E+03 -0.31291510857E+03 -0.53418093184E+03  0.99922010363E+03  0.65864270000E+03 0.  0.
    8880022    1    1    2    0    0  0.42587025739E+03  0.31291510857E+03  0.94765528098E+03  0.10957753081E+04  0.15294330000E+03 0.  0.
<mgrwt>
<rscale>  0 0.75866700E+03</rscale>
<asrwt>0</asrwt>
<pdfrwt beam="1">  1        1 0.19295921E+00 0.84444748E+03</pdfrwt>
<pdfrwt beam="2">  1       -1 0.12934777E+00 0.84444748E+03</pdfrwt>
<totfact> 0.51319474E+00</totfact>
</mgrwt>
</event>
<event>
 4    1  0.2514307E-008  0.8493436E+03  0.7818608E-02  0.9612808E-01
         -1   -1    0    0    0  501 -0.00000000000E+00  0.00000000000E+00  0.76724528098E+03  0.76724528099E+03  0.50400000000E-02 0.  1.
          1   -1    0    0  501    0  0.00000000000E+00 -0.00000000000E+00 -0.65813835592E+03  0.65813835594E+03  0.50400000000E-02 0. -1.
    8880023    1    1    2    0    0 -0.41813725044E+03 -0.33576111929E+03 -0.32768499187E+02  0.84997545273E+03  0.65864270000E+03 0.  1.
    8880022    1    1    2    0    0  0.41813725044E+03  0.33576111929E+03  0.14187542424E+03  0.57540818421E+03  0.15294330000E+03 0. -1.
<mgrwt>
<rscale>  0 0.76454254E+03</rscale>
<asrwt>0</asrwt>
<pdfrwt beam="1">  1        1 0.10125206E+00 0.84934357E+03</pdfrwt>
<pdfrwt beam="2">  1       -1 0.11803773E+00 0.84934357E+03</pdfrwt>
<totfact> 0.19580384E+01</totfact>
</mgrwt>
</event>
<event>
 4    1  0.2514307E-008  0.8255511E+03  0.7818608E-02  0.9658051E-01
         -1   -1    0    0    0  501 -0.00000000000E+00  0.00000000000E+00  0.76767780191E+03  0.76767780193E+03  0.50400000000E-02 0.  1.
          1   -1    0    0  501    0  0.00000000000E+00 -0.00000000000E+00 -0.11002237680E+04  0.11002237680E+04  0.50400000000E-02 0. -1.
    8880023    1    1    2    0    0 -0.48630585561E+03 -0.10597645948E+03  0.44060043409E+03  0.93576885177E+03  0.65864270000E+03 0.  0.
    8880022    1    1    2    0    0  0.48630585561E+03  0.10597645948E+03 -0.77314640018E+03  0.93213271817E+03  0.15294330000E+03 0. -1.
<mgrwt>
<rscale>  0 0.73570273E+03</rscale>
<asrwt>0</asrwt>
<pdfrwt beam="1">  1        1 0.16926520E+00 0.82555109E+03</pdfrwt>
<pdfrwt beam="2">  1       -1 0.11810428E+00 0.82555109E+03</pdfrwt>
<totfact> 0.83511053E+00</totfact>
</mgrwt>
</event>
<event>
 4    1  0.2514307E-008  0.6592358E+03  0.7818608E-02  0.1024953E+00
          1   -1    0    0  501    0  0.00000000000E+00  0.00000000000E+00  0.17877749575E+04  0.17877749575E+04  0.50400000000E-02 0. -1.
         -1   -1    0    0    0  501 -0.00000000000E+00 -0.00000000000E+00 -0.14359939302E+04  0.14359939302E+04  0.50400000000E-02 0.  1.
    8880023    1    1    2    0    0 -0.14988322232E+02 -0.23601606777E+02 -0.13566168724E+04  0.15083107208E+04  0.65864270000E+03 0.  1.
    8880022    1    1    2    0    0  0.14988322232E+02  0.23601606777E+02  0.17083978998E+04  0.17154581669E+04  0.15294330000E+03 0.  0.
<mgrwt>
<rscale>  0 0.45940708E+03</rscale>
<asrwt>0</asrwt>
<pdfrwt beam="1">  1        1 0.27504230E+00 0.65923584E+03</pdfrwt>
<pdfrwt beam="2">  1       -1 0.22092214E+00 0.65923584E+03</pdfrwt>
<totfact> 0.48983823E-01</totfact>
</mgrwt>
</event>
<event>
 4    1  0.2514307E-008  0.1954133E+04  0.7818608E-02  0.8641750E-01
         -1   -1    0    0    0  501 -0.00000000000E+00  0.00000000000E+00  0.18576849651E+04  0.18576849651E+04  0.50400000000E-02 0.  1.
          1   -1    0    0  501    0  0.00000000000E+00 -0.00000000000E+00 -0.28793996404E+04  0.28793996404E+04  0.50400000000E-02 0. -1.
    8880023    1    1    2    0    0  0.21036269017E+03  0.18277234636E+04  0.82928176882E+03  0.21228151072E+04  0.65864270000E+03 0.  0.
    8880022    1    1    2    0    0 -0.21036269017E+03 -0.18277234636E+04 -0.18509964441E+04  0.26142694984E+04  0.15294330000E+03 0.  0.
<mgrwt>
<rscale>  0 0.19265554E+04</rscale>
<asrwt>0</asrwt>
<pdfrwt beam="1">  1        1 0.44298456E+00 0.19541330E+04</pdfrwt>
<pdfrwt beam="2">  1       -1 0.28579769E+00 0.19541330E+04</pdfrwt>
<totfact> 0.26602692E-02</totfact>
</mgrwt>
</event>
<event>
 4    1  0.2514307E-008  0.1135829E+04  0.7818608E-02  0.9222176E-01
          1   -1    0    0  501    0  0.00000000000E+00  0.00000000000E+00  0.26384510671E+04  0.26384510671E+04  0.50400000000E-02 0. -1.
         -1   -1    0    0    0  501 -0.00000000000E+00 -0.00000000000E+00 -0.40846682678E+03  0.40846682682E+03  0.50400000000E-02 0.  1.
    8880023    1    1    2    0    0 -0.37615677106E+03 -0.84546026619E+03  0.11464564550E+04  0.16138369148E+04  0.65864270000E+03 0.  0.
    8880022    1    1    2    0    0  0.37615677106E+03  0.84546026619E+03  0.10835277853E+04  0.14330809791E+04  0.15294330000E+03 0.  1.
<mgrwt>
<rscale>  0 0.10827440E+04</rscale>
<asrwt>0</asrwt>
<pdfrwt beam="1">  1        1 0.40591555E+00 0.11358289E+04</pdfrwt>
<pdfrwt beam="2">  1       -1 0.62841050E-01 0.11358289E+04</pdfrwt>
<totfact> 0.27931342E+00</totfact>
</mgrwt>
</event>
<event>
 4    1  0.2514307E-008  0.6730913E+03  0.7818608E-02  0.1013537E+00
          1   -1    0    0  501    0  0.00000000000E+00  0.00000000000E+00  0.16136750875E+04  0.16136750875E+04  0.50400000000E-02 0. -1.
         -1   -1    0    0    0  501 -0.00000000000E+00 -0.00000000000E+00 -0.33843049133E+03  0.33843049137E+03  0.50400000000E-02 0.  1.
    8880023    1    1    2    0    0 -0.39591896689E+02 -0.13294443870E+03  0.13136774105E+02  0.67321952078E+03  0.65864270000E+03 0.  1.
    8880022    1    1    2    0    0  0.39591896689E+02  0.13294443870E+03  0.12621078221E+04  0.12788860581E+04  0.15294330000E+03 0.  0.
<mgrwt>
<rscale>  0 0.50092677E+03</rscale>
<asrwt>0</asrwt>
<pdfrwt beam="1">  1        1 0.24825770E+00 0.67309134E+03</pdfrwt>
<pdfrwt beam="2">  1       -1 0.52066230E-01 0.67309134E+03</pdfrwt>
<totfact> 0.21235237E+01</totfact>
</mgrwt>
</event>
<event>
 4    1  0.2514307E-008  0.8814860E+03  0.7818608E-02  0.9556431E-01
         -1   -1    0    0    0  501 -0.00000000000E+00  0.00000000000E+00  0.10297893835E+04  0.10297893835E+04  0.50400000000E-02 0.  1.
          1   -1    0    0  501    0  0.00000000000E+00 -0.00000000000E+00 -0.24462327799E+04  0.24462327799E+04  0.50400000000E-02 0. -1.
    8880023    1    1    2    0    0 -0.47736024670E+03 -0.33960935268E+03  0.79264864841E+03  0.11854574660E+04  0.65864270000E+03 0.  1.
    8880022    1    1    2    0    0  0.47736024670E+03  0.33960935268E+03 -0.22090920448E+04  0.22905646974E+04  0.15294330000E+03 0.  0.
<mgrwt>
<rscale>  0 0.80248230E+03</rscale>
<asrwt>0</asrwt>
<pdfrwt beam="1">  1        1 0.37634350E+00 0.88148597E+03</pdfrwt>
<pdfrwt beam="2">  1       -1 0.15842914E+00 0.88148597E+03</pdfrwt>
<totfact> 0.46140349E-01</totfact>
</mgrwt>
</event>
<event>
 4    1  0.2514307E-008  0.9482175E+03  0.7818608E-02  0.9452683E-01
         -1   -1    0    0    0  501 -0.00000000000E+00  0.00000000000E+00  0.14294989857E+04  0.14294989857E+04  0.50400000000E-02 0.  1.
          1   -1    0    0  501    0  0.00000000000E+00 -0.00000000000E+00 -0.92250385799E+03  0.92250385801E+03  0.50400000000E-02 0. -1.
    8880023    1    1    2    0    0 -0.30300379837E+03  0.61114236187E+03  0.10878564198E+04  0.14431036292E+04  0.65864270000E+03 0.  1.
    8880022    1    1    2    0    0  0.30300379837E+03 -0.61114236187E+03 -0.58086129214E+03  0.90889921445E+03  0.15294330000E+03 0.  0.
<mgrwt>
<rscale>  0 0.87864016E+03</rscale>
<asrwt>0</asrwt>
<pdfrwt beam="1">  1        1 0.14192367E+00 0.94821754E+03</pdfrwt>
<pdfrwt beam="2">  1       -1 0.21992292E+00 0.94821754E+03</pdfrwt>
<totfact> 0.19458769E+00</totfact>
</mgrwt>
</event>
<event>
 4    1  0.2514307E-008  0.7211994E+03  0.7818608E-02  0.9918548E-01
         -1   -1    0    0    0  501 -0.00000000000E+00  0.00000000000E+00  0.71512208131E+03  0.71512208132E+03  0.50400000000E-02 0.  1.
          1   -1    0    0  501    0  0.00000000000E+00 -0.00000000000E+00 -0.14324100025E+04  0.14324100025E+04  0.50400000000E-02 0. -1.
    8880023    1    1    2    0    0  0.22288878611E+03 -0.19141304625E+03  0.50547572526E+03  0.88070101643E+03  0.65864270000E+03 0.  1.
    8880022    1    1    2    0    0 -0.22288878611E+03  0.19141304625E+03 -0.12227636464E+04  0.12668310674E+04  0.15294330000E+03 0.  0.
<mgrwt>
<rscale>  0 0.59370718E+03</rscale>
<asrwt>0</asrwt>
<pdfrwt beam="1">  1        1 0.22037077E+00 0.72119940E+03</pdfrwt>
<pdfrwt beam="2">  1       -1 0.11001878E+00 0.72119940E+03</pdfrwt>
<totfact> 0.58134205E+00</totfact>
</mgrwt>
</event>
<event>
 4    1  0.2514307E-008  0.1222020E+04  0.7818608E-02  0.9136009E-01
         -1   -1    0    0    0  501 -0.00000000000E+00  0.00000000000E+00  0.24512656059E+04  0.24512656059E+04  0.50400000000E-02 0.  1.
          1   -1    0    0  501    0  0.00000000000E+00 -0.00000000000E+00 -0.10227401625E+04  0.10227401625E+04  0.50400000000E-02 0. -1.
    8880023    1    1    2    0    0  0.88680811300E+03  0.52258321766E+03  0.19567471156E+04  0.23069875009E+04  0.65864270000E+03 0.  1.
    8880022    1    1    2    0    0 -0.88680811300E+03 -0.52258321766E+03 -0.52822167219E+03  0.11670182675E+04  0.15294330000E+03 0.  0.
<mgrwt>
<rscale>  0 0.11739048E+04</rscale>
<asrwt>0</asrwt>
<pdfrwt beam="1">  1        1 0.15734464E+00 0.12220197E+04</pdfrwt>
<pdfrwt beam="2">  1       -1 0.37711778E+00 0.12220197E+04</pdfrwt>
<totfact> 0.14679236E-01</totfact>
</mgrwt>
</event>
<event>
 4    1  0.2514307E-008  0.7482100E+03  0.7818608E-02  0.9836647E-01
         -1   -1    0    0    0  501 -0.00000000000E+00  0.00000000000E+00  0.49661337495E+03  0.49661337497E+03  0.50400000000E-02 0.  1.
          1   -1    0    0  501    0  0.00000000000E+00 -0.00000000000E+00 -0.10568239336E+04  0.10568239336E+04  0.50400000000E-02 0. -1.
    8880023    1    1    2    0    0  0.34891434946E+03  0.65320338903E+02  0.13281919591E+03  0.75990730685E+03  0.65864270000E+03 0.  1.
    8880022    1    1    2    0    0 -0.34891434946E+03 -0.65320338903E+02 -0.69302975457E+03  0.79353000174E+03  0.15294330000E+03 0.  0.
<mgrwt>
<rscale>  0 0.63432424E+03</rscale>
<asrwt>0</asrwt>
<pdfrwt beam="1">  1        1 0.16258830E+00 0.74820998E+03</pdfrwt>
<pdfrwt beam="2">  1       -1 0.76402058E-01 0.74820998E+03</pdfrwt>
<totfact> 0.24193982E+01</totfact>
</mgrwt>
</event>
<event>
 4    1  0.2514307E-008  0.7561753E+03  0.7818608E-02  0.9815112E-01
          1   -1    0    0  501    0  0.00000000000E+00  0.00000000000E+00  0.57100603140E+03  0.57100603142E+03  0.50400000000E-02 0. -1.
         -1   -1    0    0    0  501 -0.00000000000E+00 -0.00000000000E+00 -0.82068293687E+03  0.82068293689E+03  0.50400000000E-02 0.  1.
    8880023    1    1    2    0    0 -0.34819595197E+03 -0.12942372604E+03 -0.51082070311E+03  0.91254529686E+03  0.65864270000E+03 0.  0.
    8880022    1    1    2    0    0  0.34819595197E+03  0.12942372604E+03  0.26114379763E+03  0.47914367145E+03  0.15294330000E+03 0.  0.
<mgrwt>
<rscale>  0 0.64557835E+03</rscale>
<asrwt>0</asrwt>
<pdfrwt beam="1">  1        1 0.87847082E-01 0.75617533E+03</pdfrwt>
<pdfrwt beam="2">  1       -1 0.12625891E+00 0.75617533E+03</pdfrwt>
<totfact> 0.20583962E+01</totfact>
</mgrwt>
</event>
<event>
 4    1  0.2514307E-008  0.1352084E+04  0.7818608E-02  0.9021838E-01
         -1   -1    0    0    0  501 -0.00000000000E+00  0.00000000000E+00  0.13319856664E+04  0.13319856664E+04  0.50400000000E-02 0.  1.
          1   -1    0    0  501    0  0.00000000000E+00 -0.00000000000E+00 -0.14805363849E+04  0.14805363849E+04  0.50400000000E-02 0. -1.
    8880023    1    1    2    0    0 -0.47745603671E+03  0.10799803443E+04  0.51806529463E+03  0.14479377289E+04  0.65864270000E+03 0.  1.
    8880022    1    1    2    0    0  0.47745603671E+03 -0.10799803443E+04 -0.66661601310E+03  0.13645843224E+04  0.15294330000E+03 0.  0.
<mgrwt>
<rscale>  0 0.13097892E+04</rscale>
<asrwt>0</asrwt>
<pdfrwt beam="1">  1        1 0.22777483E+00 0.13520843E+04</pdfrwt>
<pdfrwt beam="2">  1       -1 0.20492087E+00 0.13520843E+04</pdfrwt>
<totfact> 0.90432100E-01</totfact>
</mgrwt>
</event>
<event>
 4    1  0.2514307E-008  0.7187667E+03  0.7818608E-02  0.9926781E-01
         -1   -1    0    0    0  501 -0.00000000000E+00  0.00000000000E+00  0.15248866046E+03  0.15248866055E+03  0.50400000000E-02 0.  1.
          1   -1    0    0  501    0  0.00000000000E+00 -0.00000000000E+00 -0.29209319114E+04  0.29209319114E+04  0.50400000000E-02 0. -1.
    8880023    1    1    2    0    0  0.27156549578E+03 -0.95223524433E+02 -0.78891465876E+03  0.10672449968E+04  0.65864270000E+03 0.  1.
    8880022    1    1    2    0    0 -0.27156549578E+03  0.95223524433E+02 -0.19795285922E+04  0.20061755752E+04  0.15294330000E+03 0.  0.
<mgrwt>
<rscale>  0 0.58980723E+03</rscale>
<asrwt>0</asrwt>
<pdfrwt beam="1">  1        1 0.44937410E+00 0.71876668E+03</pdfrwt>
<pdfrwt beam="2">  1       -1 0.23459796E-01 0.71876668E+03</pdfrwt>
<totfact> 0.11347800E+01</totfact>
</mgrwt>
</event>
<event>
 4    1  0.2514307E-008  0.6811441E+03  0.7818608E-02  0.1008684E+00
         -1   -1    0    0    0  501 -0.00000000000E+00  0.00000000000E+00  0.93488140687E+03  0.93488140688E+03  0.50400000000E-02 0.  1.
          1   -1    0    0  501    0  0.00000000000E+00 -0.00000000000E+00 -0.14491308497E+04  0.14491308497E+04  0.50400000000E-02 0. -1.
    8880023    1    1    2    0    0  0.16355803088E+03 -0.58273411876E+02  0.79934484795E+03  0.10501949401E+04  0.65864270000E+03 0.  1.
    8880022    1    1    2    0    0 -0.16355803088E+03  0.58273411876E+02 -0.13135942908E+04  0.13338173165E+04  0.15294330000E+03 0.  0.
<mgrwt>
<rscale>  0 0.52001118E+03</rscale>
<asrwt>0</asrwt>
<pdfrwt beam="1">  1        1 0.22294321E+00 0.68114406E+03</pdfrwt>
<pdfrwt beam="2">  1       -1 0.14382791E+00 0.68114406E+03</pdfrwt>
<totfact> 0.29313628E+00</totfact>
</mgrwt>
</event>
<event>
 4    1  0.2514307E-008  0.9166168E+03  0.7818608E-02  0.9499866E-01
          1   -1    0    0  501    0  0.00000000000E+00  0.00000000000E+00  0.89729080033E+03  0.89729080034E+03  0.50400000000E-02 0. -1.
         -1   -1    0    0    0  501 -0.00000000000E+00 -0.00000000000E+00 -0.98192525670E+03  0.98192525671E+03  0.50400000000E-02 0.  1.
    8880023    1    1    2    0    0 -0.14109060830E+03  0.62166682247E+03 -0.55574164412E+03  0.10719305851E+04  0.65864270000E+03 0.  1.
    8880022    1    1    2    0    0  0.14109060830E+03 -0.62166682247E+03  0.47110718775E+03  0.80728547199E+03  0.15294330000E+03 0.  0.
<mgrwt>
<rscale>  0 0.84293698E+03</rscale>
<asrwt>0</asrwt>
<pdfrwt beam="1">  1        1 0.13804474E+00 0.91661683E+03</pdfrwt>
<pdfrwt beam="2">  1       -1 0.15106542E+00 0.91661683E+03</pdfrwt>
<totfact> 0.63351033E+00</totfact>
</mgrwt>
</event>
<event>
 4    1  0.2514307E-008  0.6816527E+03  0.7818608E-02  0.1008404E+00
         -1   -1    0    0    0  501 -0.00000000000E+00  0.00000000000E+00  0.76534952876E+03  0.76534952878E+03  0.50400000000E-02 0.  1.
          1   -1    0    0  501    0  0.00000000000E+00 -0.00000000000E+00 -0.19096753467E+04  0.19096753467E+04  0.50400000000E-02 0. -1.
    8880023    1    1    2    0    0  0.13196449776E+03  0.11586851442E+03  0.60430654073E+03  0.91095375444E+03  0.65864270000E+03 0.  1.
    8880022    1    1    2    0    0 -0.13196449776E+03 -0.11586851442E+03 -0.17486323587E+04  0.17640711210E+04  0.15294330000E+03 0.  0.
<mgrwt>
<rscale>  0 0.52113963E+03</rscale>
<asrwt>0</asrwt>
<pdfrwt beam="1">  1        1 0.29379621E+00 0.68165266E+03</pdfrwt>
<pdfrwt beam="2">  1       -1 0.11774608E+00 0.68165266E+03</pdfrwt>
<totfact> 0.23739884E+00</totfact>
</mgrwt>
</event>
<event>
 4    1  0.2514307E-008  0.7704740E+03  0.7818608E-02  0.9778709E-01
          1   -1    0    0  501    0  0.00000000000E+00  0.00000000000E+00  0.23550904962E+04  0.23550904962E+04  0.50400000000E-02 0. -1.
         -1   -1    0    0    0  501 -0.00000000000E+00 -0.00000000000E+00 -0.21056896775E+03  0.21056896782E+03  0.50400000000E-02 0.  1.
    8880023    1    1    2    0    0 -0.38006064922E+03  0.12399152067E+03  0.64055260803E+03  0.10019669876E+04  0.65864270000E+03 0.  0.
    8880022    1    1    2    0    0  0.38006064922E+03 -0.12399152067E+03  0.15039689204E+04  0.15636924764E+04  0.15294330000E+03 0.  0.
<mgrwt>
<rscale>  0 0.66517762E+03</rscale>
<asrwt>0</asrwt>
<pdfrwt beam="1">  1        1 0.36232160E+00 0.77047401E+03</pdfrwt>
<pdfrwt beam="2">  1       -1 0.32395227E-01 0.77047401E+03</pdfrwt>
<totfact> 0.15871583E+01</totfact>
</mgrwt>
</event>
<event>
 4    1  0.2514307E-008  0.1053547E+04  0.7818608E-02  0.9314629E-01
          1   -1    0    0  501    0  0.00000000000E+00  0.00000000000E+00  0.73173381570E+03  0.73173381572E+03  0.50400000000E-02 0. -1.
         -1   -1    0    0    0  501 -0.00000000000E+00 -0.00000000000E+00 -0.22143131788E+04  0.22143131788E+04  0.50400000000E-02 0.  1.
    8880023    1    1    2    0    0  0.81696943923E+03  0.93342675768E+02 -0.17715451639E+04  0.20611488044E+04  0.65864270000E+03 0.  0.
    8880022    1    1    2    0    0 -0.81696943923E+03 -0.93342675768E+02  0.28896580086E+03  0.88489819010E+03  0.15294330000E+03 0.  0.
<mgrwt>
<rscale>  0 0.99447165E+03</rscale>
<asrwt>0</asrwt>
<pdfrwt beam="1">  1        1 0.11257443E+00 0.10535474E+04</pdfrwt>
<pdfrwt beam="2">  1       -1 0.34066356E+00 0.10535474E+04</pdfrwt>
<totfact> 0.46084994E-01</totfact>
</mgrwt>
</event>
<event>
 4    1  0.2514307E-008  0.1278582E+04  0.7818608E-02  0.9084280E-01
         -1   -1    0    0    0  501 -0.00000000000E+00  0.00000000000E+00  0.64952921834E+03  0.64952921836E+03  0.50400000000E-02 0.  1.
          1   -1    0    0  501    0  0.00000000000E+00 -0.00000000000E+00 -0.35674151606E+04  0.35674151606E+04  0.50400000000E-02 0. -1.
    8880023    1    1    2    0    0 -0.92377900407E+03 -0.58957083180E+03 -0.28318350236E+04  0.31070985214E+04  0.65864270000E+03 0.  0.
    8880022    1    1    2    0    0  0.92377900407E+03  0.58957083180E+03 -0.86050918629E+02  0.11098458576E+04  0.15294330000E+03 0.  0.
<mgrwt>
<rscale>  0 0.12332035E+04</rscale>
<asrwt>0</asrwt>
<pdfrwt beam="1">  1        1 0.54883309E+00 0.12785819E+04</pdfrwt>
<pdfrwt beam="2">  1       -1 0.99927574E-01 0.12785819E+04</pdfrwt>
<totfact> 0.20951124E-01</totfact>
</mgrwt>
</event>
<event>
 4    1  0.2514307E-008  0.7196006E+03  0.7818608E-02  0.9923940E-01
          1   -1    0    0  501    0  0.00000000000E+00  0.00000000000E+00  0.12583742650E+04  0.12583742650E+04  0.50400000000E-02 0. -1.
         -1   -1    0    0    0  501 -0.00000000000E+00 -0.00000000000E+00 -0.30882936583E+03  0.30882936587E+03  0.50400000000E-02 0.  1.
    8880023    1    1    2    0    0 -0.24262974515E+03 -0.15857359242E+03  0.19651950366E+03  0.74595234367E+03  0.65864270000E+03 0.  0.
    8880022    1    1    2    0    0  0.24262974515E+03  0.15857359242E+03  0.75302539551E+03  0.82125128721E+03  0.15294330000E+03 0.  0.
<mgrwt>
<rscale>  0 0.59114961E+03</rscale>
<asrwt>0</asrwt>
<pdfrwt beam="1">  1        1 0.19359604E+00 0.71960057E+03</pdfrwt>
<pdfrwt beam="2">  1       -1 0.47512211E-01 0.71960057E+03</pdfrwt>
<totfact> 0.44151275E+01</totfact>
</mgrwt>
</event>
<event>
 4    1  0.2514307E-008  0.8069889E+03  0.7818608E-02  0.9695883E-01
          1   -1    0    0  501    0  0.00000000000E+00  0.00000000000E+00  0.10576887500E+04  0.10576887500E+04  0.50400000000E-02 0. -1.
         -1   -1    0    0    0  501 -0.00000000000E+00 -0.00000000000E+00 -0.10938605630E+04  0.10938605630E+04  0.50400000000E-02 0.  1.
    8880023    1    1    2    0    0  0.46599256766E+03 -0.16485602092E+02 -0.86836247504E+03  0.11854469379E+04  0.65864270000E+03 0.  0.
    8880022    1    1    2    0    0 -0.46599256766E+03  0.16485602092E+02  0.83219066204E+03  0.96610237511E+03  0.15294330000E+03 0.  0.
<mgrwt>
<rscale>  0 0.71262416E+03</rscale>
<asrwt>0</asrwt>
<pdfrwt beam="1">  1        1 0.16272135E+00 0.80698888E+03</pdfrwt>
<pdfrwt beam="2">  1       -1 0.16828624E+00 0.80698888E+03</pdfrwt>
<totfact> 0.35621430E+00</totfact>
</mgrwt>
</event>
<event>
 4    1  0.2514307E-008  0.7288150E+03  0.7818608E-02  0.9893815E-01
          1   -1    0    0  501    0  0.00000000000E+00  0.00000000000E+00  0.10579749012E+04  0.10579749012E+04  0.50400000000E-02 0. -1.
         -1   -1    0    0    0  501 -0.00000000000E+00 -0.00000000000E+00 -0.40552778824E+03  0.40552778827E+03  0.50400000000E-02 0.  1.
    8880023    1    1    2    0    0  0.20435708879E+03  0.23579484669E+03  0.80332469122E+03  0.10846666747E+04  0.65864270000E+03 0. -1.
    8880022    1    1    2    0    0 -0.20435708879E+03 -0.23579484669E+03 -0.15087757824E+03  0.37883601479E+03  0.15294330000E+03 0.  1.
<mgrwt>
<rscale>  0 0.60561978E+03</rscale>
<asrwt>0</asrwt>
<pdfrwt beam="1">  1        1 0.16276537E+00 0.72881495E+03</pdfrwt>
<pdfrwt beam="2">  1       -1 0.62388891E-01 0.72881495E+03</pdfrwt>
<totfact> 0.36582295E+01</totfact>
</mgrwt>
</event>
<event>
 4    1  0.2514307E-008  0.6702220E+03  0.7818608E-02  0.1015504E+00
          1   -1    0    0  501    0  0.00000000000E+00  0.00000000000E+00  0.11300203706E+04  0.11300203706E+04  0.50400000000E-02 0. -1.
         -1   -1    0    0    0  501 -0.00000000000E+00 -0.00000000000E+00 -0.57630197611E+03  0.57630197613E+03  0.50400000000E-02 0.  1.
    8880023    1    1    2    0    0  0.42260217593E+02 -0.11662518440E+03 -0.36744954591E+03  0.76434071897E+03  0.65864270000E+03 0.  1.
    8880022    1    1    2    0    0 -0.42260217593E+02  0.11662518440E+03  0.92116794044E+03  0.94198162781E+03  0.15294330000E+03 0.  0.
<mgrwt>
<rscale>  0 0.49344484E+03</rscale>
<asrwt>0</asrwt>
<pdfrwt beam="1">  1        1 0.17384929E+00 0.67022203E+03</pdfrwt>
<pdfrwt beam="2">  1       -1 0.88661843E-01 0.67022203E+03</pdfrwt>
<totfact> 0.15677501E+01</totfact>
</mgrwt>
</event>
<event>
 4    1  0.2514307E-008  0.7349354E+03  0.7818608E-02  0.9874953E-01
         -1   -1    0    0    0  501 -0.00000000000E+00  0.00000000000E+00  0.17495130351E+04  0.17495130351E+04  0.50400000000E-02 0.  1.
          1   -1    0    0  501    0  0.00000000000E+00 -0.00000000000E+00 -0.15549508377E+04  0.15549508377E+04  0.50400000000E-02 0. -1.
    8880023    1    1    2    0    0  0.32604920525E+03 -0.34208460585E+01  0.16493906950E+04  0.18057185986E+04  0.65864270000E+03 0.  1.
    8880022    1    1    2    0    0 -0.32604920525E+03  0.34208460585E+01 -0.14548284976E+04  0.14987452742E+04  0.15294330000E+03 0.  0.
<mgrwt>
<rscale>  0 0.61490659E+03</rscale>
<asrwt>0</asrwt>
<pdfrwt beam="1">  1        1 0.23922321E+00 0.73493537E+03</pdfrwt>
<pdfrwt beam="2">  1       -1 0.26915585E+00 0.73493537E+03</pdfrwt>
<totfact> 0.33576228E-01</totfact>
</mgrwt>
</event>
<event>
 4    1  0.2514307E-008  0.9377228E+03  0.7818608E-02  0.9468003E-01
          1   -1    0    0  501    0  0.00000000000E+00  0.00000000000E+00  0.12771802094E+04  0.12771802095E+04  0.50400000000E-02 0. -1.
         -1   -1    0    0    0  501 -0.00000000000E+00 -0.00000000000E+00 -0.54190079550E+03  0.54190079552E+03  0.50400000000E-02 0.  1.
    8880023    1    1    2    0    0 -0.27752841730E+03  0.60703521073E+03  0.62135383008E+03  0.11249020215E+04  0.65864270000E+03 0.  0.
    8880022    1    1    2    0    0  0.27752841730E+03 -0.60703521073E+03  0.11392558387E+03  0.69417898351E+03  0.15294330000E+03 0. -1.
<mgrwt>
<rscale>  0 0.86684510E+03</rscale>
<asrwt>0</asrwt>
<pdfrwt beam="1">  1        1 0.19648926E+00 0.93772276E+03</pdfrwt>
<pdfrwt beam="2">  1       -1 0.83369353E-01 0.93772276E+03</pdfrwt>
<totfact> 0.13554300E+01</totfact>
</mgrwt>
</event>
<event>
 4    1  0.2514307E-008  0.7090838E+03  0.7818608E-02  0.9961419E-01
          1   -1    0    0  501    0  0.00000000000E+00  0.00000000000E+00  0.12033047078E+04  0.12033047078E+04  0.50400000000E-02 0. -1.
         -1   -1    0    0    0  501 -0.00000000000E+00 -0.00000000000E+00 -0.35849463498E+03  0.35849463502E+03  0.50400000000E-02 0.  1.
    8880023    1    1    2    0    0  0.15734194715E+03 -0.21031671017E+03  0.49986434466E+02  0.71084348263E+03  0.65864270000E+03 0.  1.
    8880022    1    1    2    0    0 -0.15734194715E+03  0.21031671017E+03  0.79482363837E+03  0.85095586021E+03  0.15294330000E+03 0.  0.
<mgrwt>
<rscale>  0 0.57374795E+03</rscale>
<asrwt>0</asrwt>
<pdfrwt beam="1">  1        1 0.18512380E+00 0.70908378E+03</pdfrwt>
<pdfrwt beam="2">  1       -1 0.55153021E-01 0.70908378E+03</pdfrwt>
<totfact> 0.36459677E+01</totfact>
</mgrwt>
</event>
<event>
 4    1  0.2514307E-008  0.1323959E+04  0.7818608E-02  0.9045141E-01
          1   -1    0    0  501    0  0.00000000000E+00  0.00000000000E+00  0.18314771929E+04  0.18314771929E+04  0.50400000000E-02 0. -1.
         -1   -1    0    0    0  501 -0.00000000000E+00 -0.00000000000E+00 -0.14024894824E+04  0.14024894824E+04  0.50400000000E-02 0.  1.
    8880023    1    1    2    0    0  0.10610429914E+04 -0.43959669799E+03 -0.79842136270E+03  0.15460738550E+04  0.65864270000E+03 0.  1.
    8880022    1    1    2    0    0 -0.10610429914E+04  0.43959669799E+03  0.12274090732E+04  0.16878928203E+04  0.15294330000E+03 0.  0.
<mgrwt>
<rscale>  0 0.12805400E+04</rscale>
<asrwt>0</asrwt>
<pdfrwt beam="1">  1        1 0.28176572E+00 0.13239591E+04</pdfrwt>
<pdfrwt beam="2">  1       -1 0.21576761E+00 0.13239591E+04</pdfrwt>
<totfact> 0.43970122E-01</totfact>
</mgrwt>
</event>
<event>
 4    1  0.2514307E-008  0.8162185E+03  0.7818608E-02  0.9676767E-01
         -1   -1    0    0    0  501 -0.00000000000E+00  0.00000000000E+00  0.40268996475E+03  0.40268996478E+03  0.50400000000E-02 0.  1.
          1   -1    0    0  501    0  0.00000000000E+00 -0.00000000000E+00 -0.12469213851E+04  0.12469213851E+04  0.50400000000E-02 0. -1.
    8880023    1    1    2    0    0  0.47249493679E+03 -0.95660397751E+02 -0.21834155006E+03  0.84491752008E+03  0.65864270000E+03 0.  1.
    8880022    1    1    2    0    0 -0.47249493679E+03  0.95660397751E+02 -0.62588987031E+03  0.80469382983E+03  0.15294330000E+03 0.  0.
<mgrwt>
<rscale>  0 0.72417097E+03</rscale>
<asrwt>0</asrwt>
<pdfrwt beam="1">  1        1 0.19183406E+00 0.81621847E+03</pdfrwt>
<pdfrwt beam="2">  1       -1 0.61952303E-01 0.81621847E+03</pdfrwt>
<totfact> 0.26682715E+01</totfact>
</mgrwt>
</event>
<event>
 4    1  0.2514307E-008  0.9942119E+03  0.7818608E-02  0.9389170E-01
         -1   -1    0    0    0  501 -0.00000000000E+00  0.00000000000E+00  0.44013012448E+03  0.44013012451E+03  0.50400000000E-02 0.  1.
          1   -1    0    0  501    0  0.00000000000E+00 -0.00000000000E+00 -0.22649032843E+04  0.22649032843E+04  0.50400000000E-02 0. -1.
    8880023    1    1    2    0    0  0.72658466326E+03  0.16346827086E+03 -0.36492350824E+03  0.10590687049E+04  0.65864270000E+03 0.  0.
    8880022    1    1    2    0    0 -0.72658466326E+03 -0.16346827086E+03 -0.14598496515E+04  0.16459647039E+04  0.15294330000E+03 0.  0.
<mgrwt>
<rscale>  0 0.92972359E+03</rscale>
<asrwt>0</asrwt>
<pdfrwt beam="1">  1        1 0.34844665E+00 0.99421193E+03</pdfrwt>
<pdfrwt beam="2">  1       -1 0.67712328E-01 0.99421193E+03</pdfrwt>
<totfact> 0.44135921E+00</totfact>
</mgrwt>
</event>
<event>
 4    1  0.2514307E-008  0.8584220E+03  0.7818608E-02  0.9596377E-01
          1   -1    0    0  501    0  0.00000000000E+00  0.00000000000E+00  0.11691377172E+04  0.11691377172E+04  0.50400000000E-02 0. -1.
         -1   -1    0    0    0  501 -0.00000000000E+00 -0.00000000000E+00 -0.60951907813E+03  0.60951907815E+03  0.50400000000E-02 0.  1.
    8880023    1    1    2    0    0  0.37593905644E+03 -0.40217896802E+03 -0.14595841100E+03  0.87074230429E+03  0.65864270000E+03 0.  1.
    8880022    1    1    2    0    0 -0.37593905644E+03  0.40217896802E+03  0.70557705004E+03  0.90791449104E+03  0.15294330000E+03 0.  0.
<mgrwt>
<rscale>  0 0.77536464E+03</rscale>
<asrwt>0</asrwt>
<pdfrwt beam="1">  1        1 0.17986734E+00 0.85842198E+03</pdfrwt>
<pdfrwt beam="2">  1       -1 0.93772167E-01 0.85842198E+03</pdfrwt>
<totfact> 0.12648101E+01</totfact>
</mgrwt>
</event>
<event>
 4    1  0.2514307E-008  0.1162515E+04  0.7818608E-02  0.9194451E-01
         -1   -1    0    0    0  501 -0.00000000000E+00  0.00000000000E+00  0.90782184463E+03  0.90782184465E+03  0.50400000000E-02 0.  1.
          1   -1    0    0  501    0  0.00000000000E+00 -0.00000000000E+00 -0.19500331841E+04  0.19500331841E+04  0.50400000000E-02 0. -1.
    8880023    1    1    2    0    0 -0.53122066598E+03 -0.79714155370E+03  0.30112126029E+03  0.12008806236E+04  0.65864270000E+03 0.  0.
    8880022    1    1    2    0    0  0.53122066598E+03  0.79714155370E+03 -0.13433325998E+04  0.16569744051E+04  0.15294330000E+03 0.  0.
<mgrwt>
<rscale>  0 0.11110888E+04</rscale>
<asrwt>0</asrwt>
<pdfrwt beam="1">  1        1 0.30000510E+00 0.11625146E+04</pdfrwt>
<pdfrwt beam="2">  1       -1 0.13966490E+00 0.11625146E+04</pdfrwt>
<totfact> 0.13424410E+00</totfact>
</mgrwt>
</event>
<event>
 4    1  0.2514307E-008  0.9747630E+03  0.7818608E-02  0.9415347E-01
         -1   -1    0    0    0  501 -0.00000000000E+00  0.00000000000E+00  0.13054057213E+04  0.13054057214E+04  0.50400000000E-02 0.  1.
          1   -1    0    0  501    0  0.00000000000E+00 -0.00000000000E+00 -0.13001380138E+04  0.13001380138E+04  0.50400000000E-02 0. -1.
    8880023    1    1    2    0    0 -0.70628920495E+03  0.13231902534E+03  0.98180318787E+03  0.13835101993E+04  0.65864270000E+03 0.  0.
    8880022    1    1    2    0    0  0.70628920495E+03 -0.13231902534E+03 -0.97653548029E+03  0.12220335359E+04  0.15294330000E+03 0.  0.
<mgrwt>
<rscale>  0 0.90823411E+03</rscale>
<asrwt>0</asrwt>
<pdfrwt beam="1">  1        1 0.20002123E+00 0.97476303E+03</pdfrwt>
<pdfrwt beam="2">  1       -1 0.20083165E+00 0.97476303E+03</pdfrwt>
<totfact> 0.13559416E+00</totfact>
</mgrwt>
</event>
<event>
 4    1  0.2514307E-008  0.9296545E+03  0.7818608E-02  0.9480012E-01
          1   -1    0    0  501    0  0.00000000000E+00  0.00000000000E+00  0.35825489042E+04  0.35825489042E+04  0.50400000000E-02 0. -1.
         -1   -1    0    0    0  501 -0.00000000000E+00 -0.00000000000E+00 -0.45439463007E+03  0.45439463010E+03  0.50400000000E-02 0.  1.
    8880023    1    1    2    0    0 -0.57716561814E+03  0.31197306222E+03  0.10029891221E+03  0.93504942135E+03  0.65864270000E+03 0.  1.
    8880022    1    1    2    0    0  0.57716561814E+03 -0.31197306222E+03  0.30278553619E+04  0.31018941129E+04  0.15294330000E+03 0.  0.
<mgrwt>
<rscale>  0 0.85773655E+03</rscale>
<asrwt>0</asrwt>
<pdfrwt beam="1">  1        1 0.55116138E+00 0.92965453E+03</pdfrwt>
<pdfrwt beam="2">  1       -1 0.69906865E-01 0.92965453E+03</pdfrwt>
<totfact> 0.46937621E-01</totfact>
</mgrwt>
</event>
<event>
 4    1  0.2661406E-008  0.8276958E+03  0.7818608E-02  0.9653832E-01
          1   -1    0    0  501    0  0.00000000000E+00  0.00000000000E+00  0.14607878207E+04  0.14607878208E+04  0.50400000000E-02 0. -1.
         -1   -1    0    0    0  501 -0.00000000000E+00 -0.00000000000E+00 -0.12974598717E+04  0.12974598717E+04  0.50400000000E-02 0.  1.
    8880023    1    1    2    0    0 -0.40320852435E+03  0.29781363791E+03 -0.11080663179E+04  0.13830731174E+04  0.65864270000E+03 0.  0.
    8880022    1    1    2    0    0  0.40320852435E+03 -0.29781363791E+03  0.12713942669E+04  0.13751745751E+04  0.15294330000E+03 0.  0.
<mgrwt>
<rscale>  0 0.73833392E+03</rscale>
<asrwt>0</asrwt>
<pdfrwt beam="1">  1        1 0.22473659E+00 0.82769577E+03</pdfrwt>
<pdfrwt beam="2">  1       -1 0.19960921E+00 0.82769577E+03</pdfrwt>
<totfact> 0.10929669E+00</totfact>
</mgrwt>
</event>
<event>
 4    1  0.2514307E-008  0.1140672E+04  0.7818608E-02  0.9217069E-01
          1   -1    0    0  501    0  0.00000000000E+00  0.00000000000E+00  0.10855518406E+04  0.10855518406E+04  0.50400000000E-02 0. -1.
         -1   -1    0    0    0  501 -0.00000000000E+00 -0.00000000000E+00 -0.13570352827E+04  0.13570352827E+04  0.50400000000E-02 0.  1.
    8880023    1    1    2    0    0  0.68213334373E+03 -0.63404682894E+03 -0.76902626290E+03  0.13756935993E+04  0.65864270000E+03 0.  0.
    8880022    1    1    2    0    0 -0.68213334373E+03  0.63404682894E+03  0.49754282085E+03  0.10668935240E+04  0.15294330000E+03 0.  0.
<mgrwt>
<rscale>  0 0.10878967E+04</rscale>
<asrwt>0</asrwt>
<pdfrwt beam="1">  1        1 0.16700798E+00 0.11406715E+04</pdfrwt>
<pdfrwt beam="2">  1       -1 0.20877466E+00 0.11406715E+04</pdfrwt>
<totfact> 0.16823264E+00</totfact>
</mgrwt>
</event>
<event>
 4    1  0.2514307E-008  0.1312007E+04  0.7818608E-02  0.9055260E-01
          1   -1    0    0  501    0  0.00000000000E+00  0.00000000000E+00  0.89876041976E+03  0.89876041978E+03  0.50400000000E-02 0. -1.
         -1   -1    0    0    0  501 -0.00000000000E+00 -0.00000000000E+00 -0.27862362433E+04  0.27862362433E+04  0.50400000000E-02 0.  1.
    8880023    1    1    2    0    0  0.10967155568E+04 -0.29114898579E+03 -0.21421921908E+04  0.25120410692E+04  0.65864270000E+03 0.  0.
    8880022    1    1    2    0    0 -0.10967155568E+04  0.29114898579E+03  0.25471636734E+03  0.11729555939E+04  0.15294330000E+03 0.  0.
<mgrwt>
<rscale>  0 0.12680904E+04</rscale>
<asrwt>0</asrwt>
<pdfrwt beam="1">  1        1 0.13827083E+00 0.13120072E+04</pdfrwt>
<pdfrwt beam="2">  1       -1 0.42865173E+00 0.13120072E+04</pdfrwt>
<totfact> 0.80991495E-02</totfact>
</mgrwt>
</event>
<event>
 4    1  0.2514307E-008  0.7073741E+03  0.7818608E-02  0.9967884E-01
          1   -1    0    0  501    0  0.00000000000E+00  0.00000000000E+00  0.50347006427E+03  0.50347006430E+03  0.50400000000E-02 0. -1.
         -1   -1    0    0    0  501 -0.00000000000E+00 -0.00000000000E+00 -0.98549677876E+03  0.98549677877E+03  0.50400000000E-02 0.  1.
    8880023    1    1    2    0    0 -0.16431269807E+01 -0.25800227088E+03 -0.78908317069E+03  0.10597312528E+04  0.65864270000E+03 0.  0.
    8880022    1    1    2    0    0  0.16431269807E+01  0.25800227088E+03  0.30705645620E+03  0.42923559027E+03  0.15294330000E+03 0.  0.
<mgrwt>
<rscale>  0 0.57081154E+03</rscale>
<asrwt>0</asrwt>
<pdfrwt beam="1">  1        1 0.77456933E-01 0.70737407E+03</pdfrwt>
<pdfrwt beam="2">  1       -1 0.15161489E+00 0.70737407E+03</pdfrwt>
<totfact> 0.15367397E+01</totfact>
</mgrwt>
</event>
<event>
 4    1  0.2514307E-008  0.8461990E+03  0.7818608E-02  0.9618600E-01
         -1   -1    0    0    0  501 -0.00000000000E+00  0.00000000000E+00  0.34992027534E+03  0.34992027538E+03  0.50400000000E-02 0.  1.
          1   -1    0    0  501    0  0.00000000000E+00 -0.00000000000E+00 -0.18360380007E+04  0.18360380007E+04  0.50400000000E-02 0. -1.
    8880023    1    1    2    0    0 -0.48578453262E+03 -0.21507210798E+03 -0.33712437871E+03  0.91088181272E+03  0.65864270000E+03 0.  1.
    8880022    1    1    2    0    0  0.48578453262E+03  0.21507210798E+03 -0.11489933467E+04  0.12750764634E+04  0.15294330000E+03 0.  0.
<mgrwt>
<rscale>  0 0.76077224E+03</rscale>
<asrwt>0</asrwt>
<pdfrwt beam="1">  1        1 0.28246738E+00 0.84619905E+03</pdfrwt>
<pdfrwt beam="2">  1       -1 0.53833890E-01 0.84619905E+03</pdfrwt>
<totfact> 0.13780963E+01</totfact>
</mgrwt>
</event>
<event>
 4    1  0.2514307E-008  0.8014281E+03  0.7818608E-02  0.9707717E-01
          1   -1    0    0  501    0  0.00000000000E+00  0.00000000000E+00  0.46780668257E+03  0.46780668260E+03  0.50400000000E-02 0. -1.
         -1   -1    0    0    0  501 -0.00000000000E+00 -0.00000000000E+00 -0.90089148510E+03  0.90089148511E+03  0.50400000000E-02 0.  1.
    8880023    1    1    2    0    0 -0.42230866961E+03 -0.17358622780E+03 -0.37117009997E+03  0.88320679362E+03  0.65864270000E+03 0.  1.
    8880022    1    1    2    0    0  0.42230866961E+03  0.17358622780E+03 -0.61914702550E+02  0.48549137409E+03  0.15294330000E+03 0.  0.
<mgrwt>
<rscale>  0 0.70559197E+03</rscale>
<asrwt>0</asrwt>
<pdfrwt beam="1">  1        1 0.71970259E-01 0.80142810E+03</pdfrwt>
<pdfrwt beam="2">  1       -1 0.13859869E+00 0.80142810E+03</pdfrwt>
<totfact> 0.21323893E+01</totfact>
</mgrwt>
</event>
<event>
 4    1  0.2514307E-008  0.6641165E+03  0.7818608E-02  0.1020286E+00
         -1   -1    0    0    0  501 -0.00000000000E+00  0.00000000000E+00  0.14386305369E+03  0.14386305378E+03  0.50400000000E-02 0.  1.
          1   -1    0    0  501    0  0.00000000000E+00 -0.00000000000E+00 -0.15617645723E+04  0.15617645723E+04  0.50400000000E-02 0. -1.
    8880023    1    1    2    0    0 -0.80481144288E+02 -0.27627564143E+02 -0.69278697010E+03  0.95968978795E+03  0.65864270000E+03 0.  1.
    8880022    1    1    2    0    0  0.80481144288E+02  0.27627564143E+02 -0.72511454854E+03  0.74593783817E+03  0.15294330000E+03 0.  0.
<mgrwt>
<rscale>  0 0.47583390E+03</rscale>
<asrwt>0</asrwt>
<pdfrwt beam="1">  1        1 0.24027146E+00 0.66411648E+03</pdfrwt>
<pdfrwt beam="2">  1       -1 0.22132779E-01 0.66411648E+03</pdfrwt>
<totfact> 0.10542388E+02</totfact>
</mgrwt>
</event>
<event>
 4    1  0.2514307E-008  0.1730296E+04  0.7818608E-02  0.8762106E-01
          1   -1    0    0  501    0  0.00000000000E+00  0.00000000000E+00  0.27089663745E+04  0.27089663745E+04  0.50400000000E-02 0. -1.
         -1   -1    0    0    0  501 -0.00000000000E+00 -0.00000000000E+00 -0.12953338919E+04  0.12953338919E+04  0.50400000000E-02 0.  1.
    8880023    1    1    2    0    0  0.10994958390E+04 -0.11624218160E+04 -0.18151459340E+03  0.17397911749E+04  0.65864270000E+03 0.  0.
    8880022    1    1    2    0    0 -0.10994958390E+04  0.11624218160E+04  0.15951470760E+04  0.22645090915E+04  0.15294330000E+03 0.  0.
<mgrwt>
<rscale>  0 0.16986996E+04</rscale>
<asrwt>0</asrwt>
<pdfrwt beam="1">  1        1 0.41676406E+00 0.17302964E+04</pdfrwt>
<pdfrwt beam="2">  1       -1 0.19928214E+00 0.17302964E+04</pdfrwt>
<totfact> 0.13559050E-01</totfact>
</mgrwt>
</event>
<event>
 4    1  0.2514307E-008  0.8407404E+03  0.7818608E-02  0.9628786E-01
         -1   -1    0    0    0  501 -0.00000000000E+00  0.00000000000E+00  0.49364718388E+03  0.49364718390E+03  0.50400000000E-02 0.  1.
          1   -1    0    0  501    0  0.00000000000E+00 -0.00000000000E+00 -0.37177016179E+04  0.37177016179E+04  0.50400000000E-02 0. -1.
    8880023    1    1    2    0    0 -0.11289839119E+03  0.51018451274E+03  0.96677067101E+02  0.84628065400E+03  0.65864270000E+03 0.  1.
    8880022    1    1    2    0    0  0.11289839119E+03 -0.51018451274E+03 -0.33207315011E+04  0.33650681478E+04  0.15294330000E+03 0.  0.
<mgrwt>
<rscale>  0 0.75419905E+03</rscale>
<asrwt>0</asrwt>
<pdfrwt beam="1">  1        1 0.57195408E+00 0.84074044E+03</pdfrwt>
<pdfrwt beam="2">  1       -1 0.75945723E-01 0.84074044E+03</pdfrwt>
<totfact> 0.31406394E-01</totfact>
</mgrwt>
</event>
<event>
 4    1  0.2514307E-008  0.1831077E+04  0.7818608E-02  0.8705538E-01
          1   -1    0    0  501    0  0.00000000000E+00  0.00000000000E+00  0.31099565153E+04  0.31099565153E+04  0.50400000000E-02 0. -1.
         -1   -1    0    0    0  501 -0.00000000000E+00 -0.00000000000E+00 -0.21132480721E+04  0.21132480721E+04  0.50400000000E-02 0.  1.
    8880023    1    1    2    0    0  0.13572786070E+04 -0.10377031369E+04  0.23917505134E+04  0.30121941740E+04  0.65864270000E+03 0.  0.
    8880022    1    1    2    0    0 -0.13572786070E+04  0.10377031369E+04 -0.13950420702E+04  0.22110104133E+04  0.15294330000E+03 0.  0.
<mgrwt>
<rscale>  0 0.18014331E+04</rscale>
<asrwt>0</asrwt>
<pdfrwt beam="1">  1        1 0.47845485E+00 0.18310771E+04</pdfrwt>
<pdfrwt beam="2">  1       -1 0.32511509E+00 0.18310771E+04</pdfrwt>
<totfact> 0.10147968E-02</totfact>
</mgrwt>
</event>
<event>
 4    1  0.2514307E-008  0.1029036E+04  0.7818608E-02  0.9344518E-01
         -1   -1    0    0    0  501 -0.00000000000E+00  0.00000000000E+00  0.55223308805E+03  0.55223308807E+03  0.50400000000E-02 0.  1.
          1   -1    0    0  501    0  0.00000000000E+00 -0.00000000000E+00 -0.20221734901E+04  0.20221734901E+04  0.50400000000E-02 0. -1.
    8880023    1    1    2    0    0 -0.64793644115E+02 -0.78797648845E+03 -0.16672112938E+03  0.10424544613E+04  0.65864270000E+03 0.  0.
    8880022    1    1    2    0    0  0.64793644115E+02  0.78797648845E+03 -0.13032192726E+04  0.15319521168E+04  0.15294330000E+03 0.  0.
<mgrwt>
<rscale>  0 0.96785757E+03</rscale>
<asrwt>0</asrwt>
<pdfrwt beam="1">  1        1 0.31110361E+00 0.10290361E+04</pdfrwt>
<pdfrwt beam="2">  1       -1 0.84958938E-01 0.10290361E+04</pdfrwt>
<totfact> 0.39756399E+00</totfact>
</mgrwt>
</event>
<event>
 4    1  0.2514307E-008  0.7125344E+03  0.7818608E-02  0.9948707E-01
         -1   -1    0    0    0  501 -0.00000000000E+00  0.00000000000E+00  0.52753089977E+03  0.52753089979E+03  0.50400000000E-02 0.  1.
          1   -1    0    0  501    0  0.00000000000E+00 -0.00000000000E+00 -0.90558307075E+03  0.90558307076E+03  0.50400000000E-02 0. -1.
    8880023    1    1    2    0    0  0.79537646781E+02  0.25994001487E+03  0.23082989812E+03  0.74899111925E+03  0.65864270000E+03 0.  1.
    8880022    1    1    2    0    0 -0.79537646781E+02 -0.25994001487E+03 -0.60888206910E+03  0.68412285130E+03  0.15294330000E+03 0.  0.
<mgrwt>
<rscale>  0 0.57957689E+03</rscale>
<asrwt>0</asrwt>
<pdfrwt beam="1">  1        1 0.13932047E+00 0.71253439E+03</pdfrwt>
<pdfrwt beam="2">  1       -1 0.81158600E-01 0.71253439E+03</pdfrwt>
<totfact> 0.28081108E+01</totfact>
</mgrwt>
</event>
<event>
 4    1  0.2514307E-008  0.8560391E+03  0.7818608E-02  0.9600648E-01
          1   -1    0    0  501    0  0.00000000000E+00  0.00000000000E+00  0.69593676069E+03  0.69593676070E+03  0.50400000000E-02 0. -1.
         -1   -1    0    0    0  501 -0.00000000000E+00 -0.00000000000E+00 -0.14545504194E+04  0.14545504194E+04  0.50400000000E-02 0.  1.
    8880023    1    1    2    0    0  0.24073870499E+03  0.49095574376E+03 -0.11697156449E+04  0.14494956235E+04  0.65864270000E+03 0.  0.
    8880022    1    1    2    0    0 -0.24073870499E+03 -0.49095574376E+03  0.41110198616E+03  0.70099155662E+03  0.15294330000E+03 0.  0.
<mgrwt>
<rscale>  0 0.77253280E+03</rscale>
<asrwt>0</asrwt>
<pdfrwt beam="1">  1        1 0.10706719E+00 0.85603906E+03</pdfrwt>
<pdfrwt beam="2">  1       -1 0.22377699E+00 0.85603906E+03</pdfrwt>
<totfact> 0.29243078E+00</totfact>
</mgrwt>
</event>
<event>
 4    1  0.2514307E-008  0.9686514E+03  0.7818608E-02  0.9423772E-01
          1   -1    0    0  501    0  0.00000000000E+00  0.00000000000E+00  0.11195071510E+04  0.11195071510E+04  0.50400000000E-02 0. -1.
         -1   -1    0    0    0  501 -0.00000000000E+00 -0.00000000000E+00 -0.87947282246E+03  0.87947282247E+03  0.50400000000E-02 0.  1.
    8880023    1    1    2    0    0 -0.59973390799E+03  0.38051888738E+03 -0.38325487112E+03  0.10417148778E+04  0.65864270000E+03 0.  1.
    8880022    1    1    2    0    0  0.59973390799E+03 -0.38051888738E+03  0.62328919963E+03  0.95726509570E+03  0.15294330000E+03 0.  0.
<mgrwt>
<rscale>  0 0.90144910E+03</rscale>
<asrwt>0</asrwt>
<pdfrwt beam="1">  1        1 0.17223187E+00 0.96865143E+03</pdfrwt>
<pdfrwt beam="2">  1       -1 0.13530351E+00 0.96865143E+03</pdfrwt>
<totfact> 0.56508394E+00</totfact>
</mgrwt>
</event>
<event>
 4    1  0.2514307E-008  0.1719548E+04  0.7818608E-02  0.8768396E-01
         -1   -1    0    0    0  501 -0.00000000000E+00  0.00000000000E+00  0.19995232562E+04  0.19995232562E+04  0.50400000000E-02 0.  1.
          1   -1    0    0  501    0  0.00000000000E+00 -0.00000000000E+00 -0.13797065823E+04  0.13797065823E+04  0.50400000000E-02 0. -1.
    8880023    1    1    2    0    0  0.43584866391E+03  0.15274389169E+04  0.21505020728E+03  0.17329427286E+04  0.65864270000E+03 0.  0.
    8880022    1    1    2    0    0 -0.43584866391E+03 -0.15274389169E+04  0.40476646668E+03  0.16462871099E+04  0.15294330000E+03 0.  0.
<mgrwt>
<rscale>  0 0.16877263E+04</rscale>
<asrwt>0</asrwt>
<pdfrwt beam="1">  1        1 0.21226255E+00 0.17195476E+04</pdfrwt>
<pdfrwt beam="2">  1       -1 0.30761896E+00 0.17195476E+04</pdfrwt>
<totfact> 0.21638040E-01</totfact>
</mgrwt>
</event>
<event>
 4    1  0.2514307E-008  0.6870486E+03  0.7818608E-02  0.1005588E+00
          1   -1    0    0  501    0  0.00000000000E+00  0.00000000000E+00  0.59425026002E+03  0.59425026004E+03  0.50400000000E-02 0. -1.
         -1   -1    0    0    0  501 -0.00000000000E+00 -0.00000000000E+00 -0.81711850738E+03  0.81711850740E+03  0.50400000000E-02 0.  1.
    8880023    1    1    2    0    0 -0.11838153320E+03  0.15559987194E+03 -0.63154497375E+03  0.93321207005E+03  0.65864270000E+03 0.  1.
    8880022    1    1    2    0    0  0.11838153320E+03 -0.15559987194E+03  0.40867672639E+03  0.47815669739E+03  0.15294330000E+03 0.  0.
<mgrwt>
<rscale>  0 0.53266392E+03</rscale>
<asrwt>0</asrwt>
<pdfrwt beam="1">  1        1 0.91423117E-01 0.68704855E+03</pdfrwt>
<pdfrwt beam="2">  1       -1 0.12571054E+00 0.68704855E+03</pdfrwt>
<totfact> 0.19812533E+01</totfact>
</mgrwt>
</event>
<event>
 4    1  0.2514307E-008  0.7832461E+03  0.7818608E-02  0.9748266E-01
         -1   -1    0    0    0  501 -0.00000000000E+00  0.00000000000E+00  0.59196072356E+03  0.59196072359E+03  0.50400000000E-02 0.  1.
          1   -1    0    0  501    0  0.00000000000E+00 -0.00000000000E+00 -0.81138355712E+03  0.81138355713E+03  0.50400000000E-02 0. -1.
    8880023    1    1    2    0    0  0.10528303722E+03 -0.41058457710E+03  0.17719898959E+03  0.80304041060E+03  0.65864270000E+03 0.  1.
    8880022    1    1    2    0    0 -0.10528303722E+03  0.41058457710E+03 -0.39662182314E+03  0.60030387012E+03  0.15294330000E+03 0.  0.
<mgrwt>
<rscale>  0 0.68214329E+03</rscale>
<asrwt>0</asrwt>
<pdfrwt beam="1">  1        1 0.12482824E+00 0.78324608E+03</pdfrwt>
<pdfrwt beam="2">  1       -1 0.91070880E-01 0.78324608E+03</pdfrwt>
<totfact> 0.26006546E+01</totfact>
</mgrwt>
</event>
<event>
 4    1  0.2514307E-008  0.9753558E+03  0.7818608E-02  0.9414535E-01
         -1   -1    0    0    0  501 -0.00000000000E+00  0.00000000000E+00  0.72924721592E+03  0.72924721593E+03  0.50400000000E-02 0.  1.
          1   -1    0    0  501    0  0.00000000000E+00 -0.00000000000E+00 -0.12884514535E+04  0.12884514535E+04  0.50400000000E-02 0. -1.
    8880023    1    1    2    0    0 -0.66795711138E+03  0.26709931436E+03  0.16074268029E+03  0.98851260078E+03  0.65864270000E+03 0.  0.
    8880022    1    1    2    0    0  0.66795711138E+03 -0.26709931436E+03 -0.71994691790E+03  0.10291860687E+04  0.15294330000E+03 0.  0.
<mgrwt>
<rscale>  0 0.90889135E+03</rscale>
<asrwt>0</asrwt>
<pdfrwt beam="1">  1        1 0.19822330E+00 0.97535581E+03</pdfrwt>
<pdfrwt beam="2">  1       -1 0.11219188E+00 0.97535581E+03</pdfrwt>
<totfact> 0.67595117E+00</totfact>
</mgrwt>
</event>
<event>
 4    1  0.2514307E-008  0.7343023E+03  0.7818608E-02  0.9876866E-01
          1   -1    0    0  501    0  0.00000000000E+00  0.00000000000E+00  0.71245796288E+03  0.71245796290E+03  0.50400000000E-02 0. -1.
         -1   -1    0    0    0  501 -0.00000000000E+00 -0.00000000000E+00 -0.12720159307E+04  0.12720159307E+04  0.50400000000E-02 0.  1.
    8880023    1    1    2    0    0  0.29442504296E+03 -0.13676110033E+03 -0.11078944192E+04  0.13291463256E+04  0.65864270000E+03 0.  1.
    8880022    1    1    2    0    0 -0.29442504296E+03  0.13676110033E+03  0.54833645137E+03  0.65532756802E+03  0.15294330000E+03 0.  0.
<mgrwt>
<rscale>  0 0.61395679E+03</rscale>
<asrwt>0</asrwt>
<pdfrwt beam="1">  1        1 0.10960892E+00 0.73430233E+03</pdfrwt>
<pdfrwt beam="2">  1       -1 0.19569476E+00 0.73430233E+03</pdfrwt>
<totfact> 0.44439268E+00</totfact>
</mgrwt>
</event>
<event>
 4    1  0.2514307E-008  0.9340316E+03  0.7818608E-02  0.9473471E-01
          1   -1    0    0  501    0  0.00000000000E+00  0.00000000000E+00  0.16431602530E+04  0.16431602530E+04  0.50400000000E-02 0. -1.
         -1   -1    0    0    0  501 -0.00000000000E+00 -0.00000000000E+00 -0.10537293357E+04  0.10537293357E+04  0.50400000000E-02 0.  1.
    8880023    1    1    2    0    0  0.63005043292E+03 -0.20406188939E+03 -0.74801458532E+03  0.11966373005E+04  0.65864270000E+03 0.  0.
    8880022    1    1    2    0    0 -0.63005043292E+03  0.20406188939E+03  0.13374455027E+04  0.15002522882E+04  0.15294330000E+03 0.  0.
<mgrwt>
<rscale>  0 0.86268253E+03</rscale>
<asrwt>0</asrwt>
<pdfrwt beam="1">  1        1 0.25279389E+00 0.93403159E+03</pdfrwt>
<pdfrwt beam="2">  1       -1 0.16211221E+00 0.93403159E+03</pdfrwt>
<totfact> 0.14935738E+00</totfact>
</mgrwt>
</event>
<event>
 4    1  0.2514307E-008  0.7328400E+03  0.7818608E-02  0.9881317E-01
         -1   -1    0    0    0  501 -0.00000000000E+00  0.00000000000E+00  0.92800924452E+03  0.92800924453E+03  0.50400000000E-02 0.  1.
          1   -1    0    0  501    0  0.00000000000E+00 -0.00000000000E+00 -0.59288178197E+03  0.59288178199E+03  0.50400000000E-02 0. -1.
    8880023    1    1    2    0    0 -0.15514226901E+03 -0.28138078859E+03  0.69842026236E+03  0.10123464530E+04  0.65864270000E+03 0.  1.
    8880022    1    1    2    0    0  0.15514226901E+03  0.28138078859E+03 -0.36329279981E+03  0.50854457349E+03  0.15294330000E+03 0.  0.
<mgrwt>
<rscale>  0 0.61175354E+03</rscale>
<asrwt>0</asrwt>
<pdfrwt beam="1">  1        1 0.91212582E-01 0.73284001E+03</pdfrwt>
<pdfrwt beam="2">  1       -1 0.14277065E+00 0.73284001E+03</pdfrwt>
<totfact> 0.14292893E+01</totfact>
</mgrwt>
</event>
<event>
 4    1  0.2514307E-008  0.7306510E+03  0.7818608E-02  0.9888068E-01
          1   -1    0    0  501    0  0.00000000000E+00  0.00000000000E+00  0.15173754597E+04  0.15173754597E+04  0.50400000000E-02 0. -1.
         -1   -1    0    0    0  501 -0.00000000000E+00 -0.00000000000E+00 -0.35220389678E+03  0.35220389681E+03  0.50400000000E-02 0.  1.
    8880023    1    1    2    0    0  0.15362412588E+03  0.27647844237E+03  0.87243051771E+02  0.73584119040E+03  0.65864270000E+03 0.  1.
    8880022    1    1    2    0    0 -0.15362412588E+03 -0.27647844237E+03  0.10779285111E+04  0.11337381661E+04  0.15294330000E+03 0.  0.
<mgrwt>
<rscale>  0 0.60843070E+03</rscale>
<asrwt>0</asrwt>
<pdfrwt beam="1">  1        1 0.23344238E+00 0.73065102E+03</pdfrwt>
<pdfrwt beam="2">  1       -1 0.54185214E-01 0.73065102E+03</pdfrwt>
<totfact> 0.22684184E+01</totfact>
</mgrwt>
</event>
<event>
 4    1  0.2514307E-008  0.1389776E+04  0.7818608E-02  0.8991668E-01
         -1   -1    0    0    0  501 -0.00000000000E+00  0.00000000000E+00  0.91345307852E+03  0.91345307853E+03  0.50400000000E-02 0.  1.
          1   -1    0    0  501    0  0.00000000000E+00 -0.00000000000E+00 -0.27606045514E+04  0.27606045514E+04  0.50400000000E-02 0. -1.
    8880023    1    1    2    0    0 -0.84591256707E+03 -0.88436416258E+03 -0.19955920820E+04  0.24318441577E+04  0.65864270000E+03 0.  0.
    8880022    1    1    2    0    0  0.84591256707E+03  0.88436416258E+03  0.14844060914E+03  0.12422134722E+04  0.15294330000E+03 0.  0.
<mgrwt>
<rscale>  0 0.13488913E+04</rscale>
<asrwt>0</asrwt>
<pdfrwt beam="1">  1        1 0.42470839E+00 0.13897763E+04</pdfrwt>
<pdfrwt beam="2">  1       -1 0.14053124E+00 0.13897763E+04</pdfrwt>
<totfact> 0.35596927E-01</totfact>
</mgrwt>
</event>
<event>
 4    1  0.2514307E-008  0.6929198E+03  0.7818608E-02  0.1002795E+00
         -1   -1    0    0    0  501 -0.00000000000E+00  0.00000000000E+00  0.40020858661E+03  0.40020858664E+03  0.50400000000E-02 0.  1.
          1   -1    0    0  501    0  0.00000000000E+00 -0.00000000000E+00 -0.12603047741E+04  0.12603047741E+04  0.50400000000E-02 0. -1.
    8880023    1    1    2    0    0 -0.21461079432E+03  0.16428947403E+02  0.67375900542E+02  0.69618777753E+03  0.65864270000E+03 0.  1.
    8880022    1    1    2    0    0  0.21461079432E+03 -0.16428947403E+02 -0.92747208801E+03  0.96432558320E+03  0.15294330000E+03 0.  0.
<mgrwt>
<rscale>  0 0.54441668E+03</rscale>
<asrwt>0</asrwt>
<pdfrwt beam="1">  1        1 0.19389304E+00 0.69291984E+03</pdfrwt>
<pdfrwt beam="2">  1       -1 0.61570552E-01 0.69291984E+03</pdfrwt>
<totfact> 0.26814185E+01</totfact>
</mgrwt>
</event>
<event>
 4    1  0.2514307E-008  0.7290843E+03  0.7818608E-02  0.9892967E-01
         -1   -1    0    0    0  501 -0.00000000000E+00  0.00000000000E+00  0.30956460076E+03  0.30956460080E+03  0.50400000000E-02 0.  1.
          1   -1    0    0  501    0  0.00000000000E+00 -0.00000000000E+00 -0.17556535609E+04  0.17556535609E+04  0.50400000000E-02 0. -1.
    8880023    1    1    2    0    0  0.26990189808E+03 -0.15781866817E+03 -0.17836995436E+03  0.75058631315E+03  0.65864270000E+03 0.  1.
    8880022    1    1    2    0    0 -0.26990189808E+03  0.15781866817E+03 -0.12677190058E+04  0.13146318485E+04  0.15294330000E+03 0.  0.
<mgrwt>
<rscale>  0 0.60603360E+03</rscale>
<asrwt>0</asrwt>
<pdfrwt beam="1">  1        1 0.27010054E+00 0.72908434E+03</pdfrwt>
<pdfrwt beam="2">  1       -1 0.47625324E-01 0.72908434E+03</pdfrwt>
<totfact> 0.20009110E+01</totfact>
</mgrwt>
</event>
<event>
 4    1  0.2514307E-008  0.1267513E+04  0.7818608E-02  0.9094135E-01
         -1   -1    0    0    0  501 -0.00000000000E+00  0.00000000000E+00  0.12013315181E+04  0.12013315181E+04  0.50400000000E-02 0.  1.
          1   -1    0    0  501    0  0.00000000000E+00 -0.00000000000E+00 -0.21236826334E+04  0.21236826334E+04  0.50400000000E-02 0. -1.
    8880023    1    1    2    0    0  0.22286483873E+03  0.10597688976E+04  0.63839853510E+03  0.14192046183E+04  0.65864270000E+03 0.  1.
    8880022    1    1    2    0    0 -0.22286483873E+03 -0.10597688976E+04 -0.15607496504E+04  0.19058095333E+04  0.15294330000E+03 0.  0.
<mgrwt>
<rscale>  0 0.12216265E+04</rscale>
<asrwt>0</asrwt>
<pdfrwt beam="1">  1        1 0.32672040E+00 0.12675129E+04</pdfrwt>
<pdfrwt beam="2">  1       -1 0.18482023E+00 0.12675129E+04</pdfrwt>
<totfact> 0.45953370E-01</totfact>
</mgrwt>
</event>
<event>
 4    1  0.2514307E-008  0.1194175E+04  0.7818608E-02  0.9162805E-01
          1   -1    0    0  501    0  0.00000000000E+00  0.00000000000E+00  0.16321979810E+04  0.16321979810E+04  0.50400000000E-02 0. -1.
         -1   -1    0    0    0  501 -0.00000000000E+00 -0.00000000000E+00 -0.13190385339E+04  0.13190385339E+04  0.50400000000E-02 0.  1.
    8880023    1    1    2    0    0 -0.60343828667E+03 -0.79253186141E+03 -0.80942942791E+03  0.14426471232E+04  0.65864270000E+03 0.  0.
    8880022    1    1    2    0    0  0.60343828667E+03  0.79253186141E+03  0.11225888751E+04  0.15085893917E+04  0.15294330000E+03 0.  0.
<mgrwt>
<rscale>  0 0.11445726E+04</rscale>
<asrwt>0</asrwt>
<pdfrwt beam="1">  1        1 0.25110738E+00 0.11941753E+04</pdfrwt>
<pdfrwt beam="2">  1       -1 0.20292900E+00 0.11941753E+04</pdfrwt>
<totfact> 0.74735305E-01</totfact>
</mgrwt>
</event>
<event>
 4    1  0.2514307E-008  0.8679837E+03  0.7818608E-02  0.9579517E-01
         -1   -1    0    0    0  501 -0.00000000000E+00  0.00000000000E+00  0.60582858356E+03  0.60582858358E+03  0.50400000000E-02 0.  1.
          1   -1    0    0  501    0  0.00000000000E+00 -0.00000000000E+00 -0.13413724586E+04  0.13413724586E+04  0.50400000000E-02 0. -1.
    8880023    1    1    2    0    0  0.56468965633E+03  0.26667574778E+02  0.15463598560E+03  0.88165075955E+03  0.65864270000E+03 0.  0.
    8880022    1    1    2    0    0 -0.56468965633E+03 -0.26667574778E+02 -0.89017986060E+03  0.10655502826E+04  0.15294330000E+03 0.  0.
<mgrwt>
<rscale>  0 0.78666867E+03</rscale>
<asrwt>0</asrwt>
<pdfrwt beam="1">  1        1 0.20636499E+00 0.86798374E+03</pdfrwt>
<pdfrwt beam="2">  1       -1 0.93204398E-01 0.86798374E+03</pdfrwt>
<totfact> 0.96340153E+00</totfact>
</mgrwt>
</event>
<event>
 4    1  0.2514307E-008  0.6925930E+03  0.7818608E-02  0.1002944E+00
          1   -1    0    0  501    0  0.00000000000E+00  0.00000000000E+00  0.18924567843E+03  0.18924567850E+03  0.50400000000E-02 0. -1.
         -1   -1    0    0    0  501 -0.00000000000E+00 -0.00000000000E+00 -0.12684612338E+04  0.12684612338E+04  0.50400000000E-02 0.  1.
    8880023    1    1    2    0    0  0.14313454669E+03  0.15933415817E+03 -0.91471975090E+03  0.11473435847E+04  0.65864270000E+03 0.  0.
    8880022    1    1    2    0    0 -0.14313454669E+03 -0.15933415817E+03 -0.16449580447E+03  0.31036332760E+03  0.15294330000E+03 0.  0.
<mgrwt>
<rscale>  0 0.54378097E+03</rscale>
<asrwt>0</asrwt>
<pdfrwt beam="1">  1        1 0.29114721E-01 0.69259301E+03</pdfrwt>
<pdfrwt beam="2">  1       -1 0.19514788E+00 0.69259301E+03</pdfrwt>
<totfact> 0.26789144E+01</totfact>
</mgrwt>
</event>
<event>
 4    1  0.2514307E-008  0.6881233E+03  0.7818608E-02  0.1005058E+00
         -1   -1    0    0    0  501 -0.00000000000E+00  0.00000000000E+00  0.11665500775E+04  0.11665500775E+04  0.50400000000E-02 0.  1.
          1   -1    0    0  501    0  0.00000000000E+00 -0.00000000000E+00 -0.18382167518E+04  0.18382167518E+04  0.50400000000E-02 0. -1.
    8880023    1    1    2    0    0  0.16663666663E+03 -0.10925058514E+03  0.10551895014E+04  0.12597374962E+04  0.65864270000E+03 0.  1.
    8880022    1    1    2    0    0 -0.16663666663E+03  0.10925058514E+03 -0.17268561757E+04  0.17450293332E+04  0.15294330000E+03 0.  0.
<mgrwt>
<rscale>  0 0.53487115E+03</rscale>
<asrwt>0</asrwt>
<pdfrwt beam="1">  1        1 0.28280258E+00 0.68812330E+03</pdfrwt>
<pdfrwt beam="2">  1       -1 0.17946924E+00 0.68812330E+03</pdfrwt>
<totfact> 0.86422598E-01</totfact>
</mgrwt>
</event>
<event>
 4    1  0.2514307E-008  0.7844129E+03  0.7818608E-02  0.9745571E-01
         -1   -1    0    0    0  501 -0.00000000000E+00  0.00000000000E+00  0.57794730692E+03  0.57794730694E+03  0.50400000000E-02 0.  1.
          1   -1    0    0  501    0  0.00000000000E+00 -0.00000000000E+00 -0.20368599636E+04  0.20368599636E+04  0.50400000000E-02 0. -1.
    8880023    1    1    2    0    0  0.31969392740E+03  0.28158347727E+03  0.26848575560E+03  0.82908881859E+03  0.65864270000E+03 0.  1.
    8880022    1    1    2    0    0 -0.31969392740E+03 -0.28158347727E+03 -0.17273984122E+04  0.17857184519E+04  0.15294330000E+03 0.  0.
<mgrwt>
<rscale>  0 0.68367133E+03</rscale>
<asrwt>0</asrwt>
<pdfrwt beam="1">  1        1 0.31336307E+00 0.78441294E+03</pdfrwt>
<pdfrwt beam="2">  1       -1 0.88914971E-01 0.78441294E+03</pdfrwt>
<totfact> 0.36497093E+00</totfact>
</mgrwt>
</event>
<event>
 4    1  0.2514307E-008  0.1181391E+04  0.7818608E-02  0.9175427E-01
          1   -1    0    0  501    0  0.00000000000E+00  0.00000000000E+00  0.33264296106E+04  0.33264296106E+04  0.50400000000E-02 0. -1.
         -1   -1    0    0    0  501 -0.00000000000E+00 -0.00000000000E+00 -0.83705328253E+03  0.83705328254E+03  0.50400000000E-02 0.  1.
    8880023    1    1    2    0    0 -0.95883397179E+03 -0.20618318219E+03 -0.28636409267E+03  0.12156021923E+04  0.65864270000E+03 0.  0.
    8880022    1    1    2    0    0  0.95883397179E+03  0.20618318219E+03  0.27757404207E+04  0.29478807008E+04  0.15294330000E+03 0.  0.
<mgrwt>
<rscale>  0 0.11310697E+04</rscale>
<asrwt>0</asrwt>
<pdfrwt beam="1">  1        1 0.51175841E+00 0.11813908E+04</pdfrwt>
<pdfrwt beam="2">  1       -1 0.12877743E+00 0.11813908E+04</pdfrwt>
<totfact> 0.17742128E-01</totfact>
</mgrwt>
</event>
<event>
 4    1  0.2514307E-008  0.1119831E+04  0.7818608E-02  0.9239292E-01
         -1   -1    0    0    0  501 -0.00000000000E+00  0.00000000000E+00  0.20831041247E+04  0.20831041247E+04  0.50400000000E-02 0.  1.
          1   -1    0    0  501    0  0.00000000000E+00 -0.00000000000E+00 -0.95022095475E+03  0.95022095476E+03  0.50400000000E-02 0. -1.
    8880023    1    1    2    0    0 -0.88986465794E+03  0.16838017502E+03  0.16386962258E+04  0.19847787080E+04  0.65864270000E+03 0.  0.
    8880022    1    1    2    0    0  0.88986465794E+03 -0.16838017502E+03 -0.50581305584E+03  0.10485463715E+04  0.15294330000E+03 0.  0.
<mgrwt>
<rscale>  0 0.10656917E+04</rscale>
<asrwt>0</asrwt>
<pdfrwt beam="1">  1        1 0.14618784E+00 0.11198309E+04</pdfrwt>
<pdfrwt beam="2">  1       -1 0.32047755E+00 0.11198309E+04</pdfrwt>
<totfact> 0.40190305E-01</totfact>
</mgrwt>
</event>
<event>
 4    1  0.2514307E-008  0.7228638E+03  0.7818608E-02  0.9913012E-01
         -1   -1    0    0    0  501 -0.00000000000E+00  0.00000000000E+00  0.18858349322E+03  0.18858349329E+03  0.50400000000E-02 0.  1.
          1   -1    0    0  501    0  0.00000000000E+00 -0.00000000000E+00 -0.21385339933E+04  0.21385339933E+04  0.50400000000E-02 0. -1.
    8880023    1    1    2    0    0 -0.23087666485E+03  0.18819639180E+03 -0.60964496315E+03  0.94562101480E+03  0.65864270000E+03 0.  1.
    8880022    1    1    2    0    0  0.23087666485E+03 -0.18819639180E+03 -0.13403055369E+04  0.13814964718E+04  0.15294330000E+03 0.  0.
<mgrwt>
<rscale>  0 0.59634783E+03</rscale>
<asrwt>0</asrwt>
<pdfrwt beam="1">  1        1 0.32900521E+00 0.72286383E+03</pdfrwt>
<pdfrwt beam="2">  1       -1 0.29012847E-01 0.72286383E+03</pdfrwt>
<totfact> 0.27100772E+01</totfact>
</mgrwt>
</event>
<event>
 4    1  0.2514307E-008  0.9489680E+03  0.7818608E-02  0.9451600E-01
          1   -1    0    0  501    0  0.00000000000E+00  0.00000000000E+00  0.96262149394E+03  0.96262149395E+03  0.50400000000E-02 0. -1.
         -1   -1    0    0    0  501 -0.00000000000E+00 -0.00000000000E+00 -0.16895316583E+04  0.16895316583E+04  0.50400000000E-02 0.  1.
    8880023    1    1    2    0    0  0.54575706133E+03  0.41094919241E+03 -0.13931964832E+04  0.16856858117E+04  0.65864270000E+03 0.  0.
    8880022    1    1    2    0    0 -0.54575706133E+03 -0.41094919241E+03  0.66628631881E+03  0.96646734057E+03  0.15294330000E+03 0.  0.
<mgrwt>
<rscale>  0 0.87948139E+03</rscale>
<asrwt>0</asrwt>
<pdfrwt beam="1">  1        1 0.14809561E+00 0.94896797E+03</pdfrwt>
<pdfrwt beam="2">  1       -1 0.25992795E+00 0.94896797E+03</pdfrwt>
<totfact> 0.98924157E-01</totfact>
</mgrwt>
</event>
<event>
 4    1  0.2514307E-008  0.7756077E+03  0.7818608E-02  0.9766258E-01
          1   -1    0    0  501    0  0.00000000000E+00  0.00000000000E+00  0.12479038572E+04  0.12479038572E+04  0.50400000000E-02 0. -1.
         -1   -1    0    0    0  501 -0.00000000000E+00 -0.00000000000E+00 -0.37748499343E+03  0.37748499347E+03  0.50400000000E-02 0.  1.
    8880023    1    1    2    0    0  0.23512491067E+03  0.33537048260E+03  0.16111376514E+03  0.79216471507E+03  0.65864270000E+03 0.  1.
    8880022    1    1    2    0    0 -0.23512491067E+03 -0.33537048260E+03  0.70930509860E+03  0.83322413559E+03  0.15294330000E+03 0.  0.
<mgrwt>
<rscale>  0 0.67205220E+03</rscale>
<asrwt>0</asrwt>
<pdfrwt beam="1">  1        1 0.19198521E+00 0.77560769E+03</pdfrwt>
<pdfrwt beam="2">  1       -1 0.58074614E-01 0.77560769E+03</pdfrwt>
<totfact> 0.30399501E+01</totfact>
</mgrwt>
</event>
<event>
 4    1  0.2514307E-008  0.6597196E+03  0.7818608E-02  0.1024446E+00
          1   -1    0    0  501    0  0.00000000000E+00  0.00000000000E+00  0.14480284553E+04  0.14480284553E+04  0.50400000000E-02 0. -1.
         -1   -1    0    0    0  501 -0.00000000000E+00 -0.00000000000E+00 -0.56465740085E+03  0.56465740087E+03  0.50400000000E-02 0.  1.
    8880023    1    1    2    0    0 -0.33560570117E+02 -0.17128294474E+02 -0.36530958755E+03  0.75410940278E+03  0.65864270000E+03 0.  1.
    8880022    1    1    2    0    0  0.33560570117E+02  0.17128294474E+02  0.12486806420E+04  0.12585764534E+04  0.15294330000E+03 0.  0.
<mgrwt>
<rscale>  0 0.46115912E+03</rscale>
<asrwt>0</asrwt>
<pdfrwt beam="1">  1        1 0.22277361E+00 0.65971956E+03</pdfrwt>
<pdfrwt beam="2">  1       -1 0.86870369E-01 0.65971956E+03</pdfrwt>
<totfact> 0.97752182E+00</totfact>
</mgrwt>
</event>
<event>
 4    1  0.2514307E-008  0.1016701E+04  0.7818608E-02  0.9360026E-01
         -1   -1    0    0    0  501 -0.00000000000E+00  0.00000000000E+00  0.32673020129E+03  0.32673020132E+03  0.50400000000E-02 0.  1.
          1   -1    0    0  501    0  0.00000000000E+00 -0.00000000000E+00 -0.30142548799E+04  0.30142548799E+04  0.50400000000E-02 0. -1.
    8880023    1    1    2    0    0  0.75573385518E+03  0.16952219141E+03 -0.79573643027E+03  0.12910763362E+04  0.65864270000E+03 0.  0.
    8880022    1    1    2    0    0 -0.75573385518E+03 -0.16952219141E+03 -0.18917882483E+04  0.20499087450E+04  0.15294330000E+03 0.  0.
<mgrwt>
<rscale>  0 0.95439680E+03</rscale>
<asrwt>0</asrwt>
<pdfrwt beam="1">  1        1 0.46373150E+00 0.10167014E+04</pdfrwt>
<pdfrwt beam="2">  1       -1 0.50266187E-01 0.10167014E+04</pdfrwt>
<totfact> 0.23780542E+00</totfact>
</mgrwt>
</event>
<event>
 4    1  0.2514307E-008  0.7163105E+03  0.7818608E-02  0.9935273E-01
          1   -1    0    0  501    0  0.00000000000E+00  0.00000000000E+00  0.45597962171E+03  0.45597962174E+03  0.50400000000E-02 0. -1.
         -1   -1    0    0    0  501 -0.00000000000E+00 -0.00000000000E+00 -0.17948764536E+04  0.17948764536E+04  0.50400000000E-02 0.  1.
    8880023    1    1    2    0    0 -0.27229165054E+03  0.71748138828E+02 -0.16533793108E+04  0.18018778788E+04  0.65864270000E+03 0.  1.
    8880022    1    1    2    0    0  0.27229165054E+03 -0.71748138828E+02  0.31448247896E+03  0.44897819653E+03  0.15294330000E+03 0.  0.
<mgrwt>
<rscale>  0 0.58581823E+03</rscale>
<asrwt>0</asrwt>
<pdfrwt beam="1">  1        1 0.70150712E-01 0.71631051E+03</pdfrwt>
<pdfrwt beam="2">  1       -1 0.27613483E+00 0.71631051E+03</pdfrwt>
<totfact> 0.24969519E+00</totfact>
</mgrwt>
</event>
<event>
 4    1  0.2514307E-008  0.7926974E+03  0.7818608E-02  0.9726814E-01
          1   -1    0    0  501    0  0.00000000000E+00  0.00000000000E+00  0.46212753109E+03  0.46212753112E+03  0.50400000000E-02 0. -1.
         -1   -1    0    0    0  501 -0.00000000000E+00 -0.00000000000E+00 -0.12108129873E+04  0.12108129873E+04  0.50400000000E-02 0.  1.
    8880023    1    1    2    0    0  0.20174928898E+03  0.39224508307E+03 -0.88352404347E+03  0.11870062858E+04  0.65864270000E+03 0.  0.
    8880022    1    1    2    0    0 -0.20174928898E+03 -0.39224508307E+03  0.13483858730E+03  0.48593423262E+03  0.15294330000E+03 0.  0.
<mgrwt>
<rscale>  0 0.69442500E+03</rscale>
<asrwt>0</asrwt>
<pdfrwt beam="1">  1        1 0.71096544E-01 0.79269741E+03</pdfrwt>
<pdfrwt beam="2">  1       -1 0.18627892E+00 0.79269741E+03</pdfrwt>
<totfact> 0.95103118E+00</totfact>
</mgrwt>
</event>
<event>
 4    1  0.2514307E-008  0.1193725E+04  0.7818608E-02  0.9163246E-01
          1   -1    0    0  501    0  0.00000000000E+00  0.00000000000E+00  0.12752284016E+04  0.12752284016E+04  0.50400000000E-02 0. -1.
         -1   -1    0    0    0  501 -0.00000000000E+00 -0.00000000000E+00 -0.19905030538E+04  0.19905030538E+04  0.50400000000E-02 0.  1.
    8880023    1    1    2    0    0  0.31905458345E+03  0.94306617251E+03 -0.15508105683E+04  0.19570368565E+04  0.65864270000E+03 0.  0.
    8880022    1    1    2    0    0 -0.31905458345E+03 -0.94306617251E+03  0.83553591605E+03  0.13086945988E+04  0.15294330000E+03 0.  0.
<mgrwt>
<rscale>  0 0.11440976E+04</rscale>
<asrwt>0</asrwt>
<pdfrwt beam="1">  1        1 0.19618898E+00 0.11937252E+04</pdfrwt>
<pdfrwt beam="2">  1       -1 0.30623124E+00 0.11937252E+04</pdfrwt>
<totfact> 0.27943022E-01</totfact>
</mgrwt>
</event>
<event>
 4    1  0.2514307E-008  0.9224069E+03  0.7818608E-02  0.9490978E-01
          1   -1    0    0  501    0  0.00000000000E+00  0.00000000000E+00  0.33280463501E+04  0.33280463501E+04  0.50400000000E-02 0. -1.
         -1   -1    0    0    0  501 -0.00000000000E+00 -0.00000000000E+00 -0.39447019648E+03  0.39447019651E+03  0.50400000000E-02 0.  1.
    8880023    1    1    2    0    0  0.25823407600E+03 -0.59189485526E+03  0.24660276806E+03  0.95480232990E+03  0.65864270000E+03 0.  0.
    8880022    1    1    2    0    0 -0.25823407600E+03  0.59189485526E+03  0.26869733855E+04  0.27677142167E+04  0.15294330000E+03 0. -1.
<mgrwt>
<rscale>  0 0.84952235E+03</rscale>
<asrwt>0</asrwt>
<pdfrwt beam="1">  1        1 0.51200713E+00 0.92240694E+03</pdfrwt>
<pdfrwt beam="2">  1       -1 0.60687722E-01 0.92240694E+03</pdfrwt>
<totfact> 0.98242082E-01</totfact>
</mgrwt>
</event>
<event>
 4    1  0.2514307E-008  0.1449186E+04  0.7818608E-02  0.8946377E-01
          1   -1    0    0  501    0  0.00000000000E+00  0.00000000000E+00  0.16900147637E+04  0.16900147637E+04  0.50400000000E-02 0. -1.
         -1   -1    0    0    0  501 -0.00000000000E+00 -0.00000000000E+00 -0.22715929644E+04  0.22715929644E+04  0.50400000000E-02 0.  1.
    8880023    1    1    2    0    0  0.12828303677E+04 -0.14379241465E+03 -0.17091345820E+04  0.22408215540E+04  0.65864270000E+03 0.  0.
    8880022    1    1    2    0    0 -0.12828303677E+04  0.14379241465E+03  0.11275563814E+04  0.17207861741E+04  0.15294330000E+03 0.  0.
<mgrwt>
<rscale>  0 0.14103276E+04</rscale>
<asrwt>0</asrwt>
<pdfrwt beam="1">  1        1 0.26000227E+00 0.14491861E+04</pdfrwt>
<pdfrwt beam="2">  1       -1 0.34947584E+00 0.14491861E+04</pdfrwt>
<totfact> 0.72173135E-02</totfact>
</mgrwt>
</event>
<event>
 4    1  0.2514307E-008  0.8202689E+03  0.7818608E-02  0.9668571E-01
         -1   -1    0    0    0  501 -0.00000000000E+00  0.00000000000E+00  0.59239141504E+03  0.59239141507E+03  0.50400000000E-02 0.  1.
          1   -1    0    0  501    0  0.00000000000E+00 -0.00000000000E+00 -0.25735473942E+04  0.25735473942E+04  0.50400000000E-02 0. -1.
    8880023    1    1    2    0    0  0.48169538635E+03 -0.83668650095E+02  0.26507374380E+03  0.86203548892E+03  0.65864270000E+03 0.  1.
    8880022    1    1    2    0    0 -0.48169538635E+03  0.83668650095E+02 -0.22462297230E+04  0.23039033204E+04  0.15294330000E+03 0.  0.
<mgrwt>
<rscale>  0 0.72919273E+03</rscale>
<asrwt>0</asrwt>
<pdfrwt beam="1">  1        1 0.39593036E+00 0.82026892E+03</pdfrwt>
<pdfrwt beam="2">  1       -1 0.91137142E-01 0.82026892E+03</pdfrwt>
<totfact> 0.14881778E+00</totfact>
</mgrwt>
</event>
<event>
 4    1  0.2514307E-008  0.9086569E+03  0.7818608E-02  0.9512275E-01
         -1   -1    0    0    0  501 -0.00000000000E+00  0.00000000000E+00  0.10246927841E+04  0.10246927841E+04  0.50400000000E-02 0.  1.
          1   -1    0    0  501    0  0.00000000000E+00 -0.00000000000E+00 -0.17156826030E+04  0.17156826030E+04  0.50400000000E-02 0. -1.
    8880023    1    1    2    0    0 -0.39211766861E+03 -0.48794552351E+03  0.73943578021E+03  0.11715044086E+04  0.65864270000E+03 0.  1.
    8880022    1    1    2    0    0  0.39211766861E+03  0.48794552351E+03 -0.14304255991E+04  0.15688709786E+04  0.15294330000E+03 0.  0.
<mgrwt>
<rscale>  0 0.83384854E+03</rscale>
<asrwt>0</asrwt>
<pdfrwt beam="1">  1        1 0.26395117E+00 0.90865687E+03</pdfrwt>
<pdfrwt beam="2">  1       -1 0.15764504E+00 0.90865687E+03</pdfrwt>
<totfact> 0.14475665E+00</totfact>
</mgrwt>
</event>
<event>
 4    1  0.2514307E-008  0.7973991E+03  0.7818608E-02  0.9716448E-01
         -1   -1    0    0    0  501 -0.00000000000E+00  0.00000000000E+00  0.57178678494E+03  0.57178678497E+03  0.50400000000E-02 0.  1.
          1   -1    0    0  501    0  0.00000000000E+00 -0.00000000000E+00 -0.15860643634E+04  0.15860643634E+04  0.50400000000E-02 0. -1.
    8880023    1    1    2    0    0 -0.18633460718E+03  0.40904100708E+03  0.22682392631E+03  0.82903222562E+03  0.65864270000E+03 0.  1.
    8880022    1    1    2    0    0  0.18633460718E+03 -0.40904100708E+03 -0.12411015047E+04  0.13288189227E+04  0.15294330000E+03 0.  0.
<mgrwt>
<rscale>  0 0.70045864E+03</rscale>
<asrwt>0</asrwt>
<pdfrwt beam="1">  1        1 0.24400990E+00 0.79739911E+03</pdfrwt>
<pdfrwt beam="2">  1       -1 0.87967198E-01 0.79739911E+03</pdfrwt>
<totfact> 0.74901106E+00</totfact>
</mgrwt>
</event>
<event>
 4    1  0.2514307E-008  0.1072054E+04  0.7818608E-02  0.9292828E-01
          1   -1    0    0  501    0  0.00000000000E+00  0.00000000000E+00  0.34853419503E+04  0.34853419503E+04  0.50400000000E-02 0. -1.
         -1   -1    0    0    0  501 -0.00000000000E+00 -0.00000000000E+00 -0.38836696516E+03  0.38836696520E+03  0.50400000000E-02 0.  1.
    8880023    1    1    2    0    0  0.37318174390E+03 -0.75909472512E+03  0.59047460894E+03  0.12239117148E+04  0.65864270000E+03 0.  1.
    8880022    1    1    2    0    0 -0.37318174390E+03  0.75909472512E+03  0.25065003762E+04  0.26497972006E+04  0.15294330000E+03 0.  0.
<mgrwt>
<rscale>  0 0.10144585E+04</rscale>
<asrwt>0</asrwt>
<pdfrwt beam="1">  1        1 0.53620647E+00 0.10720539E+04</pdfrwt>
<pdfrwt beam="2">  1       -1 0.59748762E-01 0.10720539E+04</pdfrwt>
<totfact> 0.74859890E-01</totfact>
</mgrwt>
</event>
<event>
 4    1  0.2514307E-008  0.1340220E+04  0.7818608E-02  0.9031583E-01
          1   -1    0    0  501    0  0.00000000000E+00  0.00000000000E+00  0.42353854482E+04  0.42353854482E+04  0.50400000000E-02 0. -1.
         -1   -1    0    0    0  501 -0.00000000000E+00 -0.00000000000E+00 -0.60304209297E+03  0.60304209299E+03  0.50400000000E-02 0.  1.
    8880023    1    1    2    0    0 -0.52956346586E+03 -0.10401642432E+04  0.40037030137E+03  0.13987443303E+04  0.65864270000E+03 0.  1.
    8880022    1    1    2    0    0  0.52956346586E+03  0.10401642432E+04  0.32319730538E+04  0.34396832108E+04  0.15294330000E+03 0.  0.
<mgrwt>
<rscale>  0 0.12974585E+04</rscale>
<asrwt>0</asrwt>
<pdfrwt beam="1">  1        1 0.65159772E+00 0.13402199E+04</pdfrwt>
<pdfrwt beam="2">  1       -1 0.92775712E-01 0.13402199E+04</pdfrwt>
<totfact> 0.66047780E-02</totfact>
</mgrwt>
</event>
<event>
 4    1  0.3181026E-008  0.1430671E+04  0.7818608E-02  0.8960210E-01
          1   -1    0    0  501    0  0.00000000000E+00  0.00000000000E+00  0.23481523898E+04  0.23481523898E+04  0.50400000000E-02 0. -1.
         -1   -1    0    0    0  501 -0.00000000000E+00 -0.00000000000E+00 -0.20984158030E+04  0.20984158030E+04  0.50400000000E-02 0.  1.
    8880023    1    1    2    0    0 -0.96409772997E+03 -0.82675570949E+03 -0.16325592680E+04  0.21707301550E+04  0.65864270000E+03 0.  1.
    8880022    1    1    2    0    0  0.96409772997E+03  0.82675570949E+03  0.18822958548E+04  0.22758380378E+04  0.15294330000E+03 0.  0.
<mgrwt>
<rscale>  0 0.13912048E+04</rscale>
<asrwt>0</asrwt>
<pdfrwt beam="1">  1        1 0.36125422E+00 0.14306710E+04</pdfrwt>
<pdfrwt beam="2">  1       -1 0.32283320E+00 0.14306710E+04</pdfrwt>
<totfact> 0.38560903E-02</totfact>
</mgrwt>
</event>
<event>
 4    1  0.2514307E-008  0.1195955E+04  0.7818608E-02  0.9161064E-01
         -1   -1    0    0    0  501 -0.00000000000E+00  0.00000000000E+00  0.97077037611E+03  0.97077037612E+03  0.50400000000E-02 0.  1.
          1   -1    0    0  501    0  0.00000000000E+00 -0.00000000000E+00 -0.24799515203E+04  0.24799515203E+04  0.50400000000E-02 0. -1.
    8880023    1    1    2    0    0 -0.84342716430E+03  0.53397442680E+03  0.42462094909E+03  0.12690985882E+04  0.65864270000E+03 0.  1.
    8880022    1    1    2    0    0  0.84342716430E+03 -0.53397442680E+03 -0.19338020933E+04  0.21816233082E+04  0.15294330000E+03 0.  0.
<mgrwt>
<rscale>  0 0.11464504E+04</rscale>
<asrwt>0</asrwt>
<pdfrwt beam="1">  1        1 0.38153100E+00 0.11959550E+04</pdfrwt>
<pdfrwt beam="2">  1       -1 0.14934929E+00 0.11959550E+04</pdfrwt>
<totfact> 0.48752423E-01</totfact>
</mgrwt>
</event>
<event>
 4    1  0.2514307E-008  0.7517054E+03  0.7818608E-02  0.9827075E-01
          1   -1    0    0  501    0  0.00000000000E+00  0.00000000000E+00  0.39979722900E+03  0.39979722903E+03  0.50400000000E-02 0. -1.
         -1   -1    0    0    0  501 -0.00000000000E+00 -0.00000000000E+00 -0.86294713794E+03  0.86294713796E+03  0.50400000000E-02 0.  1.
    8880023    1    1    2    0    0  0.32628397063E+03 -0.15744687609E+03 -0.16590120791E+03  0.76979488523E+03  0.65864270000E+03 0.  1.
    8880022    1    1    2    0    0 -0.32628397063E+03  0.15744687609E+03 -0.29724870104E+03  0.49294948175E+03  0.15294330000E+03 0.  0.
<mgrwt>
<rscale>  0 0.63929574E+03</rscale>
<asrwt>0</asrwt>
<pdfrwt beam="1">  1        1 0.61507266E-01 0.75170536E+03</pdfrwt>
<pdfrwt beam="2">  1       -1 0.13276110E+00 0.75170536E+03</pdfrwt>
<totfact> 0.29538454E+01</totfact>
</mgrwt>
</event>
<event>
 4    1  0.2514307E-008  0.8869113E+03  0.7818608E-02  0.9547378E-01
          1   -1    0    0  501    0  0.00000000000E+00  0.00000000000E+00  0.20063644710E+04  0.20063644710E+04  0.50400000000E-02 0. -1.
         -1   -1    0    0    0  501 -0.00000000000E+00 -0.00000000000E+00 -0.29037337839E+03  0.29037337844E+03  0.50400000000E-02 0.  1.
    8880023    1    1    2    0    0  0.50275325579E+03  0.31629203912E+03  0.12179159346E+04  0.15066289922E+04  0.65864270000E+03 0.  0.
    8880022    1    1    2    0    0 -0.50275325579E+03 -0.31629203912E+03  0.49807515803E+03  0.79010885723E+03  0.15294330000E+03 0.  0.
<mgrwt>
<rscale>  0 0.80879137E+03</rscale>
<asrwt>0</asrwt>
<pdfrwt beam="1">  1        1 0.30867146E+00 0.88691132E+03</pdfrwt>
<pdfrwt beam="2">  1       -1 0.44672827E-01 0.88691132E+03</pdfrwt>
<totfact> 0.14999600E+01</totfact>
</mgrwt>
</event>
<event>
 4    1  0.2514307E-008  0.8472977E+03  0.7818608E-02  0.9616570E-01
         -1   -1    0    0    0  501 -0.00000000000E+00  0.00000000000E+00  0.94755125145E+03  0.94755125146E+03  0.50400000000E-02 0.  1.
          1   -1    0    0  501    0  0.00000000000E+00 -0.00000000000E+00 -0.16924182064E+04  0.16924182064E+04  0.50400000000E-02 0. -1.
    8880023    1    1    2    0    0 -0.36768092471E+03 -0.38589374796E+03  0.69572757685E+03  0.10963349463E+04  0.65864270000E+03 0.  1.
    8880022    1    1    2    0    0  0.36768092471E+03  0.38589374796E+03 -0.14405945318E+04  0.15436345115E+04  0.15294330000E+03 0.  0.
<mgrwt>
<rscale>  0 0.76209090E+03</rscale>
<asrwt>0</asrwt>
<pdfrwt beam="1">  1        1 0.26037203E+00 0.84729774E+03</pdfrwt>
<pdfrwt beam="2">  1       -1 0.14577712E+00 0.84729774E+03</pdfrwt>
<totfact> 0.18741586E+00</totfact>
</mgrwt>
</event>
<event>
 4    1  0.2514307E-008  0.8232242E+03  0.7818608E-02  0.9662663E-01
         -1   -1    0    0    0  501 -0.00000000000E+00  0.00000000000E+00  0.37346992196E+03  0.37346992200E+03  0.50400000000E-02 0.  1.
          1   -1    0    0  501    0  0.00000000000E+00 -0.00000000000E+00 -0.37687043049E+04  0.37687043049E+04  0.50400000000E-02 0. -1.
    8880023    1    1    2    0    0 -0.34751259163E+03 -0.35088858771E+03 -0.12659400239E+03  0.83290098453E+03  0.65864270000E+03 0.  1.
    8880022    1    1    2    0    0  0.34751259163E+03  0.35088858771E+03 -0.32686403805E+04  0.33092732423E+04  0.15294330000E+03 0.  0.
<mgrwt>
<rscale>  0 0.73284019E+03</rscale>
<asrwt>0</asrwt>
<pdfrwt beam="1">  1        1 0.57980064E+00 0.82322415E+03</pdfrwt>
<pdfrwt beam="2">  1       -1 0.57456914E-01 0.82322415E+03</pdfrwt>
<totfact> 0.50383782E-01</totfact>
</mgrwt>
</event>
<event>
 4    1  0.2514307E-008  0.8344326E+03  0.7818608E-02  0.9640769E-01
         -1   -1    0    0    0  501 -0.00000000000E+00  0.00000000000E+00  0.63413854820E+03  0.63413854822E+03  0.50400000000E-02 0.  1.
          1   -1    0    0  501    0  0.00000000000E+00 -0.00000000000E+00 -0.94178391991E+03  0.94178391992E+03  0.50400000000E-02 0. -1.
    8880023    1    1    2    0    0  0.71416146785E+02 -0.50731373695E+03  0.17847695023E+03  0.85330634695E+03  0.65864270000E+03 0.  1.
    8880022    1    1    2    0    0 -0.71416146785E+02  0.50731373695E+03 -0.48612232194E+03  0.72261612120E+03  0.15294330000E+03 0.  0.
<mgrwt>
<rscale>  0 0.74655609E+03</rscale>
<asrwt>0</asrwt>
<pdfrwt beam="1">  1        1 0.14488983E+00 0.83443256E+03</pdfrwt>
<pdfrwt beam="2">  1       -1 0.97559776E-01 0.83443256E+03</pdfrwt>
<totfact> 0.17295398E+01</totfact>
</mgrwt>
</event>
<event>
 4    1  0.2514307E-008  0.8530131E+03  0.7818608E-02  0.9606115E-01
         -1   -1    0    0    0  501 -0.00000000000E+00  0.00000000000E+00  0.50640563796E+03  0.50640563799E+03  0.50400000000E-02 0.  1.
          1   -1    0    0  501    0  0.00000000000E+00 -0.00000000000E+00 -0.22308752252E+04  0.22308752252E+04  0.50400000000E-02 0. -1.
    8880023    1    1    2    0    0  0.44941493250E+03  0.30306333794E+03  0.70598557058E+02  0.85592962963E+03  0.65864270000E+03 0.  1.
    8880022    1    1    2    0    0 -0.44941493250E+03 -0.30306333794E+03 -0.17950681443E+04  0.18813512336E+04  0.15294330000E+03 0.  0.
<mgrwt>
<rscale>  0 0.76892791E+03</rscale>
<asrwt>0</asrwt>
<pdfrwt beam="1">  1        1 0.34321157E+00 0.85301312E+03</pdfrwt>
<pdfrwt beam="2">  1       -1 0.77908561E-01 0.85301312E+03</pdfrwt>
<totfact> 0.35514200E+00</totfact>
</mgrwt>
</event>
<event>
 4    1  0.2514307E-008  0.1236014E+04  0.7818608E-02  0.9122885E-01
         -1   -1    0    0    0  501 -0.00000000000E+00  0.00000000000E+00  0.14180798225E+04  0.14180798225E+04  0.50400000000E-02 0.  1.
          1   -1    0    0  501    0  0.00000000000E+00 -0.00000000000E+00 -0.10960336628E+04  0.10960336628E+04  0.50400000000E-02 0. -1.
    8880023    1    1    2    0    0  0.10413815125E+04  0.97183905729E+02  0.66409033697E+03  0.14031202187E+04  0.65864270000E+03 0.  1.
    8880022    1    1    2    0    0 -0.10413815125E+04 -0.97183905729E+02 -0.34204417722E+03  0.11109932666E+04  0.15294330000E+03 0.  0.
<mgrwt>
<rscale>  0 0.11886098E+04</rscale>
<asrwt>0</asrwt>
<pdfrwt beam="1">  1        1 0.16862056E+00 0.12360139E+04</pdfrwt>
<pdfrwt beam="2">  1       -1 0.21816613E+00 0.12360139E+04</pdfrwt>
<totfact> 0.14116854E+00</totfact>
</mgrwt>
</event>
<event>
 4    1  0.2514307E-008  0.9456242E+03  0.7818608E-02  0.9456438E-01
         -1   -1    0    0    0  501 -0.00000000000E+00  0.00000000000E+00  0.23016532026E+04  0.23016532026E+04  0.50400000000E-02 0.  1.
          1   -1    0    0  501    0  0.00000000000E+00 -0.00000000000E+00 -0.94744960950E+03  0.94744960951E+03  0.50400000000E-02 0. -1.
    8880023    1    1    2    0    0  0.54262481595E+03 -0.40737357638E+03  0.20547539795E+04  0.22619060644E+04  0.65864270000E+03 0.  1.
    8880022    1    1    2    0    0 -0.54262481595E+03  0.40737357638E+03 -0.70055038646E+03  0.98719674766E+03  0.15294330000E+03 0.  0.
<mgrwt>
<rscale>  0 0.87573087E+03</rscale>
<asrwt>0</asrwt>
<pdfrwt beam="1">  1        1 0.14576148E+00 0.94562420E+03</pdfrwt>
<pdfrwt beam="2">  1       -1 0.35410049E+00 0.94562420E+03</pdfrwt>
<totfact> 0.25053762E-01</totfact>
</mgrwt>
</event>
<event>
 4    1  0.2514307E-008  0.8282422E+03  0.7818608E-02  0.9652762E-01
          1   -1    0    0  501    0  0.00000000000E+00  0.00000000000E+00  0.12478806961E+04  0.12478806961E+04  0.50400000000E-02 0. -1.
         -1   -1    0    0    0  501 -0.00000000000E+00 -0.00000000000E+00 -0.10096553473E+04  0.10096553474E+04  0.50400000000E-02 0.  1.
    8880023    1    1    2    0    0  0.11650287096E+03  0.48846901124E+03 -0.76358695864E+03  0.11265212575E+04  0.65864270000E+03 0.  1.
    8880022    1    1    2    0    0 -0.11650287096E+03 -0.48846901124E+03  0.10018123074E+04  0.11310147860E+04  0.15294330000E+03 0.  0.
<mgrwt>
<rscale>  0 0.73900320E+03</rscale>
<asrwt>0</asrwt>
<pdfrwt beam="1">  1        1 0.19198164E+00 0.82824217E+03</pdfrwt>
<pdfrwt beam="2">  1       -1 0.15533159E+00 0.82824217E+03</pdfrwt>
<totfact> 0.32167934E+00</totfact>
</mgrwt>
</event>
<event>
 4    1  0.2514307E-008  0.1271387E+04  0.7818608E-02  0.9090671E-01
         -1   -1    0    0    0  501 -0.00000000000E+00  0.00000000000E+00  0.21518837238E+04  0.21518837238E+04  0.50400000000E-02 0.  1.
          1   -1    0    0  501    0  0.00000000000E+00 -0.00000000000E+00 -0.14846439214E+04  0.14846439214E+04  0.50400000000E-02 0. -1.
    8880023    1    1    2    0    0 -0.10821841623E+04 -0.10720101186E+03  0.17041554391E+04  0.21261633486E+04  0.65864270000E+03 0.  0.
    8880022    1    1    2    0    0  0.10821841623E+04  0.10720101186E+03 -0.10369156366E+04  0.15103642966E+04  0.15294330000E+03 0.  0.
<mgrwt>
<rscale>  0 0.12256798E+04</rscale>
<asrwt>0</asrwt>
<pdfrwt beam="1">  1        1 0.22840676E+00 0.12713870E+04</pdfrwt>
<pdfrwt beam="2">  1       -1 0.33105903E+00 0.12713870E+04</pdfrwt>
<totfact> 0.13552590E-01</totfact>
</mgrwt>
</event>
<event>
 4    1  0.2514307E-008  0.1019195E+04  0.7818608E-02  0.9356864E-01
         -1   -1    0    0    0  501 -0.00000000000E+00  0.00000000000E+00  0.94952824114E+03  0.94952824115E+03  0.50400000000E-02 0.  1.
          1   -1    0    0  501    0  0.00000000000E+00 -0.00000000000E+00 -0.22027617745E+04  0.22027617745E+04  0.50400000000E-02 0. -1.
    8880023    1    1    2    0    0 -0.70224690230E+03  0.33436237974E+03  0.56746273479E+03  0.11665217848E+04  0.65864270000E+03 0.  1.
    8880022    1    1    2    0    0  0.70224690230E+03 -0.33436237974E+03 -0.18206962682E+04  0.19857682309E+04  0.15294330000E+03 0.  0.
<mgrwt>
<rscale>  0 0.95712235E+03</rscale>
<asrwt>0</asrwt>
<pdfrwt beam="1">  1        1 0.33888643E+00 0.10191953E+04</pdfrwt>
<pdfrwt beam="2">  1       -1 0.14608127E+00 0.10191953E+04</pdfrwt>
<totfact> 0.82120800E-01</totfact>
</mgrwt>
</event>
<event>
 4    1  0.2514307E-008  0.8379424E+03  0.7818608E-02  0.9634072E-01
         -1   -1    0    0    0  501 -0.00000000000E+00  0.00000000000E+00  0.77001889011E+03  0.77001889013E+03  0.50400000000E-02 0.  1.
          1   -1    0    0  501    0  0.00000000000E+00 -0.00000000000E+00 -0.96787090934E+03  0.96787090935E+03  0.50400000000E-02 0. -1.
    8880023    1    1    2    0    0  0.38925286624E+03 -0.34178851636E+03  0.40312221640E+03  0.92986822260E+03  0.65864270000E+03 0.  1.
    8880022    1    1    2    0    0 -0.38925286624E+03  0.34178851636E+03 -0.60097423563E+03  0.80802157687E+03  0.15294330000E+03 0.  0.
<mgrwt>
<rscale>  0 0.75081515E+03</rscale>
<asrwt>0</asrwt>
<pdfrwt beam="1">  1        1 0.14890322E+00 0.83794235E+03</pdfrwt>
<pdfrwt beam="2">  1       -1 0.11846444E+00 0.83794235E+03</pdfrwt>
<totfact> 0.10457632E+01</totfact>
</mgrwt>
</event>
<event>
 4    1  0.2514307E-008  0.7959584E+03  0.7818608E-02  0.9719604E-01
         -1   -1    0    0    0  501 -0.00000000000E+00  0.00000000000E+00  0.55936565023E+03  0.55936565025E+03  0.50400000000E-02 0.  1.
          1   -1    0    0  501    0  0.00000000000E+00 -0.00000000000E+00 -0.10220827890E+04  0.10220827890E+04  0.50400000000E-02 0. -1.
    8880023    1    1    2    0    0  0.34613154332E+03  0.28272345440E+03  0.14776168744E+03  0.80955748374E+03  0.65864270000E+03 0.  1.
    8880022    1    1    2    0    0 -0.34613154332E+03 -0.28272345440E+03 -0.61047882624E+03  0.77189095555E+03  0.15294330000E+03 0.  0.
<mgrwt>
<rscale>  0 0.69861489E+03</rscale>
<asrwt>0</asrwt>
<pdfrwt beam="1">  1        1 0.15724351E+00 0.79595842E+03</pdfrwt>
<pdfrwt beam="2">  1       -1 0.86056254E-01 0.79595842E+03</pdfrwt>
<totfact> 0.19844508E+01</totfact>
</mgrwt>
</event>
<event>
 4    1  0.2514307E-008  0.6843950E+03  0.7818608E-02  0.1006939E+00
          1   -1    0    0  501    0  0.00000000000E+00  0.00000000000E+00  0.27501550940E+03  0.27501550945E+03  0.50400000000E-02 0. -1.
         -1   -1    0    0    0  501 -0.00000000000E+00 -0.00000000000E+00 -0.11482648185E+04  0.11482648185E+04  0.50400000000E-02 0.  1.
    8880023    1    1    2    0    0  0.18591533705E+03  0.46737218352E+01 -0.94973520898E+03  0.11706380865E+04  0.65864270000E+03 0.  1.
    8880022    1    1    2    0    0 -0.18591533705E+03 -0.46737218352E+01  0.76485899920E+02  0.25264224138E+03  0.15294330000E+03 0.  0.
<mgrwt>
<rscale>  0 0.52709397E+03</rscale>
<asrwt>0</asrwt>
<pdfrwt beam="1">  1        1 0.42310079E-01 0.68439503E+03</pdfrwt>
<pdfrwt beam="2">  1       -1 0.17665612E+00 0.68439503E+03</pdfrwt>
<totfact> 0.22299678E+01</totfact>
</mgrwt>
</event>
<event>
 4    1  0.2514307E-008  0.1397016E+04  0.7818608E-02  0.8986005E-01
          1   -1    0    0  501    0  0.00000000000E+00  0.00000000000E+00  0.14971874601E+04  0.14971874601E+04  0.50400000000E-02 0. -1.
         -1   -1    0    0    0  501 -0.00000000000E+00 -0.00000000000E+00 -0.16022079226E+04  0.16022079226E+04  0.50400000000E-02 0.  1.
    8880023    1    1    2    0    0  0.11230100603E+04 -0.50664866377E+03 -0.86562237516E+03  0.16434587816E+04  0.65864270000E+03 0.  0.
    8880022    1    1    2    0    0 -0.11230100603E+04  0.50664866377E+03  0.76060191259E+03  0.14559366011E+04  0.15294330000E+03 0.  0.
<mgrwt>
<rscale>  0 0.13563906E+04</rscale>
<asrwt>0</asrwt>
<pdfrwt beam="1">  1        1 0.23033653E+00 0.13970163E+04</pdfrwt>
<pdfrwt beam="2">  1       -1 0.24649353E+00 0.13970163E+04</pdfrwt>
<totfact> 0.46216356E-01</totfact>
</mgrwt>
</event>
<event>
 4    1  0.2514307E-008  0.9012077E+03  0.7818608E-02  0.9524096E-01
          1   -1    0    0  501    0  0.00000000000E+00  0.00000000000E+00  0.71240113137E+03  0.71240113138E+03  0.50400000000E-02 0. -1.
         -1   -1    0    0    0  501 -0.00000000000E+00 -0.00000000000E+00 -0.19926235341E+04  0.19926235341E+04  0.50400000000E-02 0.  1.
    8880023    1    1    2    0    0 -0.53839550361E+03 -0.29748164692E+03 -0.17143297204E+04  0.19367760958E+04  0.65864270000E+03 0.  0.
    8880022    1    1    2    0    0  0.53839550361E+03  0.29748164692E+03  0.43410731770E+03  0.76824856971E+03  0.15294330000E+03 0.  0.
<mgrwt>
<rscale>  0 0.82530419E+03</rscale>
<asrwt>0</asrwt>
<pdfrwt beam="1">  1        1 0.10960017E+00 0.90120766E+03</pdfrwt>
<pdfrwt beam="2">  1       -1 0.30655746E+00 0.90120766E+03</pdfrwt>
<totfact> 0.81814853E-01</totfact>
</mgrwt>
</event>
<event>
 4    1  0.2514307E-008  0.9623628E+03  0.7818608E-02  0.9432546E-01
         -1   -1    0    0    0  501 -0.00000000000E+00  0.00000000000E+00  0.55378731444E+03  0.55378731447E+03  0.50400000000E-02 0.  1.
          1   -1    0    0  501    0  0.00000000000E+00 -0.00000000000E+00 -0.17196742211E+04  0.17196742211E+04  0.50400000000E-02 0. -1.
    8880023    1    1    2    0    0 -0.15067808843E+03  0.68529407651E+03 -0.72189505469E+02  0.96506652029E+03  0.65864270000E+03 0.  1.
    8880022    1    1    2    0    0  0.15067808843E+03 -0.68529407651E+03 -0.10936974012E+04  0.13083950153E+04  0.15294330000E+03 0.  0.
<mgrwt>
<rscale>  0 0.89445031E+03</rscale>
<asrwt>0</asrwt>
<pdfrwt beam="1">  1        1 0.26456526E+00 0.96236275E+03</pdfrwt>
<pdfrwt beam="2">  1       -1 0.85198049E-01 0.96236275E+03</pdfrwt>
<totfact> 0.63741233E+00</totfact>
</mgrwt>
</event>
<event>
 4    1  0.2514307E-008  0.1666338E+04  0.7818608E-02  0.8800316E-01
          1   -1    0    0  501    0  0.00000000000E+00  0.00000000000E+00  0.22659601268E+04  0.22659601268E+04  0.50400000000E-02 0. -1.
         -1   -1    0    0    0  501 -0.00000000000E+00 -0.00000000000E+00 -0.13872044467E+04  0.13872044467E+04  0.50400000000E-02 0.  1.
    8880023    1    1    2    0    0 -0.12897287074E+04  0.82430086420E+03  0.12350997590E+04  0.20741633674E+04  0.65864270000E+03 0.  0.
    8880022    1    1    2    0    0  0.12897287074E+04 -0.82430086420E+03 -0.35634407887E+03  0.15790012062E+04  0.15294330000E+03 0.  0.
<mgrwt>
<rscale>  0 0.16333536E+04</rscale>
<asrwt>0</asrwt>
<pdfrwt beam="1">  1        1 0.34860925E+00 0.16663380E+04</pdfrwt>
<pdfrwt beam="2">  1       -1 0.21341607E+00 0.16663380E+04</pdfrwt>
<totfact> 0.22184535E-01</totfact>
</mgrwt>
</event>
<event>
 4    1  0.2514307E-008  0.8469957E+03  0.7818608E-02  0.9617128E-01
         -1   -1    0    0    0  501 -0.00000000000E+00  0.00000000000E+00  0.17208846998E+04  0.17208846998E+04  0.50400000000E-02 0.  1.
          1   -1    0    0  501    0  0.00000000000E+00 -0.00000000000E+00 -0.85041213346E+03  0.85041213348E+03  0.50400000000E-02 0. -1.
    8880023    1    1    2    0    0  0.51313017819E+03  0.14243894374E+03  0.15061962526E+04  0.17280129600E+04  0.65864270000E+03 0.  0.
    8880022    1    1    2    0    0 -0.51313017819E+03 -0.14243894374E+03 -0.63572368630E+03  0.84328387320E+03  0.15294330000E+03 0. -1.
<mgrwt>
<rscale>  0 0.76172848E+03</rscale>
<asrwt>0</asrwt>
<pdfrwt beam="1">  1        1 0.13083264E+00 0.84699565E+03</pdfrwt>
<pdfrwt beam="2">  1       -1 0.26475149E+00 0.84699565E+03</pdfrwt>
<totfact> 0.11559102E+00</totfact>
</mgrwt>
</event>
<event>
 4    1  0.2514307E-008  0.1339481E+04  0.7818608E-02  0.9032194E-01
         -1   -1    0    0    0  501 -0.00000000000E+00  0.00000000000E+00  0.11084173289E+04  0.11084173289E+04  0.50400000000E-02 0.  1.
          1   -1    0    0  501    0  0.00000000000E+00 -0.00000000000E+00 -0.16078582387E+04  0.16078582387E+04  0.50400000000E-02 0. -1.
    8880023    1    1    2    0    0  0.11647883777E+04 -0.60558766898E+02  0.18983098851E+03  0.13528656029E+04  0.65864270000E+03 0.  0.
    8880022    1    1    2    0    0 -0.11647883777E+04  0.60558766898E+02 -0.68927189832E+03  0.13634099647E+04  0.15294330000E+03 0.  0.
<mgrwt>
<rscale>  0 0.12966903E+04</rscale>
<asrwt>0</asrwt>
<pdfrwt beam="1">  1        1 0.24736281E+00 0.13394811E+04</pdfrwt>
<pdfrwt beam="2">  1       -1 0.17052574E+00 0.13394811E+04</pdfrwt>
<totfact> 0.12969842E+00</totfact>
</mgrwt>
</event>
<event>
 4    1  0.2514307E-008  0.8164251E+03  0.7818608E-02  0.9676346E-01
          1   -1    0    0  501    0  0.00000000000E+00  0.00000000000E+00  0.36414924307E+04  0.36414924307E+04  0.50400000000E-02 0. -1.
         -1   -1    0    0    0  501 -0.00000000000E+00 -0.00000000000E+00 -0.61573785995E+03  0.61573785997E+03  0.50400000000E-02 0.  1.
    8880023    1    1    2    0    0 -0.29565387073E+03  0.38121972579E+03 -0.31742475197E+03  0.87596139757E+03  0.65864270000E+03 0.  0.
    8880022    1    1    2    0    0  0.29565387073E+03 -0.38121972579E+03  0.33431793227E+04  0.33812688931E+04  0.15294330000E+03 0.  0.
<mgrwt>
<rscale>  0 0.72442777E+03</rscale>
<asrwt>0</asrwt>
<pdfrwt beam="1">  1        1 0.56022959E+00 0.81642507E+03</pdfrwt>
<pdfrwt beam="2">  1       -1 0.94728904E-01 0.81642507E+03</pdfrwt>
<totfact> 0.22535799E-01</totfact>
</mgrwt>
</event>
<event>
 4    1  0.2514307E-008  0.6623629E+03  0.7818608E-02  0.1021856E+00
         -1   -1    0    0    0  501 -0.00000000000E+00  0.00000000000E+00  0.42314148627E+03  0.42314148630E+03  0.50400000000E-02 0.  1.
          1   -1    0    0  501    0  0.00000000000E+00 -0.00000000000E+00 -0.52126427235E+03  0.52126427238E+03  0.50400000000E-02 0. -1.
    8880023    1    1    2    0    0  0.10140464006E+02  0.69365900754E+02  0.11563309131E+03  0.67238060298E+03  0.65864270000E+03 0.  1.
    8880022    1    1    2    0    0 -0.10140464006E+02 -0.69365900754E+02 -0.21375587739E+03  0.27202515570E+03  0.15294330000E+03 0. -1.
<mgrwt>
<rscale>  0 0.47022644E+03</rscale>
<asrwt>0</asrwt>
<pdfrwt beam="1">  1        1 0.80194503E-01 0.66236294E+03</pdfrwt>
<pdfrwt beam="2">  1       -1 0.65098690E-01 0.66236294E+03</pdfrwt>
<totfact> 0.10248088E+02</totfact>
</mgrwt>
</event>
<event>
 4    1  0.2514307E-008  0.6880508E+03  0.7818608E-02  0.1005093E+00
         -1   -1    0    0    0  501 -0.00000000000E+00  0.00000000000E+00  0.16476940262E+03  0.16476940269E+03  0.50400000000E-02 0.  1.
          1   -1    0    0  501    0  0.00000000000E+00 -0.00000000000E+00 -0.24221244320E+04  0.24221244320E+04  0.50400000000E-02 0. -1.
    8880023    1    1    2    0    0  0.58362431326E+01  0.19892110501E+03 -0.60690320807E+03  0.91746682664E+03  0.65864270000E+03 0.  0.
    8880022    1    1    2    0    0 -0.58362431326E+01 -0.19892110501E+03 -0.16504518213E+04  0.16694270080E+04  0.15294330000E+03 0.  0.
<mgrwt>
<rscale>  0 0.53472305E+03</rscale>
<asrwt>0</asrwt>
<pdfrwt beam="1">  1        1 0.37263450E+00 0.68805078E+03</pdfrwt>
<pdfrwt beam="2">  1       -1 0.25349141E-01 0.68805078E+03</pdfrwt>
<totfact> 0.22142086E+01</totfact>
</mgrwt>
</event>
<event>
 4    1  0.2514307E-008  0.1168667E+04  0.7818608E-02  0.9188198E-01
         -1   -1    0    0    0  501 -0.00000000000E+00  0.00000000000E+00  0.68070665201E+03  0.68070665203E+03  0.50400000000E-02 0.  1.
          1   -1    0    0  501    0  0.00000000000E+00 -0.00000000000E+00 -0.17278114363E+04  0.17278114363E+04  0.50400000000E-02 0. -1.
    8880023    1    1    2    0    0  0.12959296877E+03 -0.95664991435E+03 -0.39538273589E+03  0.12337386718E+04  0.65864270000E+03 0.  0.
    8880022    1    1    2    0    0 -0.12959296877E+03  0.95664991435E+03 -0.65172204841E+03  0.11747794166E+04  0.15294330000E+03 0.  0.
<mgrwt>
<rscale>  0 0.11176077E+04</rscale>
<asrwt>0</asrwt>
<pdfrwt beam="1">  1        1 0.26581714E+00 0.11686674E+04</pdfrwt>
<pdfrwt beam="2">  1       -1 0.10472410E+00 0.11686674E+04</pdfrwt>
<totfact> 0.38605112E+00</totfact>
</mgrwt>
</event>
<event>
 4    1  0.2514307E-008  0.6725661E+03  0.7818608E-02  0.1013886E+00
          1   -1    0    0  501    0  0.00000000000E+00  0.00000000000E+00  0.14049279683E+04  0.14049279683E+04  0.50400000000E-02 0. -1.
         -1   -1    0    0    0  501 -0.00000000000E+00 -0.00000000000E+00 -0.56490685951E+03  0.56490685954E+03  0.50400000000E-02 0.  1.
    8880023    1    1    2    0    0 -0.58063497983E+02 -0.12314067290E+03 -0.35285837489E+03  0.75950920608E+03  0.65864270000E+03 0.  1.
    8880022    1    1    2    0    0  0.58063497983E+02  0.12314067290E+03  0.11928794837E+04  0.12103256218E+04  0.15294330000E+03 0.  0.
<mgrwt>
<rscale>  0 0.49958859E+03</rscale>
<asrwt>0</asrwt>
<pdfrwt beam="1">  1        1 0.21614276E+00 0.67256613E+03</pdfrwt>
<pdfrwt beam="2">  1       -1 0.86908750E-01 0.67256613E+03</pdfrwt>
<totfact> 0.10434664E+01</totfact>
</mgrwt>
</event>
<event>
 4    1  0.2514307E-008  0.1346092E+04  0.7818608E-02  0.9026744E-01
         -1   -1    0    0    0  501 -0.00000000000E+00  0.00000000000E+00  0.14774491827E+04  0.14774491827E+04  0.50400000000E-02 0.  1.
          1   -1    0    0  501    0  0.00000000000E+00 -0.00000000000E+00 -0.23819524672E+04  0.23819524672E+04  0.50400000000E-02 0. -1.
    8880023    1    1    2    0    0 -0.88137560159E+03  0.77545586424E+03  0.95821037094E+03  0.16523111298E+04  0.65864270000E+03 0.  1.
    8880022    1    1    2    0    0  0.88137560159E+03 -0.77545586424E+03 -0.18627136555E+04  0.22070905201E+04  0.15294330000E+03 0.  0.
<mgrwt>
<rscale>  0 0.13035632E+04</rscale>
<asrwt>0</asrwt>
<pdfrwt beam="1">  1        1 0.36645423E+00 0.13460925E+04</pdfrwt>
<pdfrwt beam="2">  1       -1 0.22729987E+00 0.13460925E+04</pdfrwt>
<totfact> 0.15496284E-01</totfact>
</mgrwt>
</event>
<event>
 4    1  0.2514307E-008  0.1128109E+04  0.7818608E-02  0.9230387E-01
         -1   -1    0    0    0  501 -0.00000000000E+00  0.00000000000E+00  0.15863615742E+04  0.15863615743E+04  0.50400000000E-02 0.  1.
          1   -1    0    0  501    0  0.00000000000E+00 -0.00000000000E+00 -0.14457586928E+04  0.14457586928E+04  0.50400000000E-02 0. -1.
    8880023    1    1    2    0    0 -0.90895348251E+03 -0.11235152795E+03  0.11839950611E+04  0.16353818546E+04  0.65864270000E+03 0.  1.
    8880022    1    1    2    0    0  0.90895348251E+03  0.11235152795E+03 -0.10433921797E+04  0.13967384124E+04  0.15294330000E+03 0.  0.
<mgrwt>
<rscale>  0 0.10745211E+04</rscale>
<asrwt>0</asrwt>
<pdfrwt beam="1">  1        1 0.22242441E+00 0.11281088E+04</pdfrwt>
<pdfrwt beam="2">  1       -1 0.24405563E+00 0.11281088E+04</pdfrwt>
<totfact> 0.53901903E-01</totfact>
</mgrwt>
</event>
<event>
 4    1  0.2514307E-008  0.8105758E+03  0.7818608E-02  0.9688379E-01
         -1   -1    0    0    0  501 -0.00000000000E+00  0.00000000000E+00  0.46173584193E+03  0.46173584195E+03  0.50400000000E-02 0.  1.
          1   -1    0    0  501    0  0.00000000000E+00 -0.00000000000E+00 -0.13717882534E+04  0.13717882534E+04  0.50400000000E-02 0. -1.
    8880023    1    1    2    0    0 -0.37830806760E+03  0.28302996607E+03 -0.15910847874E+02  0.81073196375E+03  0.65864270000E+03 0.  0.
    8880022    1    1    2    0    0  0.37830806760E+03 -0.28302996607E+03 -0.89414156357E+03  0.10227921316E+04  0.15294330000E+03 0.  0.
<mgrwt>
<rscale>  0 0.71712949E+03</rscale>
<asrwt>0</asrwt>
<pdfrwt beam="1">  1        1 0.21104434E+00 0.81057582E+03</pdfrwt>
<pdfrwt beam="2">  1       -1 0.71036284E-01 0.81057582E+03</pdfrwt>
<totfact> 0.16518818E+01</totfact>
</mgrwt>
</event>
<event>
 4    1  0.2514307E-008  0.1306618E+04  0.7818608E-02  0.9059866E-01
         -1   -1    0    0    0  501 -0.00000000000E+00  0.00000000000E+00  0.14673923219E+04  0.14673923219E+04  0.50400000000E-02 0.  1.
          1   -1    0    0  501    0  0.00000000000E+00 -0.00000000000E+00 -0.24444192942E+04  0.24444192942E+04  0.50400000000E-02 0. -1.
    8880023    1    1    2    0    0  0.80900616644E+03 -0.78673374184E+03  0.98973296417E+03  0.16391529839E+04  0.65864270000E+03 0.  1.
    8880022    1    1    2    0    0 -0.80900616644E+03  0.78673374184E+03 -0.19667599365E+04  0.22726586323E+04  0.15294330000E+03 0.  0.
<mgrwt>
<rscale>  0 0.12624728E+04</rscale>
<asrwt>0</asrwt>
<pdfrwt beam="1">  1        1 0.37606451E+00 0.13066182E+04</pdfrwt>
<pdfrwt beam="2">  1       -1 0.22575267E+00 0.13066182E+04</pdfrwt>
<totfact> 0.14455160E-01</totfact>
</mgrwt>
</event>
<event>
 4    1  0.2514307E-008  0.8811339E+03  0.7818608E-02  0.9557023E-01
          1   -1    0    0  501    0  0.00000000000E+00  0.00000000000E+00  0.15394018239E+04  0.15394018239E+04  0.50400000000E-02 0. -1.
         -1   -1    0    0    0  501 -0.00000000000E+00 -0.00000000000E+00 -0.15172975344E+04  0.15172975344E+04  0.50400000000E-02 0.  1.
    8880023    1    1    2    0    0 -0.18299942444E+03  0.55596576702E+03 -0.13185535907E+04  0.15858690051E+04  0.65864270000E+03 0.  0.
    8880022    1    1    2    0    0  0.18299942444E+03 -0.55596576702E+03  0.13406578802E+04  0.14708303533E+04  0.15294330000E+03 0.  0.
<mgrwt>
<rscale>  0 0.80207200E+03</rscale>
<asrwt>0</asrwt>
<pdfrwt beam="1">  1        1 0.23683105E+00 0.88113389E+03</pdfrwt>
<pdfrwt beam="2">  1       -1 0.23343039E+00 0.88113389E+03</pdfrwt>
<totfact> 0.56748907E-01</totfact>
</mgrwt>
</event>
<event>
 4    1  0.2514307E-008  0.8680114E+03  0.7818608E-02  0.9579469E-01
         -1   -1    0    0    0  501 -0.00000000000E+00  0.00000000000E+00  0.49565700224E+03  0.49565700227E+03  0.50400000000E-02 0.  1.
          1   -1    0    0  501    0  0.00000000000E+00 -0.00000000000E+00 -0.18539146516E+04  0.18539146517E+04  0.50400000000E-02 0. -1.
    8880023    1    1    2    0    0  0.55284011940E+03 -0.11832747969E+03  0.26184765596E+01  0.86801535283E+03  0.65864270000E+03 0.  1.
    8880022    1    1    2    0    0 -0.55284011940E+03  0.11832747969E+03 -0.13608761260E+04  0.14815563011E+04  0.15294330000E+03 0.  0.
<mgrwt>
<rscale>  0 0.78670124E+03</rscale>
<asrwt>0</asrwt>
<pdfrwt beam="1">  1        1 0.28521764E+00 0.86801140E+03</pdfrwt>
<pdfrwt beam="2">  1       -1 0.76254924E-01 0.86801140E+03</pdfrwt>
<totfact> 0.66406563E+00</totfact>
</mgrwt>
</event>
<event>
 4    1  0.2514307E-008  0.8856302E+03  0.7818608E-02  0.9549505E-01
         -1   -1    0    0    0  501 -0.00000000000E+00  0.00000000000E+00  0.77027456329E+03  0.77027456330E+03  0.50400000000E-02 0.  1.
          1   -1    0    0  501    0  0.00000000000E+00 -0.00000000000E+00 -0.10314849000E+04  0.10314849000E+04  0.50400000000E-02 0. -1.
    8880023    1    1    2    0    0  0.28516764057E+03 -0.51885461959E+03  0.33580285423E+03  0.94715598645E+03  0.65864270000E+03 0.  1.
    8880022    1    1    2    0    0 -0.28516764057E+03  0.51885461959E+03 -0.59701319093E+03  0.85460347686E+03  0.15294330000E+03 0.  0.
<mgrwt>
<rscale>  0 0.80730381E+03</rscale>
<asrwt>0</asrwt>
<pdfrwt beam="1">  1        1 0.15868999E+00 0.88563023E+03</pdfrwt>
<pdfrwt beam="2">  1       -1 0.11850378E+00 0.88563023E+03</pdfrwt>
<totfact> 0.92697500E+00</totfact>
</mgrwt>
</event>
<event>
 4    1  0.2514307E-008  0.7898517E+03  0.7818608E-02  0.9733184E-01
          1   -1    0    0  501    0  0.00000000000E+00  0.00000000000E+00  0.95271238052E+03  0.95271238054E+03  0.50400000000E-02 0. -1.
         -1   -1    0    0    0  501 -0.00000000000E+00 -0.00000000000E+00 -0.62539720404E+03  0.62539720406E+03  0.50400000000E-02 0.  1.
    8880023    1    1    2    0    0 -0.17070716549E+03  0.40114167273E+03 -0.25937424547E+03  0.83134877363E+03  0.65864270000E+03 0.  0.
    8880022    1    1    2    0    0  0.17070716549E+03 -0.40114167273E+03  0.58668942195E+03  0.74676081096E+03  0.15294330000E+03 0.  0.
<mgrwt>
<rscale>  0 0.69074938E+03</rscale>
<asrwt>0</asrwt>
<pdfrwt beam="1">  1        1 0.14657113E+00 0.78985175E+03</pdfrwt>
<pdfrwt beam="2">  1       -1 0.96214955E-01 0.78985175E+03</pdfrwt>
<totfact> 0.17580178E+01</totfact>
</mgrwt>
</event>
<event>
 4    1  0.2514307E-008  0.8566237E+03  0.7818608E-02  0.9599598E-01
          1   -1    0    0  501    0  0.00000000000E+00  0.00000000000E+00  0.10680400175E+04  0.10680400176E+04  0.50400000000E-02 0. -1.
         -1   -1    0    0    0  501 -0.00000000000E+00 -0.00000000000E+00 -0.11500795609E+04  0.11500795609E+04  0.50400000000E-02 0.  1.
    8880023    1    1    2    0    0  0.40025840746E+01 -0.54770246042E+03 -0.88663211531E+03  0.12328506479E+04  0.65864270000E+03 0.  1.
    8880022    1    1    2    0    0 -0.40025840746E+01  0.54770246042E+03  0.80459257192E+03  0.98526893062E+03  0.15294330000E+03 0.  0.
<mgrwt>
<rscale>  0 0.77322817E+03</rscale>
<asrwt>0</asrwt>
<pdfrwt beam="1">  1        1 0.16431385E+00 0.85662373E+03</pdfrwt>
<pdfrwt beam="2">  1       -1 0.17693532E+00 0.85662373E+03</pdfrwt>
<totfact> 0.30037407E+00</totfact>
</mgrwt>
</event>
<event>
 4    1  0.2514307E-008  0.1221640E+04  0.7818608E-02  0.9136368E-01
         -1   -1    0    0    0  501 -0.00000000000E+00  0.00000000000E+00  0.94373426171E+03  0.94373426172E+03  0.50400000000E-02 0.  1.
          1   -1    0    0  501    0  0.00000000000E+00 -0.00000000000E+00 -0.27837633210E+04  0.27837633210E+04  0.50400000000E-02 0. -1.
    8880023    1    1    2    0    0 -0.97257081507E+03 -0.33570864618E+03  0.37707492615E+03  0.12785108492E+04  0.65864270000E+03 0.  0.
    8880022    1    1    2    0    0  0.97257081507E+03  0.33570864618E+03 -0.22171039854E+04  0.24489867334E+04  0.15294330000E+03 0.  0.
<mgrwt>
<rscale>  0 0.11735056E+04</rscale>
<asrwt>0</asrwt>
<pdfrwt beam="1">  1        1 0.42827128E+00 0.12216401E+04</pdfrwt>
<pdfrwt beam="2">  1       -1 0.14518989E+00 0.12216401E+04</pdfrwt>
<totfact> 0.32165292E-01</totfact>
</mgrwt>
</event>
<event>
 4    1  0.2514307E-008  0.1091584E+04  0.7818608E-02  0.9270484E-01
         -1   -1    0    0    0  501 -0.00000000000E+00  0.00000000000E+00  0.18147715868E+04  0.18147715868E+04  0.50400000000E-02 0.  1.
          1   -1    0    0  501    0  0.00000000000E+00 -0.00000000000E+00 -0.92643239105E+03  0.92643239107E+03  0.50400000000E-02 0. -1.
    8880023    1    1    2    0    0  0.61106515765E+03 -0.61995626822E+03  0.13564074807E+04  0.17410909974E+04  0.65864270000E+03 0.  1.
    8880022    1    1    2    0    0 -0.61106515765E+03  0.61995626822E+03 -0.46806828490E+03  0.10001129805E+04  0.15294330000E+03 0.  0.
<mgrwt>
<rscale>  0 0.10354616E+04</rscale>
<asrwt>0</asrwt>
<pdfrwt beam="1">  1        1 0.14252806E+00 0.10915844E+04</pdfrwt>
<pdfrwt beam="2">  1       -1 0.27919563E+00 0.10915844E+04</pdfrwt>
<totfact> 0.77856789E-01</totfact>
</mgrwt>
</event>
<event>
 4    1  0.2514307E-008  0.6705260E+03  0.7818608E-02  0.1015289E+00
          1   -1    0    0  501    0  0.00000000000E+00  0.00000000000E+00  0.20915000401E+04  0.20915000401E+04  0.50400000000E-02 0. -1.
         -1   -1    0    0    0  501 -0.00000000000E+00 -0.00000000000E+00 -0.23331895842E+03  0.23331895847E+03  0.50400000000E-02 0.  1.
    8880023    1    1    2    0    0 -0.76965777345E+02  0.99353565871E+02  0.26757610788E+03  0.72194323995E+03  0.65864270000E+03 0.  1.
    8880022    1    1    2    0    0  0.76965777345E+02 -0.99353565871E+02  0.15906049738E+04  0.16028757586E+04  0.15294330000E+03 0.  0.
<mgrwt>
<rscale>  0 0.49425808E+03</rscale>
<asrwt>0</asrwt>
<pdfrwt beam="1">  1        1 0.32176925E+00 0.67052596E+03</pdfrwt>
<pdfrwt beam="2">  1       -1 0.35895223E-01 0.67052596E+03</pdfrwt>
<totfact> 0.20194995E+01</totfact>
</mgrwt>
</event>
<event>
 4    1  0.2514307E-008  0.1576916E+04  0.7818608E-02  0.8857149E-01
         -1   -1    0    0    0  501 -0.00000000000E+00  0.00000000000E+00  0.14396469407E+04  0.14396469407E+04  0.50400000000E-02 0.  1.
          1   -1    0    0  501    0  0.00000000000E+00 -0.00000000000E+00 -0.19265508118E+04  0.19265508118E+04  0.50400000000E-02 0. -1.
    8880023    1    1    2    0    0 -0.10742748298E+04  0.94804468732E+03  0.45922260085E+03  0.16424222181E+04  0.65864270000E+03 0.  0.
    8880022    1    1    2    0    0  0.10742748298E+04 -0.94804468732E+03 -0.94612647196E+03  0.17237755344E+04  0.15294330000E+03 0.  0.
<mgrwt>
<rscale>  0 0.15417586E+04</rscale>
<asrwt>0</asrwt>
<pdfrwt beam="1">  1        1 0.29639244E+00 0.15769164E+04</pdfrwt>
<pdfrwt beam="2">  1       -1 0.22148414E+00 0.15769164E+04</pdfrwt>
<totfact> 0.33668781E-01</totfact>
</mgrwt>
</event>
<event>
 4    1  0.2514307E-008  0.7908561E+03  0.7818608E-02  0.9730927E-01
         -1   -1    0    0    0  501 -0.00000000000E+00  0.00000000000E+00  0.13864791232E+04  0.13864791232E+04  0.50400000000E-02 0.  1.
          1   -1    0    0  501    0  0.00000000000E+00 -0.00000000000E+00 -0.79893659083E+03  0.79893659085E+03  0.50400000000E-02 0. -1.
    8880023    1    1    2    0    0 -0.17039429317E+03  0.40324794539E+03  0.11877408160E+04  0.14269483428E+04  0.65864270000E+03 0.  1.
    8880022    1    1    2    0    0  0.17039429317E+03 -0.40324794539E+03 -0.60019828365E+03  0.75846737130E+03  0.15294330000E+03 0.  0.
<mgrwt>
<rscale>  0 0.69204873E+03</rscale>
<asrwt>0</asrwt>
<pdfrwt beam="1">  1        1 0.12291332E+00 0.79085607E+03</pdfrwt>
<pdfrwt beam="2">  1       -1 0.21330448E+00 0.79085607E+03</pdfrwt>
<totfact> 0.27981299E+00</totfact>
</mgrwt>
</event>
<event>
 4    1  0.2514307E-008  0.7371065E+03  0.7818608E-02  0.9868457E-01
         -1   -1    0    0    0  501 -0.00000000000E+00  0.00000000000E+00  0.14000308660E+04  0.14000308660E+04  0.50400000000E-02 0.  1.
          1   -1    0    0  501    0  0.00000000000E+00 -0.00000000000E+00 -0.90285889625E+03  0.90285889627E+03  0.50400000000E-02 0. -1.
    8880023    1    1    2    0    0 -0.32925937268E+03 -0.33226190767E+02  0.12586708803E+04  0.14586220571E+04  0.65864270000E+03 0.  0.
    8880022    1    1    2    0    0  0.32925937268E+03  0.33226190767E+02 -0.76149891055E+03  0.84426770519E+03  0.15294330000E+03 0.  0.
<mgrwt>
<rscale>  0 0.61814632E+03</rscale>
<asrwt>0</asrwt>
<pdfrwt beam="1">  1        1 0.13890137E+00 0.73710645E+03</pdfrwt>
<pdfrwt beam="2">  1       -1 0.21538936E+00 0.73710645E+03</pdfrwt>
<totfact> 0.22368607E+00</totfact>
</mgrwt>
</event>
<event>
 4    1  0.2514307E-008  0.1158023E+04  0.7818608E-02  0.9199048E-01
          1   -1    0    0  501    0  0.00000000000E+00  0.00000000000E+00  0.27517656794E+04  0.27517656794E+04  0.50400000000E-02 0. -1.
         -1   -1    0    0    0  501 -0.00000000000E+00 -0.00000000000E+00 -0.87671946999E+03  0.87671947000E+03  0.50400000000E-02 0.  1.
    8880023    1    1    2    0    0  0.91836504534E+03  0.25261041163E+03 -0.34465426331E+03  0.12082231350E+04  0.65864270000E+03 0.  0.
    8880022    1    1    2    0    0 -0.91836504534E+03 -0.25261041163E+03  0.22197004727E+04  0.24202620144E+04  0.15294330000E+03 0.  0.
<mgrwt>
<rscale>  0 0.11063259E+04</rscale>
<asrwt>0</asrwt>
<pdfrwt beam="1">  1        1 0.42334856E+00 0.11580227E+04</pdfrwt>
<pdfrwt beam="2">  1       -1 0.13487992E+00 0.11580227E+04</pdfrwt>
<totfact> 0.41502783E-01</totfact>
</mgrwt>
</event>
<event>
 4    1  0.2514307E-008  0.7474525E+03  0.7818608E-02  0.9838747E-01
         -1   -1    0    0    0  501 -0.00000000000E+00  0.00000000000E+00  0.20998154592E+04  0.20998154592E+04  0.50400000000E-02 0.  1.
          1   -1    0    0  501    0  0.00000000000E+00 -0.00000000000E+00 -0.38335833323E+03  0.38335833327E+03  0.50400000000E-02 0. -1.
    8880023    1    1    2    0    0 -0.26960296358E+03 -0.22844965100E+03  0.19108471782E+04  0.20518338495E+04  0.65864270000E+03 0.  1.
    8880022    1    1    2    0    0  0.26960296358E+03  0.22844965100E+03 -0.19439005225E+03  0.43133994302E+03  0.15294330000E+03 0.  0.
<mgrwt>
<rscale>  0 0.63323969E+03</rscale>
<asrwt>0</asrwt>
<pdfrwt beam="1">  1        1 0.58978205E-01 0.74745248E+03</pdfrwt>
<pdfrwt beam="2">  1       -1 0.32304853E+00 0.74745248E+03</pdfrwt>
<totfact> 0.15680788E+00</totfact>
</mgrwt>
</event>
<event>
 4    1  0.2514307E-008  0.1074957E+04  0.7818608E-02  0.9289464E-01
          1   -1    0    0  501    0  0.00000000000E+00  0.00000000000E+00  0.21209882893E+04  0.21209882893E+04  0.50400000000E-02 0. -1.
         -1   -1    0    0    0  501 -0.00000000000E+00 -0.00000000000E+00 -0.51950458181E+03  0.51950458184E+03  0.50400000000E-02 0.  1.
    8880023    1    1    2    0    0  0.78458205695E+03 -0.32581256022E+03  0.37049317978E+03  0.11370128544E+04  0.65864270000E+03 0. -1.
    8880022    1    1    2    0    0 -0.78458205695E+03  0.32581256022E+03  0.12309905277E+04  0.15034800167E+04  0.15294330000E+03 0.  0.
<mgrwt>
<rscale>  0 0.10175863E+04</rscale>
<asrwt>0</asrwt>
<pdfrwt beam="1">  1        1 0.32630589E+00 0.10749572E+04</pdfrwt>
<pdfrwt beam="2">  1       -1 0.79923782E-01 0.10749572E+04</pdfrwt>
<totfact> 0.38671995E+00</totfact>
</mgrwt>
</event>
<event>
 4    1  0.2514307E-008  0.8656547E+03  0.7818608E-02  0.9583583E-01
         -1   -1    0    0    0  501 -0.00000000000E+00  0.00000000000E+00  0.11454829839E+04  0.11454829839E+04  0.50400000000E-02 0.  1.
          1   -1    0    0  501    0  0.00000000000E+00 -0.00000000000E+00 -0.69676497902E+03  0.69676497904E+03  0.50400000000E-02 0. -1.
    8880023    1    1    2    0    0 -0.55013023129E+03  0.11359849353E+03  0.78614096977E+03  0.11693484167E+04  0.65864270000E+03 0.  0.
    8880022    1    1    2    0    0  0.55013023129E+03 -0.11359849353E+03 -0.33742296486E+03  0.67289954625E+03  0.15294330000E+03 0.  0.
<mgrwt>
<rscale>  0 0.78392372E+03</rscale>
<asrwt>0</asrwt>
<pdfrwt beam="1">  1        1 0.10719461E+00 0.86565472E+03</pdfrwt>
<pdfrwt beam="2">  1       -1 0.17622815E+00 0.86565472E+03</pdfrwt>
<totfact> 0.61912884E+00</totfact>
</mgrwt>
</event>
<event>
 4    1  0.2514307E-008  0.7145756E+03  0.7818608E-02  0.9941387E-01
          1   -1    0    0  501    0  0.00000000000E+00  0.00000000000E+00  0.15883295046E+04  0.15883295046E+04  0.50400000000E-02 0. -1.
         -1   -1    0    0    0  501 -0.00000000000E+00 -0.00000000000E+00 -0.66903450881E+03  0.66903450883E+03  0.50400000000E-02 0.  1.
    8880023    1    1    2    0    0 -0.15838627490E+03  0.22742447769E+03 -0.45496482829E+03  0.84711941684E+03  0.65864270000E+03 0.  1.
    8880022    1    1    2    0    0  0.15838627490E+03 -0.22742447769E+03  0.13742598241E+04  0.14102445966E+04  0.15294330000E+03 0.  0.
<mgrwt>
<rscale>  0 0.58296768E+03</rscale>
<asrwt>0</asrwt>
<pdfrwt beam="1">  1        1 0.24435839E+00 0.71457562E+03</pdfrwt>
<pdfrwt beam="2">  1       -1 0.10292839E+00 0.71457562E+03</pdfrwt>
<totfact> 0.53183457E+00</totfact>
</mgrwt>
</event>
<event>
 4    1  0.2514307E-008  0.8781658E+03  0.7818608E-02  0.9562033E-01
          1   -1    0    0  501    0  0.00000000000E+00  0.00000000000E+00  0.52673777225E+04  0.52673777225E+04  0.50400000000E-02 0. -1.
         -1   -1    0    0    0  501 -0.00000000000E+00 -0.00000000000E+00 -0.61345620013E+03  0.61345620015E+03  0.50400000000E-02 0.  1.
    8880023    1    1    2    0    0 -0.11464150946E+02 -0.58071816211E+03 -0.27130436184E+03  0.91911983636E+03  0.65864270000E+03 0.  1.
    8880022    1    1    2    0    0  0.11464150946E+02  0.58071816211E+03  0.49252258842E+04  0.49617140863E+04  0.15294330000E+03 0.  0.
<mgrwt>
<rscale>  0 0.79860899E+03</rscale>
<asrwt>0</asrwt>
<pdfrwt beam="1">  1        1 0.81036576E+00 0.87816583E+03</pdfrwt>
<pdfrwt beam="2">  1       -1 0.94377882E-01 0.87816583E+03</pdfrwt>
<totfact> 0.46224902E-03</totfact>
</mgrwt>
</event>
<event>
 4    1  0.2514307E-008  0.7120064E+03  0.7818608E-02  0.9950624E-01
          1   -1    0    0  501    0  0.00000000000E+00  0.00000000000E+00  0.21195651740E+04  0.21195651740E+04  0.50400000000E-02 0. -1.
         -1   -1    0    0    0  501 -0.00000000000E+00 -0.00000000000E+00 -0.12753020820E+03  0.12753020830E+03  0.50400000000E-02 0.  1.
    8880023    1    1    2    0    0  0.26925272749E+03 -0.25414537231E+02  0.11867916775E+04  0.13839897478E+04  0.65864270000E+03 0.  1.
    8880022    1    1    2    0    0 -0.26925272749E+03  0.25414537231E+02  0.80524328829E+03  0.86310563451E+03  0.15294330000E+03 0. -1.
<mgrwt>
<rscale>  0 0.57869309E+03</rscale>
<asrwt>0</asrwt>
<pdfrwt beam="1">  1        1 0.32608696E+00 0.71200642E+03</pdfrwt>
<pdfrwt beam="2">  1       -1 0.19620031E-01 0.71200642E+03</pdfrwt>
<totfact> 0.54260302E+01</totfact>
</mgrwt>
</event>
<event>
 4    1  0.2514307E-008  0.9207699E+03  0.7818608E-02  0.9493479E-01
         -1   -1    0    0    0  501 -0.00000000000E+00  0.00000000000E+00  0.23578069311E+04  0.23578069311E+04  0.50400000000E-02 0.  1.
          1   -1    0    0  501    0  0.00000000000E+00 -0.00000000000E+00 -0.58145832394E+03  0.58145832396E+03  0.50400000000E-02 0. -1.
    8880023    1    1    2    0    0 -0.58705084297E+03  0.26339774323E+03  0.20314717792E+04  0.22304023985E+04  0.65864270000E+03 0.  1.
    8880022    1    1    2    0    0  0.58705084297E+03 -0.26339774323E+03 -0.25512317209E+03  0.70886285650E+03  0.15294330000E+03 0.  0.
<mgrwt>
<rscale>  0 0.84766263E+03</rscale>
<asrwt>0</asrwt>
<pdfrwt beam="1">  1        1 0.89455126E-01 0.92076993E+03</pdfrwt>
<pdfrwt beam="2">  1       -1 0.36273953E+00 0.92076993E+03</pdfrwt>
<totfact> 0.47412510E-01</totfact>
</mgrwt>
</event>
<event>
 4    1  0.2514307E-008  0.1358689E+04  0.7818608E-02  0.9016466E-01
         -1   -1    0    0    0  501 -0.00000000000E+00  0.00000000000E+00  0.62008264927E+03  0.62008264930E+03  0.50400000000E-02 0.  1.
          1   -1    0    0  501    0  0.00000000000E+00 -0.00000000000E+00 -0.28803037511E+04  0.28803037511E+04  0.50400000000E-02 0. -1.
    8880023    1    1    2    0    0  0.10859354877E+04 -0.48266978512E+03 -0.68597775704E+03  0.15220386639E+04  0.65864270000E+03 0.  0.
    8880022    1    1    2    0    0 -0.10859354877E+04  0.48266978512E+03 -0.15742433448E+04  0.19783477365E+04  0.15294330000E+03 0.  0.
<mgrwt>
<rscale>  0 0.13166487E+04</rscale>
<asrwt>0</asrwt>
<pdfrwt beam="1">  1        1 0.44312365E+00 0.13586892E+04</pdfrwt>
<pdfrwt beam="2">  1       -1 0.95397332E-01 0.13586892E+04</pdfrwt>
<totfact> 0.75480115E-01</totfact>
</mgrwt>
</event>
<event>
 4    1  0.2514307E-008  0.7083458E+03  0.7818608E-02  0.9964196E-01
          1   -1    0    0  501    0  0.00000000000E+00  0.00000000000E+00  0.86453736900E+03  0.86453736902E+03  0.50400000000E-02 0. -1.
         -1   -1    0    0    0  501 -0.00000000000E+00 -0.00000000000E+00 -0.79754446377E+03  0.79754446379E+03  0.50400000000E-02 0.  1.
    8880023    1    1    2    0    0  0.15420692460E+03  0.21015166643E+03 -0.60096822193E+03  0.92893299464E+03  0.65864270000E+03 0.  0.
    8880022    1    1    2    0    0 -0.15420692460E+03 -0.21015166643E+03  0.66796112716E+03  0.73314883817E+03  0.15294330000E+03 0.  0.
<mgrwt>
<rscale>  0 0.57248448E+03</rscale>
<asrwt>0</asrwt>
<pdfrwt beam="1">  1        1 0.13300575E+00 0.70834575E+03</pdfrwt>
<pdfrwt beam="2">  1       -1 0.12269915E+00 0.70834575E+03</pdfrwt>
<totfact> 0.11827268E+01</totfact>
</mgrwt>
</event>
<event>
 4    1  0.2514307E-008  0.7424797E+03  0.7818608E-02  0.9852782E-01
         -1   -1    0    0    0  501 -0.00000000000E+00  0.00000000000E+00  0.18775268723E+03  0.18775268730E+03  0.50400000000E-02 0.  1.
          1   -1    0    0  501    0  0.00000000000E+00 -0.00000000000E+00 -0.20803993952E+04  0.20803993952E+04  0.50400000000E-02 0. -1.
    8880023    1    1    2    0    0 -0.31648639043E+03  0.13153799880E+03 -0.70974490941E+03  0.10271387069E+04  0.65864270000E+03 0.  1.
    8880022    1    1    2    0    0  0.31648639043E+03 -0.13153799880E+03 -0.11829017985E+04  0.12410133756E+04  0.15294330000E+03 0.  0.
<mgrwt>
<rscale>  0 0.62605277E+03</rscale>
<asrwt>0</asrwt>
<pdfrwt beam="1">  1        1 0.32006143E+00 0.74247969E+03</pdfrwt>
<pdfrwt beam="2">  1       -1 0.28885030E-01 0.74247969E+03</pdfrwt>
<totfact> 0.29789515E+01</totfact>
</mgrwt>
</event>
<event>
 4    1  0.2514307E-008  0.1255396E+04  0.7818608E-02  0.9105068E-01
          1   -1    0    0  501    0  0.00000000000E+00  0.00000000000E+00  0.29907099247E+04  0.29907099247E+04  0.50400000000E-02 0. -1.
         -1   -1    0    0    0  501 -0.00000000000E+00 -0.00000000000E+00 -0.67079343204E+03  0.67079343206E+03  0.50400000000E-02 0.  1.
    8880023    1    1    2    0    0 -0.27131710602E+03  0.10337293864E+04  0.18476986839E+03  0.12689206149E+04  0.65864270000E+03 0.  0.
    8880022    1    1    2    0    0  0.27131710602E+03 -0.10337293864E+04  0.21351466242E+04  0.23925827418E+04  0.15294330000E+03 0.  0.
<mgrwt>
<rscale>  0 0.12089389E+04</rscale>
<asrwt>0</asrwt>
<pdfrwt beam="1">  1        1 0.46010921E+00 0.12553962E+04</pdfrwt>
<pdfrwt beam="2">  1       -1 0.10319899E+00 0.12553962E+04</pdfrwt>
<totfact> 0.53165227E-01</totfact>
</mgrwt>
</event>
<event>
 4    1  0.2514307E-008  0.6965164E+03  0.7818608E-02  0.1001197E+00
          1   -1    0    0  501    0  0.00000000000E+00  0.00000000000E+00  0.10826530823E+04  0.10826530824E+04  0.50400000000E-02 0. -1.
         -1   -1    0    0    0  501 -0.00000000000E+00 -0.00000000000E+00 -0.31991820149E+03  0.31991820153E+03  0.50400000000E-02 0.  1.
    8880023    1    1    2    0    0 -0.91781846154E+02 -0.20712551328E+03  0.12354607069E+03  0.70738866501E+03  0.65864270000E+03 0.  1.
    8880022    1    1    2    0    0  0.91781846154E+02  0.20712551328E+03  0.63918881016E+03  0.69518261887E+03  0.15294330000E+03 0.  0.
<mgrwt>
<rscale>  0 0.55128427E+03</rscale>
<asrwt>0</asrwt>
<pdfrwt beam="1">  1        1 0.16656201E+00 0.69651640E+03</pdfrwt>
<pdfrwt beam="2">  1       -1 0.49218185E-01 0.69651640E+03</pdfrwt>
<totfact> 0.55644802E+01</totfact>
</mgrwt>
</event>
<event>
 4    1  0.2514307E-008  0.7500473E+03  0.7818608E-02  0.9831591E-01
          1   -1    0    0  501    0  0.00000000000E+00  0.00000000000E+00  0.25822384562E+04  0.25822384562E+04  0.50400000000E-02 0. -1.
         -1   -1    0    0    0  501 -0.00000000000E+00 -0.00000000000E+00 -0.17495525877E+03  0.17495525885E+03  0.50400000000E-02 0.  1.
    8880023    1    1    2    0    0 -0.64526329911E+02 -0.35298306152E+03  0.77329135482E+03  0.10772884547E+04  0.65864270000E+03 0.  1.
    8880022    1    1    2    0    0  0.64526329911E+02  0.35298306152E+03  0.16339918426E+04  0.16799052603E+04  0.15294330000E+03 0. -1.
<mgrwt>
<rscale>  0 0.63694408E+03</rscale>
<asrwt>0</asrwt>
<pdfrwt beam="1">  1        1 0.39726748E+00 0.75004726E+03</pdfrwt>
<pdfrwt beam="2">  1       -1 0.26916192E-01 0.75004726E+03</pdfrwt>
<totfact> 0.15389189E+01</totfact>
</mgrwt>
</event>
<event>
 4    1  0.2514307E-008  0.8000612E+03  0.7818608E-02  0.9710664E-01
         -1   -1    0    0    0  501 -0.00000000000E+00  0.00000000000E+00  0.11681259707E+04  0.11681259707E+04  0.50400000000E-02 0.  1.
          1   -1    0    0  501    0  0.00000000000E+00 -0.00000000000E+00 -0.37052067727E+03  0.37052067731E+03  0.50400000000E-02 0. -1.
    8880023    1    1    2    0    0 -0.45384592077E+03  0.17653251413E+02  0.66777475986E+03  0.10421233580E+04  0.65864270000E+03 0. -1.
    8880022    1    1    2    0    0  0.45384592077E+03 -0.17653251413E+02  0.12983053355E+03  0.49652329003E+03  0.15294330000E+03 0.  0.
<mgrwt>
<rscale>  0 0.70385415E+03</rscale>
<asrwt>0</asrwt>
<pdfrwt beam="1">  1        1 0.57003181E-01 0.80006122E+03</pdfrwt>
<pdfrwt beam="2">  1       -1 0.17971169E+00 0.80006122E+03</pdfrwt>
<totfact> 0.14205914E+01</totfact>
</mgrwt>
</event>
<event>
 4    1  0.2514307E-008  0.7204720E+03  0.7818608E-02  0.9920992E-01
          1   -1    0    0  501    0  0.00000000000E+00  0.00000000000E+00  0.48418924444E+03  0.48418924446E+03  0.50400000000E-02 0. -1.
         -1   -1    0    0    0  501 -0.00000000000E+00 -0.00000000000E+00 -0.82066776139E+03  0.82066776141E+03  0.50400000000E-02 0.  1.
    8880023    1    1    2    0    0 -0.27247868061E+03 -0.10500058144E+03 -0.55492517777E+03  0.90940745141E+03  0.65864270000E+03 0.  1.
    8880022    1    1    2    0    0  0.27247868061E+03  0.10500058144E+03  0.21844666082E+03  0.39544955446E+03  0.15294330000E+03 0.  0.
<mgrwt>
<rscale>  0 0.59254626E+03</rscale>
<asrwt>0</asrwt>
<pdfrwt beam="1">  1        1 0.74490653E-01 0.72047204E+03</pdfrwt>
<pdfrwt beam="2">  1       -1 0.12625658E+00 0.72047204E+03</pdfrwt>
<totfact> 0.25987427E+01</totfact>
</mgrwt>
</event>
<event>
 4    1  0.2514307E-008  0.7778745E+03  0.7818608E-02  0.9760854E-01
          1   -1    0    0  501    0  0.00000000000E+00  0.00000000000E+00  0.23638801880E+04  0.23638801881E+04  0.50400000000E-02 0. -1.
         -1   -1    0    0    0  501 -0.00000000000E+00 -0.00000000000E+00 -0.53926676210E+03  0.53926676213E+03  0.50400000000E-02 0.  1.
    8880023    1    1    2    0    0 -0.54245040762E+01 -0.41382254763E+03 -0.22246432596E+03  0.80906063355E+03  0.65864270000E+03 0.  0.
    8880022    1    1    2    0    0  0.54245040762E+01  0.41382254763E+03  0.20470777519E+04  0.20940863166E+04  0.15294330000E+03 0.  0.
<mgrwt>
<rscale>  0 0.67506342E+03</rscale>
<asrwt>0</asrwt>
<pdfrwt beam="1">  1        1 0.36367387E+00 0.77787450E+03</pdfrwt>
<pdfrwt beam="2">  1       -1 0.82964118E-01 0.77787450E+03</pdfrwt>
<totfact> 0.25594055E+00</totfact>
</mgrwt>
</event>
<event>
 4    1  0.2514307E-008  0.8384562E+03  0.7818608E-02  0.9633098E-01
         -1   -1    0    0    0  501 -0.00000000000E+00  0.00000000000E+00  0.28264227835E+03  0.28264227840E+03  0.50400000000E-02 0.  1.
          1   -1    0    0  501    0  0.00000000000E+00 -0.00000000000E+00 -0.21371001257E+04  0.21371001257E+04  0.50400000000E-02 0. -1.
    8880023    1    1    2    0    0 -0.22230242204E+03  0.46880728942E+03 -0.16321651380E+04  0.18349310301E+04  0.65864270000E+03 0.  0.
    8880022    1    1    2    0    0  0.22230242204E+03 -0.46880728942E+03 -0.22229270934E+03  0.58481137394E+03  0.15294330000E+03 0.  0.
<mgrwt>
<rscale>  0 0.75143736E+03</rscale>
<asrwt>0</asrwt>
<pdfrwt beam="1">  1        1 0.32878462E+00 0.83845623E+03</pdfrwt>
<pdfrwt beam="2">  1       -1 0.43483429E-01 0.83845623E+03</pdfrwt>
<totfact> 0.12964866E+01</totfact>
</mgrwt>
</event>
<event>
 4    1  0.2514307E-008  0.7741342E+03  0.7818608E-02  0.9769801E-01
          1   -1    0    0  501    0  0.00000000000E+00  0.00000000000E+00  0.22864784630E+04  0.22864784631E+04  0.50400000000E-02 0. -1.
         -1   -1    0    0    0  501 -0.00000000000E+00 -0.00000000000E+00 -0.27604104765E+03  0.27604104769E+03  0.50400000000E-02 0.  1.
    8880023    1    1    2    0    0 -0.39416130931E+03  0.10055088201E+03  0.35620433061E+03  0.85215336005E+03  0.65864270000E+03 0.  0.
    8880022    1    1    2    0    0  0.39416130931E+03 -0.10055088201E+03  0.16542330848E+04  0.17103661507E+04  0.15294330000E+03 0.  0.
<mgrwt>
<rscale>  0 0.67008704E+03</rscale>
<asrwt>0</asrwt>
<pdfrwt beam="1">  1        1 0.35176593E+00 0.77413424E+03</pdfrwt>
<pdfrwt beam="2">  1       -1 0.42467852E-01 0.77413424E+03</pdfrwt>
<totfact> 0.10844729E+01</totfact>
</mgrwt>
</event>
<event>
 4    1  0.2514307E-008  0.8912600E+03  0.7818608E-02  0.9540210E-01
          1   -1    0    0  501    0  0.00000000000E+00  0.00000000000E+00  0.13453055923E+04  0.13453055924E+04  0.50400000000E-02 0. -1.
         -1   -1    0    0    0  501 -0.00000000000E+00 -0.00000000000E+00 -0.65637335468E+03  0.65637335469E+03  0.50400000000E-02 0.  1.
    8880023    1    1    2    0    0  0.68154519595E+02 -0.59656441882E+03 -0.20449307902E+03  0.91441881541E+03  0.65864270000E+03 0.  0.
    8880022    1    1    2    0    0 -0.68154519595E+02  0.59656441882E+03  0.89342531669E+03  0.10872601316E+04  0.15294330000E+03 0.  0.
<mgrwt>
<rscale>  0 0.81383098E+03</rscale>
<asrwt>0</asrwt>
<pdfrwt beam="1">  1        1 0.20697009E+00 0.89125998E+03</pdfrwt>
<pdfrwt beam="2">  1       -1 0.10098052E+00 0.89125998E+03</pdfrwt>
<totfact> 0.79626152E+00</totfact>
</mgrwt>
</event>
<event>
 4    1  0.2514307E-008  0.1014697E+04  0.7818608E-02  0.9362577E-01
         -1   -1    0    0    0  501 -0.00000000000E+00  0.00000000000E+00  0.60071054781E+03  0.60071054783E+03  0.50400000000E-02 0.  1.
          1   -1    0    0  501    0  0.00000000000E+00 -0.00000000000E+00 -0.27744574862E+04  0.27744574862E+04  0.50400000000E-02 0. -1.
    8880023    1    1    2    0    0 -0.32659370657E+03 -0.69938251075E+03  0.50378647835E+02  0.10159466324E+04  0.65864270000E+03 0.  0.
    8880022    1    1    2    0    0  0.32659370657E+03  0.69938251075E+03 -0.22241255862E+04  0.23592214016E+04  0.15294330000E+03 0.  0.
<mgrwt>
<rscale>  0 0.95220463E+03</rscale>
<asrwt>0</asrwt>
<pdfrwt beam="1">  1        1 0.42683961E+00 0.10146968E+04</pdfrwt>
<pdfrwt beam="2">  1       -1 0.92417009E-01 0.10146968E+04</pdfrwt>
<totfact> 0.10107374E+00</totfact>
</mgrwt>
</event>
<event>
 4    1  0.2514307E-008  0.1062392E+04  0.7818608E-02  0.9304131E-01
          1   -1    0    0  501    0  0.00000000000E+00  0.00000000000E+00  0.21827955157E+04  0.21827955157E+04  0.50400000000E-02 0. -1.
         -1   -1    0    0    0  501 -0.00000000000E+00 -0.00000000000E+00 -0.59967763155E+03  0.59967763158E+03  0.50400000000E-02 0.  1.
    8880023    1    1    2    0    0  0.73370842988E+02  0.83035093405E+03  0.90762661324E+02  0.10662617039E+04  0.65864270000E+03 0.  1.
    8880022    1    1    2    0    0 -0.73370842988E+02 -0.83035093405E+03  0.14923552228E+04  0.17162114434E+04  0.15294330000E+03 0.  0.
<mgrwt>
<rscale>  0 0.10040343E+04</rscale>
<asrwt>0</asrwt>
<pdfrwt beam="1">  1        1 0.33581469E+00 0.10623917E+04</pdfrwt>
<pdfrwt beam="2">  1       -1 0.92258098E-01 0.10623917E+04</pdfrwt>
<totfact> 0.25719815E+00</totfact>
</mgrwt>
</event>
<event>
 4    1  0.2514307E-008  0.7106405E+03  0.7818608E-02  0.9955630E-01
          1   -1    0    0  501    0  0.00000000000E+00  0.00000000000E+00  0.52710608314E+03  0.52710608316E+03  0.50400000000E-02 0. -1.
         -1   -1    0    0    0  501 -0.00000000000E+00 -0.00000000000E+00 -0.87932944649E+03  0.87932944650E+03  0.50400000000E-02 0.  1.
    8880023    1    1    2    0    0  0.80019227999E+01  0.26671269949E+03 -0.66106454248E+03  0.97057520596E+03  0.65864270000E+03 0.  0.
    8880022    1    1    2    0    0 -0.80019227999E+01 -0.26671269949E+03  0.30884117913E+03  0.43586032371E+03  0.15294330000E+03 0.  0.
<mgrwt>
<rscale>  0 0.57639325E+03</rscale>
<asrwt>0</asrwt>
<pdfrwt beam="1">  1        1 0.81093244E-01 0.71064049E+03</pdfrwt>
<pdfrwt beam="2">  1       -1 0.13528145E+00 0.71064049E+03</pdfrwt>
<totfact> 0.19450318E+01</totfact>
</mgrwt>
</event>
<event>
 4    1  0.2514307E-008  0.8826373E+03  0.7818608E-02  0.9554500E-01
         -1   -1    0    0    0  501 -0.00000000000E+00  0.00000000000E+00  0.62923607251E+03  0.62923607253E+03  0.50400000000E-02 0.  1.
          1   -1    0    0  501    0  0.00000000000E+00 -0.00000000000E+00 -0.17729373801E+04  0.17729373801E+04  0.50400000000E-02 0. -1.
    8880023    1    1    2    0    0 -0.42893536322E+03  0.40156296230E+03  0.21980830692E+03  0.90959565553E+03  0.65864270000E+03 0.  1.
    8880022    1    1    2    0    0  0.42893536322E+03 -0.40156296230E+03 -0.13635096145E+04  0.14925777971E+04  0.15294330000E+03 0.  0.
<mgrwt>
<rscale>  0 0.80382320E+03</rscale>
<asrwt>0</asrwt>
<pdfrwt beam="1">  1        1 0.27275959E+00 0.88263728E+03</pdfrwt>
<pdfrwt beam="2">  1       -1 0.96805550E-01 0.88263728E+03</pdfrwt>
<totfact> 0.44694648E+00</totfact>
</mgrwt>
</event>
<event>
 4    1  0.2514307E-008  0.9390229E+03  0.7818608E-02  0.9466087E-01
          1   -1    0    0  501    0  0.00000000000E+00  0.00000000000E+00  0.18295272371E+04  0.18295272371E+04  0.50400000000E-02 0. -1.
         -1   -1    0    0    0  501 -0.00000000000E+00 -0.00000000000E+00 -0.52809732304E+03  0.52809732307E+03  0.50400000000E-02 0.  1.
    8880023    1    1    2    0    0  0.47580461640E+03  0.47070568080E+03  0.62392011327E+02  0.94109342802E+03  0.65864270000E+03 0.  0.
    8880022    1    1    2    0    0 -0.47580461640E+03 -0.47070568080E+03  0.12390379027E+04  0.14165311321E+04  0.15294330000E+03 0.  0.
<mgrwt>
<rscale>  0 0.86830954E+03</rscale>
<asrwt>0</asrwt>
<pdfrwt beam="1">  1        1 0.28146573E+00 0.93902294E+03</pdfrwt>
<pdfrwt beam="2">  1       -1 0.81245741E-01 0.93902294E+03</pdfrwt>
<totfact> 0.59713089E+00</totfact>
</mgrwt>
</event>
<event>
 4    1  0.2514307E-008  0.7854701E+03  0.7818608E-02  0.9743141E-01
          1   -1    0    0  501    0  0.00000000000E+00  0.00000000000E+00  0.71470197181E+03  0.71470197183E+03  0.50400000000E-02 0. -1.
         -1   -1    0    0    0  501 -0.00000000000E+00 -0.00000000000E+00 -0.17309598002E+04  0.17309598002E+04  0.50400000000E-02 0.  1.
    8880023    1    1    2    0    0  0.42722516422E+03 -0.25135124685E+02 -0.15542202210E+04  0.17414258001E+04  0.65864270000E+03 0.  1.
    8880022    1    1    2    0    0 -0.42722516422E+03  0.25135124685E+02  0.53796239259E+03  0.70423597202E+03  0.15294330000E+03 0.  0.
<mgrwt>
<rscale>  0 0.68505277E+03</rscale>
<asrwt>0</asrwt>
<pdfrwt beam="1">  1        1 0.10995415E+00 0.78547013E+03</pdfrwt>
<pdfrwt beam="2">  1       -1 0.26630151E+00 0.78547013E+03</pdfrwt>
<totfact> 0.15033724E+00</totfact>
</mgrwt>
</event>
<event>
 4    1  0.2514307E-008  0.9686168E+03  0.7818608E-02  0.9423820E-01
          1   -1    0    0  501    0  0.00000000000E+00  0.00000000000E+00  0.40081776696E+04  0.40081776696E+04  0.50400000000E-02 0. -1.
         -1   -1    0    0    0  501 -0.00000000000E+00 -0.00000000000E+00 -0.24044561744E+03  0.24044561749E+03  0.50400000000E-02 0.  1.
    8880023    1    1    2    0    0 -0.70983476649E+03 -0.23301263167E+02  0.10206752328E+04  0.14071234778E+04  0.65864270000E+03 0.  0.
    8880022    1    1    2    0    0  0.70983476649E+03  0.23301263167E+02  0.27470568194E+04  0.28414998093E+04  0.15294330000E+03 0.  0.
<mgrwt>
<rscale>  0 0.90141064E+03</rscale>
<asrwt>0</asrwt>
<pdfrwt beam="1">  1        1 0.61664276E+00 0.96861682E+03</pdfrwt>
<pdfrwt beam="2">  1       -1 0.36991631E-01 0.96861682E+03</pdfrwt>
<totfact> 0.70204602E-01</totfact>
</mgrwt>
</event>
<event>
 4    1  0.2514307E-008  0.9701080E+03  0.7818608E-02  0.9421755E-01
         -1   -1    0    0    0  501 -0.00000000000E+00  0.00000000000E+00  0.11234868898E+04  0.11234868898E+04  0.50400000000E-02 0.  1.
          1   -1    0    0  501    0  0.00000000000E+00 -0.00000000000E+00 -0.12956777692E+04  0.12956777692E+04  0.50400000000E-02 0. -1.
    8880023    1    1    2    0    0  0.94311461974E+02  0.70597775073E+03  0.76265239546E+03  0.12339968067E+04  0.65864270000E+03 0.  1.
    8880022    1    1    2    0    0 -0.94311461974E+02 -0.70597775073E+03 -0.93484327493E+03  0.11851678523E+04  0.15294330000E+03 0.  0.
<mgrwt>
<rscale>  0 0.90306758E+03</rscale>
<asrwt>0</asrwt>
<pdfrwt beam="1">  1        1 0.19933504E+00 0.97010795E+03</pdfrwt>
<pdfrwt beam="2">  1       -1 0.17284414E+00 0.97010795E+03</pdfrwt>
<totfact> 0.21550484E+00</totfact>
</mgrwt>
</event>
<event>
 4    1  0.2514307E-008  0.1458923E+04  0.7818608E-02  0.8939200E-01
          1   -1    0    0  501    0  0.00000000000E+00  0.00000000000E+00  0.43098864079E+04  0.43098864079E+04  0.50400000000E-02 0. -1.
         -1   -1    0    0    0  501 -0.00000000000E+00 -0.00000000000E+00 -0.11290830181E+04  0.11290830181E+04  0.50400000000E-02 0.  1.
    8880023    1    1    2    0    0  0.53261149613E+03  0.11878435191E+04 -0.49171231371E+03  0.15395578708E+04  0.65864270000E+03 0.  1.
    8880022    1    1    2    0    0 -0.53261149613E+03 -0.11878435191E+04  0.36725157035E+04  0.38994115553E+04  0.15294330000E+03 0.  0.
<mgrwt>
<rscale>  0 0.14203765E+04</rscale>
<asrwt>0</asrwt>
<pdfrwt beam="1">  1        1 0.66305943E+00 0.14589234E+04</pdfrwt>
<pdfrwt beam="2">  1       -1 0.17370508E+00 0.14589234E+04</pdfrwt>
<totfact> 0.11180861E-02</totfact>
</mgrwt>
</event>
<event>
 4    1  0.2514307E-008  0.9933332E+03  0.7818608E-02  0.9390332E-01
          1   -1    0    0  501    0  0.00000000000E+00  0.00000000000E+00  0.96942268127E+03  0.96942268129E+03  0.50400000000E-02 0. -1.
         -1   -1    0    0    0  501 -0.00000000000E+00 -0.00000000000E+00 -0.14335182696E+04  0.14335182696E+04  0.50400000000E-02 0.  1.
    8880023    1    1    2    0    0  0.72973176680E+03  0.14280088852E+03 -0.10489418617E+04  0.14446417483E+04  0.65864270000E+03 0.  1.
    8880022    1    1    2    0    0 -0.72973176680E+03 -0.14280088852E+03  0.58484627341E+03  0.95829920264E+03  0.15294330000E+03 0.  0.
<mgrwt>
<rscale>  0 0.92875580E+03</rscale>
<asrwt>0</asrwt>
<pdfrwt beam="1">  1        1 0.14914195E+00 0.99333315E+03</pdfrwt>
<pdfrwt beam="2">  1       -1 0.22054127E+00 0.99333315E+03</pdfrwt>
<totfact> 0.17568397E+00</totfact>
</mgrwt>
</event>
<event>
 4    1  0.2514307E-008  0.7005236E+03  0.7818608E-02  0.9995036E-01
         -1   -1    0    0    0  501 -0.00000000000E+00  0.00000000000E+00  0.21689791091E+04  0.21689791091E+04  0.50400000000E-02 0.  1.
          1   -1    0    0  501    0  0.00000000000E+00 -0.00000000000E+00 -0.18527171407E+03  0.18527171414E+03  0.50400000000E-02 0. -1.
    8880023    1    1    2    0    0  0.19432948138E+03 -0.13841657079E+03  0.19461319957E+04  0.20683720761E+04  0.65864270000E+03 0.  1.
    8880022    1    1    2    0    0 -0.19432948138E+03  0.13841657079E+03  0.37575399338E+02  0.28587874711E+03  0.15294330000E+03 0.  0.
<mgrwt>
<rscale>  0 0.55868432E+03</rscale>
<asrwt>0</asrwt>
<pdfrwt beam="1">  1        1 0.28503341E-01 0.70052359E+03</pdfrwt>
<pdfrwt beam="2">  1       -1 0.33368909E+00 0.70052359E+03</pdfrwt>
<totfact> 0.34689817E+00</totfact>
</mgrwt>
</event>
<event>
 4    1  0.2514307E-008  0.1270447E+04  0.7818608E-02  0.9091510E-01
          1   -1    0    0  501    0  0.00000000000E+00  0.00000000000E+00  0.27606043140E+04  0.27606043140E+04  0.50400000000E-02 0. -1.
         -1   -1    0    0    0  501 -0.00000000000E+00 -0.00000000000E+00 -0.11199491579E+04  0.11199491580E+04  0.50400000000E-02 0.  1.
    8880023    1    1    2    0    0  0.45098177798E+03  0.98835300071E+03 -0.58540068669E+03  0.13988317941E+04  0.65864270000E+03 0.  0.
    8880022    1    1    2    0    0 -0.45098177798E+03 -0.98835300071E+03  0.22260558427E+04  0.24817216778E+04  0.15294330000E+03 0.  0.
<mgrwt>
<rscale>  0 0.12246968E+04</rscale>
<asrwt>0</asrwt>
<pdfrwt beam="1">  1        1 0.42470836E+00 0.12704473E+04</pdfrwt>
<pdfrwt beam="2">  1       -1 0.17229987E+00 0.12704473E+04</pdfrwt>
<totfact> 0.20583733E-01</totfact>
</mgrwt>
</event>
<event>
 4    1  0.2514307E-008  0.6641404E+03  0.7818608E-02  0.1020266E+00
          1   -1    0    0  501    0  0.00000000000E+00  0.00000000000E+00  0.20874311271E+04  0.20874311271E+04  0.50400000000E-02 0. -1.
         -1   -1    0    0    0  501 -0.00000000000E+00 -0.00000000000E+00 -0.33316677895E+03  0.33316677899E+03  0.50400000000E-02 0.  1.
    8880023    1    1    2    0    0 -0.60547863754E+02  0.60052065054E+02  0.65904430100E+01  0.66417312090E+03  0.65864270000E+03 0.  1.
    8880022    1    1    2    0    0  0.60547863754E+02 -0.60052065054E+02  0.17476739051E+04  0.17564247852E+04  0.15294330000E+03 0.  0.
<mgrwt>
<rscale>  0 0.47590848E+03</rscale>
<asrwt>0</asrwt>
<pdfrwt beam="1">  1        1 0.32114326E+00 0.66414042E+03</pdfrwt>
<pdfrwt beam="2">  1       -1 0.51256427E-01 0.66414042E+03</pdfrwt>
<totfact> 0.10567727E+01</totfact>
</mgrwt>
</event>
<event>
 4    1  0.3024684E-008  0.1422677E+04  0.7818608E-02  0.8966259E-01
         -1   -1    0    0    0  501 -0.00000000000E+00  0.00000000000E+00  0.18584426802E+04  0.18584426802E+04  0.50400000000E-02 0.  1.
          1   -1    0    0  501    0  0.00000000000E+00 -0.00000000000E+00 -0.21388710538E+04  0.21388710538E+04  0.50400000000E-02 0. -1.
    8880023    1    1    2    0    0 -0.11582770474E+04  0.49859252955E+03  0.13290867389E+04  0.19469160215E+04  0.65864270000E+03 0.  0.
    8880022    1    1    2    0    0  0.11582770474E+04 -0.49859252955E+03 -0.16095151125E+04  0.20503977125E+04  0.15294330000E+03 0.  0.
<mgrwt>
<rscale>  0 0.13829421E+04</rscale>
<asrwt>0</asrwt>
<pdfrwt beam="1">  1        1 0.32905708E+00 0.14226772E+04</pdfrwt>
<pdfrwt beam="2">  1       -1 0.28591426E+00 0.14226772E+04</pdfrwt>
<totfact> 0.93122054E-02</totfact>
</mgrwt>
</event>
<event>
 4    1  0.2514307E-008  0.7969214E+03  0.7818608E-02  0.9717493E-01
          1   -1    0    0  501    0  0.00000000000E+00  0.00000000000E+00  0.12574956614E+04  0.12574956614E+04  0.50400000000E-02 0. -1.
         -1   -1    0    0    0  501 -0.00000000000E+00 -0.00000000000E+00 -0.71405779362E+03  0.71405779364E+03  0.50400000000E-02 0.  1.
    8880023    1    1    2    0    0  0.24313300797E+03  0.37704089101E+03 -0.41780393765E+03  0.89980210582E+03  0.65864270000E+03 0.  1.
    8880022    1    1    2    0    0 -0.24313300797E+03 -0.37704089101E+03  0.96124180541E+03  0.10717513492E+04  0.15294330000E+03 0.  0.
<mgrwt>
<rscale>  0 0.69984776E+03</rscale>
<asrwt>0</asrwt>
<pdfrwt beam="1">  1        1 0.19346087E+00 0.79692139E+03</pdfrwt>
<pdfrwt beam="2">  1       -1 0.10985505E+00 0.79692139E+03</pdfrwt>
<totfact> 0.76495193E+00</totfact>
</mgrwt>
</event>
<event>
 4    1  0.2514307E-008  0.6624894E+03  0.7818608E-02  0.1021739E+00
         -1   -1    0    0    0  501 -0.00000000000E+00  0.00000000000E+00  0.66531674210E+03  0.66531674212E+03  0.50400000000E-02 0.  1.
          1   -1    0    0  501    0  0.00000000000E+00 -0.00000000000E+00 -0.61514968501E+03  0.61514968504E+03  0.50400000000E-02 0. -1.
    8880023    1    1    2    0    0 -0.49528205178E+02  0.51273544120E+02  0.48039217335E+03  0.81833297985E+03  0.65864270000E+03 0.  1.
    8880022    1    1    2    0    0  0.49528205178E+02 -0.51273544120E+02 -0.43022511626E+03  0.46213344730E+03  0.15294330000E+03 0.  0.
<mgrwt>
<rscale>  0 0.47064088E+03</rscale>
<asrwt>0</asrwt>
<pdfrwt beam="1">  1        1 0.94638413E-01 0.66248942E+03</pdfrwt>
<pdfrwt beam="2">  1       -1 0.10235642E+00 0.66248942E+03</pdfrwt>
<totfact> 0.30847413E+01</totfact>
</mgrwt>
</event>
<event>
 4    1  0.2514307E-008  0.7667900E+03  0.7818608E-02  0.9787836E-01
         -1   -1    0    0    0  501 -0.00000000000E+00  0.00000000000E+00  0.70664227555E+03  0.70664227557E+03  0.50400000000E-02 0.  1.
          1   -1    0    0  501    0  0.00000000000E+00 -0.00000000000E+00 -0.10796549183E+04  0.10796549183E+04  0.50400000000E-02 0. -1.
    8880023    1    1    2    0    0  0.30459086177E+03 -0.24775219194E+03  0.43023149718E+03  0.87924176943E+03  0.65864270000E+03 0.  1.
    8880022    1    1    2    0    0 -0.30459086177E+03  0.24775219194E+03 -0.80324413995E+03  0.90705542447E+03  0.15294330000E+03 0.  0.
<mgrwt>
<rscale>  0 0.66019455E+03</rscale>
<asrwt>0</asrwt>
<pdfrwt beam="1">  1        1 0.16610076E+00 0.76679003E+03</pdfrwt>
<pdfrwt beam="2">  1       -1 0.10871420E+00 0.76679003E+03</pdfrwt>
<totfact> 0.10624204E+01</totfact>
</mgrwt>
</event>
<event>
 4    1  0.2514307E-008  0.6882290E+03  0.7818608E-02  0.1005006E+00
         -1   -1    0    0    0  501 -0.00000000000E+00  0.00000000000E+00  0.12001488496E+03  0.12001488506E+03  0.50400000000E-02 0.  1.
          1   -1    0    0  501    0  0.00000000000E+00 -0.00000000000E+00 -0.28411502810E+04  0.28411502810E+04  0.50400000000E-02 0. -1.
    8880023    1    1    2    0    0 -0.27421454036E+02  0.19772972291E+03 -0.95463613032E+03  0.11768556951E+04  0.65864270000E+03 0.  1.
    8880022    1    1    2    0    0  0.27421454036E+02 -0.19772972291E+03 -0.17664992657E+04  0.17843094710E+04  0.15294330000E+03 0.  0.
<mgrwt>
<rscale>  0 0.53508683E+03</rscale>
<asrwt>0</asrwt>
<pdfrwt beam="1">  1        1 0.43709999E+00 0.68822902E+03</pdfrwt>
<pdfrwt beam="2">  1       -1 0.18463831E-01 0.68822902E+03</pdfrwt>
<totfact> 0.19379562E+01</totfact>
</mgrwt>
</event>
<event>
 4    1  0.2514307E-008  0.1293056E+04  0.7818608E-02  0.9071580E-01
          1   -1    0    0  501    0  0.00000000000E+00  0.00000000000E+00  0.41696051059E+04  0.41696051059E+04  0.50400000000E-02 0. -1.
         -1   -1    0    0    0  501 -0.00000000000E+00 -0.00000000000E+00 -0.67788844163E+03  0.67788844165E+03  0.50400000000E-02 0.  1.
    8880023    1    1    2    0    0 -0.24000334274E+03  0.10865456817E+04  0.12585045682E+03  0.12991657580E+04  0.65864270000E+03 0.  0.
    8880022    1    1    2    0    0  0.24000334274E+03 -0.10865456817E+04  0.33658662074E+04  0.35483277895E+04  0.15294330000E+03 0.  0.
<mgrwt>
<rscale>  0 0.12483233E+04</rscale>
<asrwt>0</asrwt>
<pdfrwt beam="1">  1        1 0.64147771E+00 0.12930558E+04</pdfrwt>
<pdfrwt beam="2">  1       -1 0.10429053E+00 0.12930558E+04</pdfrwt>
<totfact> 0.58527199E-02</totfact>
</mgrwt>
</event>
<event>
 4    1  0.2514307E-008  0.1078155E+04  0.7818608E-02  0.9285777E-01
         -1   -1    0    0    0  501 -0.00000000000E+00  0.00000000000E+00  0.13284172079E+04  0.13284172079E+04  0.50400000000E-02 0.  1.
          1   -1    0    0  501    0  0.00000000000E+00 -0.00000000000E+00 -0.22021168480E+04  0.22021168480E+04  0.50400000000E-02 0. -1.
    8880023    1    1    2    0    0  0.85190679174E+03  0.53502246452E+02  0.99708557252E+03  0.14685358414E+04  0.65864270000E+03 0.  0.
    8880022    1    1    2    0    0 -0.85190679174E+03 -0.53502246452E+02 -0.18707852126E+04  0.20619982146E+04  0.15294330000E+03 0.  0.
<mgrwt>
<rscale>  0 0.10210289E+04</rscale>
<asrwt>0</asrwt>
<pdfrwt beam="1">  1        1 0.33878721E+00 0.10781548E+04</pdfrwt>
<pdfrwt beam="2">  1       -1 0.20437188E+00 0.10781548E+04</pdfrwt>
<totfact> 0.30556776E-01</totfact>
</mgrwt>
</event>
<event>
 4    1  0.2514307E-008  0.7477438E+03  0.7818608E-02  0.9837938E-01
         -1   -1    0    0    0  501 -0.00000000000E+00  0.00000000000E+00  0.20188589419E+03  0.20188589425E+03  0.50400000000E-02 0.  1.
          1   -1    0    0  501    0  0.00000000000E+00 -0.00000000000E+00 -0.20397010864E+04  0.20397010864E+04  0.50400000000E-02 0. -1.
    8880023    1    1    2    0    0  0.30741758488E+03 -0.17551366033E+03 -0.64334953893E+03  0.98641748361E+03  0.65864270000E+03 0.  1.
    8880022    1    1    2    0    0 -0.30741758488E+03  0.17551366033E+03 -0.11944656533E+04  0.12551694970E+04  0.15294330000E+03 0.  0.
<mgrwt>
<rscale>  0 0.63365713E+03</rscale>
<asrwt>0</asrwt>
<pdfrwt beam="1">  1        1 0.31380015E+00 0.74774382E+03</pdfrwt>
<pdfrwt beam="2">  1       -1 0.31059370E-01 0.74774382E+03</pdfrwt>
<totfact> 0.27927594E+01</totfact>
</mgrwt>
</event>
<event>
 4    1  0.2514307E-008  0.6692391E+03  0.7818608E-02  0.1016214E+00
          1   -1    0    0  501    0  0.00000000000E+00  0.00000000000E+00  0.39140493659E+04  0.39140493659E+04  0.50400000000E-02 0. -1.
         -1   -1    0    0    0  501 -0.00000000000E+00 -0.00000000000E+00 -0.39506117066E+03  0.39506117069E+03  0.50400000000E-02 0.  1.
    8880023    1    1    2    0    0  0.76619206937E+02  0.90555548668E+02 -0.10719132718E+03  0.67776913263E+03  0.65864270000E+03 0.  1.
    8880022    1    1    2    0    0 -0.76619206937E+02 -0.90555548668E+02  0.36261795224E+04  0.36313414040E+04  0.15294330000E+03 0.  0.
<mgrwt>
<rscale>  0 0.49077851E+03</rscale>
<asrwt>0</asrwt>
<pdfrwt beam="1">  1        1 0.60216144E+00 0.66923913E+03</pdfrwt>
<pdfrwt beam="2">  1       -1 0.60778642E-01 0.66923913E+03</pdfrwt>
<totfact> 0.35544991E-01</totfact>
</mgrwt>
</event>
<event>
 4    1  0.2514307E-008  0.6904705E+03  0.7818608E-02  0.1003930E+00
         -1   -1    0    0    0  501 -0.00000000000E+00  0.00000000000E+00  0.46738009457E+03  0.46738009460E+03  0.50400000000E-02 0.  1.
          1   -1    0    0  501    0  0.00000000000E+00 -0.00000000000E+00 -0.11447554613E+04  0.11447554613E+04  0.50400000000E-02 0. -1.
    8880023    1    1    2    0    0  0.12738995158E+03 -0.16343525979E+03  0.18277727018E+03  0.71425277085E+03  0.65864270000E+03 0.  1.
    8880022    1    1    2    0    0 -0.12738995158E+03  0.16343525979E+03 -0.86015263687E+03  0.89788278502E+03  0.15294330000E+03 0.  0.
<mgrwt>
<rscale>  0 0.53960176E+03</rscale>
<asrwt>0</asrwt>
<pdfrwt beam="1">  1        1 0.17611622E+00 0.69047048E+03</pdfrwt>
<pdfrwt beam="2">  1       -1 0.71904630E-01 0.69047048E+03</pdfrwt>
<totfact> 0.23767545E+01</totfact>
</mgrwt>
</event>
<event>
 4    1  0.2514307E-008  0.9147980E+03  0.7818608E-02  0.9502682E-01
         -1   -1    0    0    0  501 -0.00000000000E+00  0.00000000000E+00  0.13244930288E+04  0.13244930288E+04  0.50400000000E-02 0.  1.
          1   -1    0    0  501    0  0.00000000000E+00 -0.00000000000E+00 -0.10224360214E+04  0.10224360214E+04  0.50400000000E-02 0. -1.
    8880023    1    1    2    0    0 -0.28641643497E+03 -0.56657817124E+03  0.10242364115E+04  0.13732864345E+04  0.65864270000E+03 0.  1.
    8880022    1    1    2    0    0  0.28641643497E+03  0.56657817124E+03 -0.72217940414E+03  0.97364261571E+03  0.15294330000E+03 0.  0.
<mgrwt>
<rscale>  0 0.84086398E+03</rscale>
<asrwt>0</asrwt>
<pdfrwt beam="1">  1        1 0.15729785E+00 0.91479801E+03</pdfrwt>
<pdfrwt beam="2">  1       -1 0.20376816E+00 0.91479801E+03</pdfrwt>
<totfact> 0.20944758E+00</totfact>
</mgrwt>
</event>
<event>
 4    1  0.2514307E-008  0.9090566E+03  0.7818608E-02  0.9511646E-01
         -1   -1    0    0    0  501 -0.00000000000E+00  0.00000000000E+00  0.87204088411E+03  0.87204088412E+03  0.50400000000E-02 0.  1.
          1   -1    0    0  501    0  0.00000000000E+00 -0.00000000000E+00 -0.28264593650E+04  0.28264593650E+04  0.50400000000E-02 0. -1.
    8880023    1    1    2    0    0 -0.40215540491E+02 -0.62526503413E+03  0.58330292708E+03  0.10801047003E+04  0.65864270000E+03 0.  1.
    8880022    1    1    2    0    0  0.40215540491E+02  0.62526503413E+03 -0.25377214079E+04  0.26183955488E+04  0.15294330000E+03 0.  0.
<mgrwt>
<rscale>  0 0.83430592E+03</rscale>
<asrwt>0</asrwt>
<pdfrwt beam="1">  1        1 0.43483990E+00 0.90905658E+03</pdfrwt>
<pdfrwt beam="2">  1       -1 0.13416014E+00 0.90905658E+03</pdfrwt>
<totfact> 0.38920995E-01</totfact>
</mgrwt>
</event>
<event>
 4    1  0.2514307E-008  0.6834920E+03  0.7818608E-02  0.1007414E+00
         -1   -1    0    0    0  501 -0.00000000000E+00  0.00000000000E+00  0.16692068051E+03  0.16692068059E+03  0.50400000000E-02 0.  1.
          1   -1    0    0  501    0  0.00000000000E+00 -0.00000000000E+00 -0.16561731994E+04  0.16561731994E+04  0.50400000000E-02 0. -1.
    8880023    1    1    2    0    0 -0.67505031632E+02  0.16968845869E+03 -0.62345717716E+03  0.92512710496E+03  0.65864270000E+03 0. -1.
    8880022    1    1    2    0    0  0.67505031632E+02 -0.16968845869E+03 -0.86579534172E+03  0.89796677503E+03  0.15294330000E+03 0.  0.
<mgrwt>
<rscale>  0 0.52515666E+03</rscale>
<asrwt>0</asrwt>
<pdfrwt beam="1">  1        1 0.25479587E+00 0.68349200E+03</pdfrwt>
<pdfrwt beam="2">  1       -1 0.25680106E-01 0.68349200E+03</pdfrwt>
<totfact> 0.70624106E+01</totfact>
</mgrwt>
</event>
<event>
 4    1  0.2514307E-008  0.9453704E+03  0.7818608E-02  0.9456807E-01
          1   -1    0    0  501    0  0.00000000000E+00  0.00000000000E+00  0.10174783985E+04  0.10174783985E+04  0.50400000000E-02 0. -1.
         -1   -1    0    0    0  501 -0.00000000000E+00 -0.00000000000E+00 -0.16344225762E+04  0.16344225762E+04  0.50400000000E-02 0.  1.
    8880023    1    1    2    0    0  0.38744118405E+03  0.55660068705E+03 -0.13457997335E+04  0.16446586652E+04  0.65864270000E+03 0.  1.
    8880022    1    1    2    0    0 -0.38744118405E+03 -0.55660068705E+03  0.72885555584E+03  0.10072423096E+04  0.15294330000E+03 0.  0.
<mgrwt>
<rscale>  0 0.87544597E+03</rscale>
<asrwt>0</asrwt>
<pdfrwt beam="1">  1        1 0.15653514E+00 0.94537040E+03</pdfrwt>
<pdfrwt beam="2">  1       -1 0.25144963E+00 0.94537040E+03</pdfrwt>
<totfact> 0.10170314E+00</totfact>
</mgrwt>
</event>
<event>
 4    1  0.2514307E-008  0.6843778E+03  0.7818608E-02  0.1006948E+00
          1   -1    0    0  501    0  0.00000000000E+00  0.00000000000E+00  0.64166261872E+03  0.64166261874E+03  0.50400000000E-02 0. -1.
         -1   -1    0    0    0  501 -0.00000000000E+00 -0.00000000000E+00 -0.88704675665E+03  0.88704675666E+03  0.50400000000E-02 0.  1.
    8880023    1    1    2    0    0 -0.82246195568E+02 -0.16672831237E+03 -0.72195721267E+03  0.99478399164E+03  0.65864270000E+03 0.  1.
    8880022    1    1    2    0    0  0.82246195568E+02  0.16672831237E+03  0.47657307474E+03  0.53392538376E+03  0.15294330000E+03 0.  0.
<mgrwt>
<rscale>  0 0.52705721E+03</rscale>
<asrwt>0</asrwt>
<pdfrwt beam="1">  1        1 0.98717327E-01 0.68437780E+03</pdfrwt>
<pdfrwt beam="2">  1       -1 0.13646873E+00 0.68437780E+03</pdfrwt>
<totfact> 0.14420641E+01</totfact>
</mgrwt>
</event>
<event>
 4    1  0.2514307E-008  0.9279177E+03  0.7818608E-02  0.9482624E-01
         -1   -1    0    0    0  501 -0.00000000000E+00  0.00000000000E+00  0.38184365419E+03  0.38184365422E+03  0.50400000000E-02 0.  1.
          1   -1    0    0  501    0  0.00000000000E+00 -0.00000000000E+00 -0.18985330542E+04  0.18985330542E+04  0.50400000000E-02 0. -1.
    8880023    1    1    2    0    0 -0.91888622988E+02  0.64713029260E+03 -0.12529694475E+04  0.15591548278E+04  0.65864270000E+03 0. -1.
    8880022    1    1    2    0    0  0.91888622988E+02 -0.64713029260E+03 -0.26371995251E+03  0.72122188056E+03  0.15294330000E+03 0.  0.
<mgrwt>
<rscale>  0 0.85577097E+03</rscale>
<asrwt>0</asrwt>
<pdfrwt beam="1">  1        1 0.29208200E+00 0.92791774E+03</pdfrwt>
<pdfrwt beam="2">  1       -1 0.58745179E-01 0.92791774E+03</pdfrwt>
<totfact> 0.10446873E+01</totfact>
</mgrwt>
</event>
<event>
 4    1  0.2514307E-008  0.7164925E+03  0.7818608E-02  0.9934638E-01
         -1   -1    0    0    0  501 -0.00000000000E+00  0.00000000000E+00  0.19101903309E+03  0.19101903316E+03  0.50400000000E-02 0.  1.
          1   -1    0    0  501    0  0.00000000000E+00 -0.00000000000E+00 -0.35436805860E+04  0.35436805860E+04  0.50400000000E-02 0. -1.
    8880023    1    1    2    0    0  0.28174283047E+03  0.13125501669E+02 -0.52340185124E+03  0.88730547471E+03  0.65864270000E+03 0.  1.
    8880022    1    1    2    0    0 -0.28174283047E+03 -0.13125501669E+02 -0.28292597017E+04  0.28473941445E+04  0.15294330000E+03 0.  0.
<mgrwt>
<rscale>  0 0.58611565E+03</rscale>
<asrwt>0</asrwt>
<pdfrwt beam="1">  1        1 0.54518158E+00 0.71649250E+03</pdfrwt>
<pdfrwt beam="2">  1       -1 0.29387546E-01 0.71649250E+03</pdfrwt>
<totfact> 0.26660947E+00</totfact>
</mgrwt>
</event>
<event>
 4    1  0.2514307E-008  0.1168626E+04  0.7818608E-02  0.9188240E-01
         -1   -1    0    0    0  501 -0.00000000000E+00  0.00000000000E+00  0.10583231036E+04  0.10583231036E+04  0.50400000000E-02 0.  1.
          1   -1    0    0  501    0  0.00000000000E+00 -0.00000000000E+00 -0.16110414360E+04  0.16110414360E+04  0.50400000000E-02 0. -1.
    8880023    1    1    2    0    0 -0.15657767318E+03  0.95255410065E+03  0.46554034460E+03  0.12579403408E+04  0.65864270000E+03 0.  0.
    8880022    1    1    2    0    0  0.15657767318E+03 -0.95255410065E+03 -0.10182586770E+04  0.14114241987E+04  0.15294330000E+03 0.  0.
<mgrwt>
<rscale>  0 0.11175635E+04</rscale>
<asrwt>0</asrwt>
<pdfrwt beam="1">  1        1 0.24785253E+00 0.11686257E+04</pdfrwt>
<pdfrwt beam="2">  1       -1 0.16281894E+00 0.11686257E+04</pdfrwt>
<totfact> 0.15021321E+00</totfact>
</mgrwt>
</event>
<event>
 4    1  0.2514307E-008  0.1378787E+04  0.7818608E-02  0.9000343E-01
          1   -1    0    0  501    0  0.00000000000E+00  0.00000000000E+00  0.21291869687E+04  0.21291869687E+04  0.50400000000E-02 0. -1.
         -1   -1    0    0    0  501 -0.00000000000E+00 -0.00000000000E+00 -0.10456992681E+04  0.10456992681E+04  0.50400000000E-02 0.  1.
    8880023    1    1    2    0    0 -0.57243364959E+03  0.10675033380E+04 -0.21171447971E+03  0.13949469119E+04  0.65864270000E+03 0.  1.
    8880022    1    1    2    0    0  0.57243364959E+03 -0.10675033380E+04  0.12952021803E+04  0.17799393250E+04  0.15294330000E+03 0.  0.
<mgrwt>
<rscale>  0 0.13375017E+04</rscale>
<asrwt>0</asrwt>
<pdfrwt beam="1">  1        1 0.32756723E+00 0.13787871E+04</pdfrwt>
<pdfrwt beam="2">  1       -1 0.16087681E+00 0.13787871E+04</pdfrwt>
<totfact> 0.67367646E-01</totfact>
</mgrwt>
</event>
<event>
 4    1  0.2514307E-008  0.1655110E+04  0.7818608E-02  0.8807225E-01
         -1   -1    0    0    0  501 -0.00000000000E+00  0.00000000000E+00  0.11938193960E+04  0.11938193960E+04  0.50400000000E-02 0.  1.
          1   -1    0    0  501    0  0.00000000000E+00 -0.00000000000E+00 -0.37715841141E+04  0.37715841142E+04  0.50400000000E-02 0. -1.
    8880023    1    1    2    0    0  0.71936228088E+03 -0.13371976497E+04  0.32425989401E+03  0.16865747332E+04  0.65864270000E+03 0.  0.
    8880022    1    1    2    0    0 -0.71936228088E+03  0.13371976497E+04 -0.29020246122E+04  0.32788287769E+04  0.15294330000E+03 0.  0.
<mgrwt>
<rscale>  0 0.16218688E+04</rscale>
<asrwt>0</asrwt>
<pdfrwt beam="1">  1        1 0.58024370E+00 0.16551102E+04</pdfrwt>
<pdfrwt beam="2">  1       -1 0.18366452E+00 0.16551102E+04</pdfrwt>
<totfact> 0.27588077E-02</totfact>
</mgrwt>
</event>
<event>
 4    1  0.2514307E-008  0.1774779E+04  0.7818608E-02  0.8736618E-01
          1   -1    0    0  501    0  0.00000000000E+00  0.00000000000E+00  0.17762334957E+04  0.17762334957E+04  0.50400000000E-02 0. -1.
         -1   -1    0    0    0  501 -0.00000000000E+00 -0.00000000000E+00 -0.17804973894E+04  0.17804973894E+04  0.50400000000E-02 0.  1.
    8880023    1    1    2    0    0 -0.75190696070E+03 -0.14665144999E+04 -0.47260357183E+03  0.18366254921E+04  0.65864270000E+03 0.  0.
    8880022    1    1    2    0    0  0.75190696070E+03  0.14665144999E+04  0.46833967817E+03  0.17201053930E+04  0.15294330000E+03 0.  0.
<mgrwt>
<rscale>  0 0.17440763E+04</rscale>
<asrwt>0</asrwt>
<pdfrwt beam="1">  1        1 0.27326669E+00 0.17747786E+04</pdfrwt>
<pdfrwt beam="2">  1       -1 0.27392268E+00 0.17747786E+04</pdfrwt>
<totfact> 0.18873356E-01</totfact>
</mgrwt>
</event>
<event>
 4    1  0.2514307E-008  0.7658072E+03  0.7818608E-02  0.9790299E-01
          1   -1    0    0  501    0  0.00000000000E+00  0.00000000000E+00  0.56615752622E+03  0.56615752624E+03  0.50400000000E-02 0. -1.
         -1   -1    0    0    0  501 -0.00000000000E+00 -0.00000000000E+00 -0.14188817773E+04  0.14188817774E+04  0.50400000000E-02 0.  1.
    8880023    1    1    2    0    0  0.22319418118E+03 -0.32067856566E+03 -0.12113268570E+04  0.14330992100E+04  0.65864270000E+03 0.  1.
    8880022    1    1    2    0    0 -0.22319418118E+03  0.32067856566E+03  0.35860260586E+03  0.55194009360E+03  0.15294330000E+03 0.  0.
<mgrwt>
<rscale>  0 0.65885768E+03</rscale>
<asrwt>0</asrwt>
<pdfrwt beam="1">  1        1 0.87101158E-01 0.76580715E+03</pdfrwt>
<pdfrwt beam="2">  1       -1 0.21828950E+00 0.76580715E+03</pdfrwt>
<totfact> 0.43567529E+00</totfact>
</mgrwt>
</event>
<event>
 4    1  0.2514307E-008  0.1320902E+04  0.7818608E-02  0.9047717E-01
         -1   -1    0    0    0  501 -0.00000000000E+00  0.00000000000E+00  0.68417510215E+03  0.68417510217E+03  0.50400000000E-02 0.  1.
          1   -1    0    0  501    0  0.00000000000E+00 -0.00000000000E+00 -0.26957400336E+04  0.26957400336E+04  0.50400000000E-02 0. -1.
    8880023    1    1    2    0    0  0.57206618851E+03 -0.99182284129E+03 -0.36834330499E+03  0.13712983881E+04  0.65864270000E+03 0.  0.
    8880022    1    1    2    0    0 -0.57206618851E+03  0.99182284129E+03 -0.16432216265E+04  0.20086167477E+04  0.15294330000E+03 0.  0.
<mgrwt>
<rscale>  0 0.12773569E+04</rscale>
<asrwt>0</asrwt>
<pdfrwt beam="1">  1        1 0.41472923E+00 0.13209021E+04</pdfrwt>
<pdfrwt beam="2">  1       -1 0.10525771E+00 0.13209021E+04</pdfrwt>
<totfact> 0.81685828E-01</totfact>
</mgrwt>
</event>
<event>
 4    1  0.2514307E-008  0.1115360E+04  0.7818608E-02  0.9244144E-01
         -1   -1    0    0    0  501 -0.00000000000E+00  0.00000000000E+00  0.90479576231E+03  0.90479576232E+03  0.50400000000E-02 0.  1.
          1   -1    0    0  501    0  0.00000000000E+00 -0.00000000000E+00 -0.14148881181E+04  0.14148881181E+04  0.50400000000E-02 0. -1.
    8880023    1    1    2    0    0 -0.20527013436E+03  0.87640328469E+03  0.23663627128E+03  0.11401865973E+04  0.65864270000E+03 0. -1.
    8880022    1    1    2    0    0  0.20527013436E+03 -0.87640328469E+03 -0.74672862708E+03  0.11794972832E+04  0.15294330000E+03 0.  0.
<mgrwt>
<rscale>  0 0.10609179E+04</rscale>
<asrwt>0</asrwt>
<pdfrwt beam="1">  1        1 0.21767509E+00 0.11153604E+04</pdfrwt>
<pdfrwt beam="2">  1       -1 0.13919935E+00 0.11153604E+04</pdfrwt>
<totfact> 0.31617662E+00</totfact>
</mgrwt>
</event>
<event>
 4    1  0.2514307E-008  0.8149398E+03  0.7818608E-02  0.9679378E-01
         -1   -1    0    0    0  501 -0.00000000000E+00  0.00000000000E+00  0.68592692530E+03  0.68592692532E+03  0.50400000000E-02 0.  1.
          1   -1    0    0  501    0  0.00000000000E+00 -0.00000000000E+00 -0.10651055532E+04  0.10651055532E+04  0.50400000000E-02 0. -1.
    8880023    1    1    2    0    0  0.47682466020E+03  0.54358561303E+02  0.33164548785E+03  0.87983836336E+03  0.65864270000E+03 0.  1.
    8880022    1    1    2    0    0 -0.47682466020E+03 -0.54358561303E+02 -0.71082411575E+03  0.87119411517E+03  0.15294330000E+03 0.  0.
<mgrwt>
<rscale>  0 0.72258003E+03</rscale>
<asrwt>0</asrwt>
<pdfrwt beam="1">  1        1 0.16386239E+00 0.81493976E+03</pdfrwt>
<pdfrwt beam="2">  1       -1 0.10552722E+00 0.81493976E+03</pdfrwt>
<totfact> 0.11608745E+01</totfact>
</mgrwt>
</event>
<event>
 4    1  0.2514307E-008  0.7333456E+03  0.7818608E-02  0.9879773E-01
         -1   -1    0    0    0  501 -0.00000000000E+00  0.00000000000E+00  0.33802844897E+03  0.33802844901E+03  0.50400000000E-02 0.  1.
          1   -1    0    0  501    0  0.00000000000E+00 -0.00000000000E+00 -0.22864586230E+04  0.22864586230E+04  0.50400000000E-02 0. -1.
    8880023    1    1    2    0    0  0.53935448795E+02  0.31792529298E+03 -0.97896129483E+02  0.73985091943E+03  0.65864270000E+03 0.  1.
    8880022    1    1    2    0    0 -0.53935448795E+02 -0.31792529298E+03 -0.18505340446E+04  0.18846361526E+04  0.15294330000E+03 0.  0.
<mgrwt>
<rscale>  0 0.61251674E+03</rscale>
<asrwt>0</asrwt>
<pdfrwt beam="1">  1        1 0.35176286E+00 0.73334557E+03</pdfrwt>
<pdfrwt beam="2">  1       -1 0.52004378E-01 0.73334557E+03</pdfrwt>
<totfact> 0.74703191E+00</totfact>
</mgrwt>
</event>
<event>
 4    1  0.2514307E-008  0.1055796E+04  0.7818608E-02  0.9311946E-01
          1   -1    0    0  501    0  0.00000000000E+00  0.00000000000E+00  0.90221713794E+03  0.90221713795E+03  0.50400000000E-02 0. -1.
         -1   -1    0    0    0  501 -0.00000000000E+00 -0.00000000000E+00 -0.24603419944E+04  0.24603419944E+04  0.50400000000E-02 0.  1.
    8880023    1    1    2    0    0  0.45364485998E+03  0.68927629977E+03  0.47897668367E+03  0.11593637678E+04  0.65864270000E+03 0.  0.
    8880022    1    1    2    0    0 -0.45364485998E+03 -0.68927629977E+03 -0.20371015401E+04  0.22031953645E+04  0.15294330000E+03 0.  0.
<mgrwt>
<rscale>  0 0.99690506E+03</rscale>
<asrwt>0</asrwt>
<pdfrwt beam="1">  1        1 0.13880264E+00 0.10557962E+04</pdfrwt>
<pdfrwt beam="2">  1       -1 0.37851415E+00 0.10557962E+04</pdfrwt>
<totfact> 0.18396597E-01</totfact>
</mgrwt>
</event>
<event>
 4    1  0.2514307E-008  0.1290784E+04  0.7818608E-02  0.9073559E-01
          1   -1    0    0  501    0  0.00000000000E+00  0.00000000000E+00  0.29887594382E+04  0.29887594382E+04  0.50400000000E-02 0. -1.
         -1   -1    0    0    0  501 -0.00000000000E+00 -0.00000000000E+00 -0.60851525383E+03  0.60851525385E+03  0.50400000000E-02 0.  1.
    8880023    1    1    2    0    0  0.60281162572E+03  0.93216539067E+03  0.45306839699E+03  0.13679895286E+04  0.65864270000E+03 0.  0.
    8880022    1    1    2    0    0 -0.60281162572E+03 -0.93216539067E+03  0.19271757874E+04  0.22292851635E+04  0.15294330000E+03 0.  0.
<mgrwt>
<rscale>  0 0.12459519E+04</rscale>
<asrwt>0</asrwt>
<pdfrwt beam="1">  1        1 0.45980914E+00 0.12907844E+04</pdfrwt>
<pdfrwt beam="2">  1       -1 0.93617732E-01 0.12907844E+04</pdfrwt>
<totfact> 0.66351009E-01</totfact>
</mgrwt>
</event>
<event>
 4    1  0.2514307E-008  0.8873759E+03  0.7818608E-02  0.9546609E-01
          1   -1    0    0  501    0  0.00000000000E+00  0.00000000000E+00  0.15489877955E+04  0.15489877955E+04  0.50400000000E-02 0. -1.
         -1   -1    0    0    0  501 -0.00000000000E+00 -0.00000000000E+00 -0.15168113192E+04  0.15168113192E+04  0.50400000000E-02 0.  1.
    8880023    1    1    2    0    0 -0.51553163215E+03 -0.29640003352E+03 -0.13143633505E+04  0.15858710752E+04  0.65864270000E+03 0.  1.
    8880022    1    1    2    0    0  0.51553163215E+03  0.29640003352E+03  0.13465398269E+04  0.14799280395E+04  0.15294330000E+03 0.  0.
<mgrwt>
<rscale>  0 0.80933053E+03</rscale>
<asrwt>0</asrwt>
<pdfrwt beam="1">  1        1 0.23830581E+00 0.88737593E+03</pdfrwt>
<pdfrwt beam="2">  1       -1 0.23335559E+00 0.88737593E+03</pdfrwt>
<totfact> 0.55896514E-01</totfact>
</mgrwt>
</event>
<event>
 4    1  0.2514307E-008  0.7055622E+03  0.7818608E-02  0.9974865E-01
         -1   -1    0    0    0  501 -0.00000000000E+00  0.00000000000E+00  0.98887844528E+03  0.98887844529E+03  0.50400000000E-02 0.  1.
          1   -1    0    0  501    0  0.00000000000E+00 -0.00000000000E+00 -0.60450135804E+03  0.60450135806E+03  0.50400000000E-02 0. -1.
    8880023    1    1    2    0    0 -0.21401793951E+03 -0.13492257393E+03  0.81060406753E+03  0.10746613141E+04  0.65864270000E+03 0.  1.
    8880022    1    1    2    0    0  0.21401793951E+03  0.13492257393E+03 -0.42622698029E+03  0.51871848929E+03  0.15294330000E+03 0.  0.
<mgrwt>
<rscale>  0 0.56766229E+03</rscale>
<asrwt>0</asrwt>
<pdfrwt beam="1">  1        1 0.93000210E-01 0.70556218E+03</pdfrwt>
<pdfrwt beam="2">  1       -1 0.15213514E+00 0.70556218E+03</pdfrwt>
<totfact> 0.11778697E+01</totfact>
</mgrwt>
</event>
<event>
 4    1  0.2514307E-008  0.7401811E+03  0.7818608E-02  0.9859420E-01
          1   -1    0    0  501    0  0.00000000000E+00  0.00000000000E+00  0.16411524501E+04  0.16411524501E+04  0.50400000000E-02 0. -1.
         -1   -1    0    0    0  501 -0.00000000000E+00 -0.00000000000E+00 -0.14664997006E+04  0.14664997006E+04  0.50400000000E-02 0.  1.
    8880023    1    1    2    0    0  0.28407514883E+03 -0.18264494053E+03 -0.13494433664E+04  0.15391119095E+04  0.65864270000E+03 0.  1.
    8880022    1    1    2    0    0 -0.28407514883E+03  0.18264494053E+03  0.15240961160E+04  0.15685402412E+04  0.15294330000E+03 0.  0.
<mgrwt>
<rscale>  0 0.62268929E+03</rscale>
<asrwt>0</asrwt>
<pdfrwt beam="1">  1        1 0.25248499E+00 0.74018111E+03</pdfrwt>
<pdfrwt beam="2">  1       -1 0.22561534E+00 0.74018111E+03</pdfrwt>
<totfact> 0.56082966E-01</totfact>
</mgrwt>
</event>
<event>
 4    1  0.2514307E-008  0.7900227E+03  0.7818608E-02  0.9732799E-01
         -1   -1    0    0    0  501 -0.00000000000E+00  0.00000000000E+00  0.13255724023E+04  0.13255724023E+04  0.50400000000E-02 0.  1.
          1   -1    0    0  501    0  0.00000000000E+00 -0.00000000000E+00 -0.16041940727E+04  0.16041940728E+04  0.50400000000E-02 0. -1.
    8880023    1    1    2    0    0  0.95179390041E+02  0.42575401601E+03  0.11685504603E+04  0.14105481144E+04  0.65864270000E+03 0.  1.
    8880022    1    1    2    0    0 -0.95179390041E+02 -0.42575401601E+03 -0.14471721307E+04  0.15192183607E+04  0.15294330000E+03 0.  0.
<mgrwt>
<rscale>  0 0.69097066E+03</rscale>
<asrwt>0</asrwt>
<pdfrwt beam="1">  1        1 0.24679909E+00 0.79002266E+03</pdfrwt>
<pdfrwt beam="2">  1       -1 0.20393422E+00 0.79002266E+03</pdfrwt>
<totfact> 0.82067194E-01</totfact>
</mgrwt>
</event>
<event>
 4    1  0.2514307E-008  0.6974587E+03  0.7818608E-02  0.1000791E+00
          1   -1    0    0  501    0  0.00000000000E+00  0.00000000000E+00  0.15873521848E+04  0.15873521848E+04  0.50400000000E-02 0. -1.
         -1   -1    0    0    0  501 -0.00000000000E+00 -0.00000000000E+00 -0.13766524168E+04  0.13766524168E+04  0.50400000000E-02 0.  1.
    8880023    1    1    2    0    0 -0.61634156865E+02  0.22099688834E+03 -0.12748047192E+04  0.14531261722E+04  0.65864270000E+03 0.  1.
    8880022    1    1    2    0    0  0.61634156865E+02 -0.22099688834E+03  0.14855044872E+04  0.15108784294E+04  0.15294330000E+03 0.  0.
<mgrwt>
<rscale>  0 0.55304697E+03</rscale>
<asrwt>0</asrwt>
<pdfrwt beam="1">  1        1 0.24420803E+00 0.69745867E+03</pdfrwt>
<pdfrwt beam="2">  1       -1 0.21179268E+00 0.69745867E+03</pdfrwt>
<totfact> 0.76087991E-01</totfact>
</mgrwt>
</event>
<event>
 4    1  0.2514307E-008  0.1571129E+04  0.7818608E-02  0.8860976E-01
         -1   -1    0    0    0  501 -0.00000000000E+00  0.00000000000E+00  0.14850301937E+04  0.14850301937E+04  0.50400000000E-02 0.  1.
          1   -1    0    0  501    0  0.00000000000E+00 -0.00000000000E+00 -0.16574273842E+04  0.16574273842E+04  0.50400000000E-02 0. -1.
    8880023    1    1    2    0    0  0.13927730477E+04  0.30792853658E+03  0.36074129723E+03  0.16120115495E+04  0.65864270000E+03 0.  0.
    8880022    1    1    2    0    0 -0.13927730477E+04 -0.30792853658E+03 -0.53313848773E+03  0.15304460285E+04  0.15294330000E+03 0.  0.
<mgrwt>
<rscale>  0 0.15358201E+04</rscale>
<asrwt>0</asrwt>
<pdfrwt beam="1">  1        1 0.25498883E+00 0.15711292E+04</pdfrwt>
<pdfrwt beam="2">  1       -1 0.22846619E+00 0.15711292E+04</pdfrwt>
<totfact> 0.46206850E-01</totfact>
</mgrwt>
</event>
<event>
 4    1  0.2514307E-008  0.8535068E+03  0.7818608E-02  0.9605220E-01
         -1   -1    0    0    0  501 -0.00000000000E+00  0.00000000000E+00  0.90308718559E+03  0.90308718561E+03  0.50400000000E-02 0.  1.
          1   -1    0    0  501    0  0.00000000000E+00 -0.00000000000E+00 -0.17110066384E+04  0.17110066384E+04  0.50400000000E-02 0. -1.
    8880023    1    1    2    0    0 -0.44613221690E+03  0.30924042142E+03  0.63569608119E+03  0.10642289731E+04  0.65864270000E+03 0.  1.
    8880022    1    1    2    0    0  0.44613221690E+03 -0.30924042142E+03 -0.14436155340E+04  0.15498648509E+04  0.15294330000E+03 0.  0.
<mgrwt>
<rscale>  0 0.76951670E+03</rscale>
<asrwt>0</asrwt>
<pdfrwt beam="1">  1        1 0.26323179E+00 0.85350677E+03</pdfrwt>
<pdfrwt beam="2">  1       -1 0.13893649E+00 0.85350677E+03</pdfrwt>
<totfact> 0.20638028E+00</totfact>
</mgrwt>
</event>
<event>
 4    1  0.2514307E-008  0.6962290E+03  0.7818608E-02  0.1001322E+00
          1   -1    0    0  501    0  0.00000000000E+00  0.00000000000E+00  0.16981069037E+04  0.16981069038E+04  0.50400000000E-02 0. -1.
         -1   -1    0    0    0  501 -0.00000000000E+00 -0.00000000000E+00 -0.41017937869E+03  0.41017937872E+03  0.50400000000E-02 0.  1.
    8880023    1    1    2    0    0 -0.19755424366E+03  0.10907289624E+03 -0.91467256716E+02  0.70221153593E+03  0.65864270000E+03 0.  1.
    8880022    1    1    2    0    0  0.19755424366E+03 -0.10907289624E+03  0.13793947818E+04  0.14060747465E+04  0.15294330000E+03 0.  0.
<mgrwt>
<rscale>  0 0.55074369E+03</rscale>
<asrwt>0</asrwt>
<pdfrwt beam="1">  1        1 0.26124722E+00 0.69622897E+03</pdfrwt>
<pdfrwt beam="2">  1       -1 0.63104520E-01 0.69622897E+03</pdfrwt>
<totfact> 0.12765834E+01</totfact>
</mgrwt>
</event>
<event>
 4    1  0.2514307E-008  0.6964787E+03  0.7818608E-02  0.1001213E+00
         -1   -1    0    0    0  501 -0.00000000000E+00  0.00000000000E+00  0.12926465509E+03  0.12926465519E+03  0.50400000000E-02 0.  1.
          1   -1    0    0  501    0  0.00000000000E+00 -0.00000000000E+00 -0.34069056913E+04  0.34069056913E+04  0.50400000000E-02 0. -1.
    8880023    1    1    2    0    0  0.16279628532E+03  0.15738406481E+03 -0.87646519579E+03  0.11194971282E+04  0.65864270000E+03 0.  0.
    8880022    1    1    2    0    0 -0.16279628532E+03 -0.15738406481E+03 -0.24011758405E+04  0.24166732183E+04  0.15294330000E+03 0.  0.
<mgrwt>
<rscale>  0 0.55121345E+03</rscale>
<asrwt>0</asrwt>
<pdfrwt beam="1">  1        1 0.52413927E+00 0.69647870E+03</pdfrwt>
<pdfrwt beam="2">  1       -1 0.19886873E-01 0.69647870E+03</pdfrwt>
<totfact> 0.66209098E+00</totfact>
</mgrwt>
</event>
<event>
 4    1  0.2514307E-008  0.7921556E+03  0.7818608E-02  0.9728021E-01
         -1   -1    0    0    0  501 -0.00000000000E+00  0.00000000000E+00  0.65892158636E+03  0.65892158638E+03  0.50400000000E-02 0.  1.
          1   -1    0    0  501    0  0.00000000000E+00 -0.00000000000E+00 -0.12642614909E+04  0.12642614909E+04  0.50400000000E-02 0. -1.
    8880023    1    1    2    0    0 -0.64238173665E+02  0.43540062193E+03  0.34557599443E+03  0.86425298306E+03  0.65864270000E+03 0.  1.
    8880022    1    1    2    0    0  0.64238173665E+02 -0.43540062193E+03 -0.95091589892E+03  0.10589300942E+04  0.15294330000E+03 0.  0.
<mgrwt>
<rscale>  0 0.69372655E+03</rscale>
<asrwt>0</asrwt>
<pdfrwt beam="1">  1        1 0.19450177E+00 0.79215557E+03</pdfrwt>
<pdfrwt beam="2">  1       -1 0.10137255E+00 0.79215557E+03</pdfrwt>
<totfact> 0.91269610E+00</totfact>
</mgrwt>
</event>
<event>
 4    1  0.2514307E-008  0.1512187E+04  0.7818608E-02  0.8901078E-01
         -1   -1    0    0    0  501 -0.00000000000E+00  0.00000000000E+00  0.19040261724E+04  0.19040261724E+04  0.50400000000E-02 0.  1.
          1   -1    0    0  501    0  0.00000000000E+00 -0.00000000000E+00 -0.15792355789E+04  0.15792355789E+04  0.50400000000E-02 0. -1.
    8880023    1    1    2    0    0  0.13586392584E+04  0.83666145969E+02  0.11359514218E+04  0.18913213628E+04  0.65864270000E+03 0.  0.
    8880022    1    1    2    0    0 -0.13586392584E+04 -0.83666145969E+02 -0.81116082825E+03  0.15919403886E+04  0.15294330000E+03 0.  0.
<mgrwt>
<rscale>  0 0.14752539E+04</rscale>
<asrwt>0</asrwt>
<pdfrwt beam="1">  1        1 0.24295932E+00 0.15121874E+04</pdfrwt>
<pdfrwt beam="2">  1       -1 0.29292710E+00 0.15121874E+04</pdfrwt>
<totfact> 0.19972455E-01</totfact>
</mgrwt>
</event>
<event>
 4    1  0.2514307E-008  0.1282017E+04  0.7818608E-02  0.9081247E-01
          1   -1    0    0  501    0  0.00000000000E+00  0.00000000000E+00  0.14863284186E+04  0.14863284186E+04  0.50400000000E-02 0. -1.
         -1   -1    0    0    0  501 -0.00000000000E+00 -0.00000000000E+00 -0.10188395708E+04  0.10188395708E+04  0.50400000000E-02 0.  1.
    8880023    1    1    2    0    0 -0.90934052573E+03 -0.61875407553E+03  0.54269699842E+03  0.13921519443E+04  0.65864270000E+03 0. -1.
    8880022    1    1    2    0    0  0.90934052573E+03  0.61875407553E+03 -0.75208150674E+02  0.11130160451E+04  0.15294330000E+03 0.  1.
<mgrwt>
<rscale>  0 0.12367935E+04</rscale>
<asrwt>0</asrwt>
<pdfrwt beam="1">  1        1 0.22866591E+00 0.12820168E+04</pdfrwt>
<pdfrwt beam="2">  1       -1 0.15674455E+00 0.12820168E+04</pdfrwt>
<totfact> 0.20108357E+00</totfact>
</mgrwt>
</event>
<event>
 4    1  0.2514307E-008  0.6950158E+03  0.7818608E-02  0.1001854E+00
          1   -1    0    0  501    0  0.00000000000E+00  0.00000000000E+00  0.10837307980E+04  0.10837307980E+04  0.50400000000E-02 0. -1.
         -1   -1    0    0    0  501 -0.00000000000E+00 -0.00000000000E+00 -0.89437042316E+03  0.89437042318E+03  0.50400000000E-02 0.  1.
    8880023    1    1    2    0    0 -0.11784617527E+03 -0.18801327429E+03 -0.73718536532E+03  0.10131580239E+04  0.65864270000E+03 0.  1.
    8880022    1    1    2    0    0  0.11784617527E+03  0.18801327429E+03  0.92654574011E+03  0.96494319722E+03  0.15294330000E+03 0.  0.
<mgrwt>
<rscale>  0 0.54844651E+03</rscale>
<asrwt>0</asrwt>
<pdfrwt beam="1">  1        1 0.16672782E+00 0.69501577E+03</pdfrwt>
<pdfrwt beam="2">  1       -1 0.13759545E+00 0.69501577E+03</pdfrwt>
<totfact> 0.59790309E+00</totfact>
</mgrwt>
</event>
<event>
 4    1  0.2514307E-008  0.1140795E+04  0.7818608E-02  0.9216940E-01
          1   -1    0    0  501    0  0.00000000000E+00  0.00000000000E+00  0.12914247852E+04  0.12914247852E+04  0.50400000000E-02 0. -1.
         -1   -1    0    0    0  501 -0.00000000000E+00 -0.00000000000E+00 -0.15176935698E+04  0.15176935698E+04  0.50400000000E-02 0.  1.
    8880023    1    1    2    0    0 -0.64482874704E+03  0.67215948272E+03 -0.10543808809E+04  0.15534258049E+04  0.65864270000E+03 0.  0.
    8880022    1    1    2    0    0  0.64482874704E+03 -0.67215948272E+03  0.82811209625E+03  0.12556925500E+04  0.15294330000E+03 0.  0.
<mgrwt>
<rscale>  0 0.10880278E+04</rscale>
<asrwt>0</asrwt>
<pdfrwt beam="1">  1        1 0.19868074E+00 0.11407948E+04</pdfrwt>
<pdfrwt beam="2">  1       -1 0.23349132E+00 0.11407948E+04</pdfrwt>
<totfact> 0.81125578E-01</totfact>
</mgrwt>
</event>
<event>
 4    1  0.2514307E-008  0.8261762E+03  0.7818608E-02  0.9656819E-01
         -1   -1    0    0    0  501 -0.00000000000E+00  0.00000000000E+00  0.36600998297E+03  0.36600998301E+03  0.50400000000E-02 0.  1.
          1   -1    0    0  501    0  0.00000000000E+00 -0.00000000000E+00 -0.19372558028E+04  0.19372558028E+04  0.50400000000E-02 0. -1.
    8880023    1    1    2    0    0 -0.53217429202E+02  0.49590798911E+03 -0.22022578868E+03  0.85502422930E+03  0.65864270000E+03 0.  1.
    8880022    1    1    2    0    0  0.53217429202E+02 -0.49590798911E+03 -0.13510200311E+04  0.14482415565E+04  0.15294330000E+03 0.  0.
<mgrwt>
<rscale>  0 0.73647029E+03</rscale>
<asrwt>0</asrwt>
<pdfrwt beam="1">  1        1 0.29803935E+00 0.82617615E+03</pdfrwt>
<pdfrwt beam="2">  1       -1 0.56309229E-01 0.82617615E+03</pdfrwt>
<totfact> 0.10833729E+01</totfact>
</mgrwt>
</event>
<event>
 4    1  0.2514307E-008  0.1110464E+04  0.7818608E-02  0.9249494E-01
         -1   -1    0    0    0  501 -0.00000000000E+00  0.00000000000E+00  0.96489443022E+03  0.96489443024E+03  0.50400000000E-02 0.  1.
          1   -1    0    0  501    0  0.00000000000E+00 -0.00000000000E+00 -0.15322392390E+04  0.15322392390E+04  0.50400000000E-02 0. -1.
    8880023    1    1    2    0    0  0.88237640086E+03 -0.14398898747E+03  0.39130404670E+03  0.11773911859E+04  0.65864270000E+03 0.  1.
    8880022    1    1    2    0    0 -0.88237640086E+03  0.14398898747E+03 -0.95864885544E+03  0.13197424833E+04  0.15294330000E+03 0.  0.
<mgrwt>
<rscale>  0 0.10556853E+04</rscale>
<asrwt>0</asrwt>
<pdfrwt beam="1">  1        1 0.23572911E+00 0.11104644E+04</pdfrwt>
<pdfrwt beam="2">  1       -1 0.14844530E+00 0.11104644E+04</pdfrwt>
<totfact> 0.22108234E+00</totfact>
</mgrwt>
</event>
<event>
 4    1  0.2514307E-008  0.6911540E+03  0.7818608E-02  0.1003609E+00
         -1   -1    0    0    0  501 -0.00000000000E+00  0.00000000000E+00  0.33721859988E+03  0.33721859991E+03  0.50400000000E-02 0.  1.
          1   -1    0    0  501    0  0.00000000000E+00 -0.00000000000E+00 -0.16857682236E+04  0.16857682236E+04  0.50400000000E-02 0. -1.
    8880023    1    1    2    0    0  0.18687555484E+02  0.20864911494E+03 -0.43619576388E+02  0.69252909802E+03  0.65864270000E+03 0.  1.
    8880022    1    1    2    0    0 -0.18687555484E+02 -0.20864911494E+03 -0.13049300473E+04  0.13304577255E+04  0.15294330000E+03 0.  0.
<mgrwt>
<rscale>  0 0.54095746E+03</rscale>
<asrwt>0</asrwt>
<pdfrwt beam="1">  1        1 0.25934895E+00 0.69115402E+03</pdfrwt>
<pdfrwt beam="2">  1       -1 0.51879786E-01 0.69115402E+03</pdfrwt>
<totfact> 0.19067667E+01</totfact>
</mgrwt>
</event>
<event>
 4    1  0.2514307E-008  0.1033467E+04  0.7818608E-02  0.9339026E-01
         -1   -1    0    0    0  501 -0.00000000000E+00  0.00000000000E+00  0.71666759463E+03  0.71666759464E+03  0.50400000000E-02 0.  1.
          1   -1    0    0  501    0  0.00000000000E+00 -0.00000000000E+00 -0.15616936073E+04  0.15616936074E+04  0.50400000000E-02 0. -1.
    8880023    1    1    2    0    0 -0.35251195830E+03 -0.71412805424E+03  0.93882661117E+02  0.10377223708E+04  0.65864270000E+03 0.  0.
    8880022    1    1    2    0    0  0.35251195830E+03  0.71412805424E+03 -0.93890867384E+03  0.12406388312E+04  0.15294330000E+03 0.  0.
<mgrwt>
<rscale>  0 0.97268126E+03</rscale>
<asrwt>0</asrwt>
<pdfrwt beam="1">  1        1 0.24026056E+00 0.10334669E+04</pdfrwt>
<pdfrwt beam="2">  1       -1 0.11025655E+00 0.10334669E+04</pdfrwt>
<totfact> 0.45090924E+00</totfact>
</mgrwt>
</event>
<event>
 4    1  0.2514307E-008  0.7232464E+03  0.7818608E-02  0.9911750E-01
         -1   -1    0    0    0  501 -0.00000000000E+00  0.00000000000E+00  0.42900358466E+03  0.42900358468E+03  0.50400000000E-02 0.  1.
          1   -1    0    0  501    0  0.00000000000E+00 -0.00000000000E+00 -0.19767962315E+04  0.19767962316E+04  0.50400000000E-02 0. -1.
    8880023    1    1    2    0    0 -0.27698895291E+03 -0.11203709454E+03  0.94646362553E+02  0.72941300427E+03  0.65864270000E+03 0.  1.
    8880022    1    1    2    0    0  0.27698895291E+03  0.11203709454E+03 -0.16424390094E+04  0.16763868120E+04  0.15294330000E+03 0.  0.
<mgrwt>
<rscale>  0 0.59695176E+03</rscale>
<asrwt>0</asrwt>
<pdfrwt beam="1">  1        1 0.30412249E+00 0.72324643E+03</pdfrwt>
<pdfrwt beam="2">  1       -1 0.66000553E-01 0.72324643E+03</pdfrwt>
<totfact> 0.75624813E+00</totfact>
</mgrwt>
</event>
<event>
 4    1  0.2514307E-008  0.1226196E+04  0.7818608E-02  0.9132069E-01
          1   -1    0    0  501    0  0.00000000000E+00  0.00000000000E+00  0.14281115360E+04  0.14281115360E+04  0.50400000000E-02 0. -1.
         -1   -1    0    0    0  501 -0.00000000000E+00 -0.00000000000E+00 -0.11840742422E+04  0.11840742423E+04  0.50400000000E-02 0.  1.
    8880023    1    1    2    0    0 -0.95215763476E+03 -0.40391005658E+03 -0.50491134922E+03  0.13260818874E+04  0.65864270000E+03 0.  0.
    8880022    1    1    2    0    0  0.95215763476E+03  0.40391005658E+03  0.74894864292E+03  0.12861038908E+04  0.15294330000E+03 0.  0.
<mgrwt>
<rscale>  0 0.11782962E+04</rscale>
<asrwt>0</asrwt>
<pdfrwt beam="1">  1        1 0.21970947E+00 0.12261964E+04</pdfrwt>
<pdfrwt beam="2">  1       -1 0.18216527E+00 0.12261964E+04</pdfrwt>
<totfact> 0.14402754E+00</totfact>
</mgrwt>
</event>
<event>
 4    1  0.2514307E-008  0.7482756E+03  0.7818608E-02  0.9836465E-01
          1   -1    0    0  501    0  0.00000000000E+00  0.00000000000E+00  0.16563694623E+04  0.16563694623E+04  0.50400000000E-02 0. -1.
         -1   -1    0    0    0  501 -0.00000000000E+00 -0.00000000000E+00 -0.60657077027E+03  0.60657077029E+03  0.50400000000E-02 0.  1.
    8880023    1    1    2    0    0  0.27046615551E+03  0.23011783045E+03 -0.33888252989E+03  0.82143638372E+03  0.65864270000E+03 0.  1.
    8880022    1    1    2    0    0 -0.27046615551E+03 -0.23011783045E+03  0.13886812219E+04  0.14415038489E+04  0.15294330000E+03 0.  0.
<mgrwt>
<rscale>  0 0.63441806E+03</rscale>
<asrwt>0</asrwt>
<pdfrwt beam="1">  1        1 0.25482607E+00 0.74827559E+03</pdfrwt>
<pdfrwt beam="2">  1       -1 0.93318580E-01 0.74827559E+03</pdfrwt>
<totfact> 0.59378403E+00</totfact>
</mgrwt>
</event>
<event>
 4    1  0.2514307E-008  0.7612813E+03  0.7818608E-02  0.9801801E-01
         -1   -1    0    0    0  501 -0.00000000000E+00  0.00000000000E+00  0.27831961314E+03  0.27831961319E+03  0.50400000000E-02 0.  1.
          1   -1    0    0  501    0  0.00000000000E+00 -0.00000000000E+00 -0.25165698591E+04  0.25165698591E+04  0.50400000000E-02 0. -1.
    8880023    1    1    2    0    0  0.37916455963E+03  0.44422005384E+02 -0.30785380450E+03  0.82117187546E+03  0.65864270000E+03 0.  1.
    8880022    1    1    2    0    0 -0.37916455963E+03 -0.44422005384E+02 -0.19303964414E+04  0.19737175968E+04  0.15294330000E+03 0.  0.
<mgrwt>
<rscale>  0 0.65265956E+03</rscale>
<asrwt>0</asrwt>
<pdfrwt beam="1">  1        1 0.38716458E+00 0.76128134E+03</pdfrwt>
<pdfrwt beam="2">  1       -1 0.42818404E-01 0.76128134E+03</pdfrwt>
<totfact> 0.74709760E+00</totfact>
</mgrwt>
</event>
<event>
 4    1  0.2514307E-008  0.7933901E+03  0.7818608E-02  0.9725275E-01
          1   -1    0    0  501    0  0.00000000000E+00  0.00000000000E+00  0.14662737773E+04  0.14662737773E+04  0.50400000000E-02 0. -1.
         -1   -1    0    0    0  501 -0.00000000000E+00 -0.00000000000E+00 -0.10052490648E+04  0.10052490648E+04  0.50400000000E-02 0.  1.
    8880023    1    1    2    0    0  0.43621199035E+03  0.73326050374E+02 -0.79984160874E+03  0.11265941663E+04  0.65864270000E+03 0.  1.
    8880022    1    1    2    0    0 -0.43621199035E+03 -0.73326050374E+02  0.12608663212E+04  0.13449286759E+04  0.15294330000E+03 0.  0.
<mgrwt>
<rscale>  0 0.69531692E+03</rscale>
<asrwt>0</asrwt>
<pdfrwt beam="1">  1        1 0.22558058E+00 0.79339008E+03</pdfrwt>
<pdfrwt beam="2">  1       -1 0.15465370E+00 0.79339008E+03</pdfrwt>
<totfact> 0.23007698E+00</totfact>
</mgrwt>
</event>
<event>
 4    1  0.2514307E-008  0.1031939E+04  0.7818608E-02  0.9340915E-01
         -1   -1    0    0    0  501 -0.00000000000E+00  0.00000000000E+00  0.12755527827E+04  0.12755527827E+04  0.50400000000E-02 0.  1.
          1   -1    0    0  501    0  0.00000000000E+00 -0.00000000000E+00 -0.23366908450E+04  0.23366908450E+04  0.50400000000E-02 0. -1.
    8880023    1    1    2    0    0  0.65199116927E+03 -0.45386785331E+03  0.97598047679E+03  0.14203649568E+04  0.65864270000E+03 0.  1.
    8880022    1    1    2    0    0 -0.65199116927E+03  0.45386785331E+03 -0.20371185390E+04  0.21918786710E+04  0.15294330000E+03 0.  0.
<mgrwt>
<rscale>  0 0.97101888E+03</rscale>
<asrwt>0</asrwt>
<pdfrwt beam="1">  1        1 0.35949090E+00 0.10319393E+04</pdfrwt>
<pdfrwt beam="2">  1       -1 0.19623889E+00 0.10319393E+04</pdfrwt>
<totfact> 0.28390744E-01</totfact>
</mgrwt>
</event>
<event>
 4    1  0.2514307E-008  0.9748255E+03  0.7818608E-02  0.9415261E-01
         -1   -1    0    0    0  501 -0.00000000000E+00  0.00000000000E+00  0.73435114523E+03  0.73435114525E+03  0.50400000000E-02 0.  1.
          1   -1    0    0  501    0  0.00000000000E+00 -0.00000000000E+00 -0.21315264585E+04  0.21315264585E+04  0.50400000000E-02 0. -1.
    8880023    1    1    2    0    0 -0.52609603688E+03 -0.48958903402E+03  0.29713892661E+03  0.10191055933E+04  0.65864270000E+03 0.  1.
    8880022    1    1    2    0    0  0.52609603688E+03  0.48958903402E+03 -0.16943142399E+04  0.18467720105E+04  0.15294330000E+03 0. -1.
<mgrwt>
<rscale>  0 0.90830333E+03</rscale>
<asrwt>0</asrwt>
<pdfrwt beam="1">  1        1 0.32792714E+00 0.97482546E+03</pdfrwt>
<pdfrwt beam="2">  1       -1 0.11297710E+00 0.97482546E+03</pdfrwt>
<totfact> 0.17662522E+00</totfact>
</mgrwt>
</event>
<event>
 4    1  0.2514307E-008  0.1041872E+04  0.7818608E-02  0.9328717E-01
         -1   -1    0    0    0  501 -0.00000000000E+00  0.00000000000E+00  0.14276200144E+04  0.14276200144E+04  0.50400000000E-02 0.  1.
          1   -1    0    0  501    0  0.00000000000E+00 -0.00000000000E+00 -0.14084485301E+04  0.14084485302E+04  0.50400000000E-02 0. -1.
    8880023    1    1    2    0    0  0.69004153190E+03  0.41896166096E+03  0.10757811609E+04  0.14975985782E+04  0.65864270000E+03 0.  0.
    8880022    1    1    2    0    0 -0.69004153190E+03 -0.41896166096E+03 -0.10566096766E+04  0.13384699664E+04  0.15294330000E+03 0.  0.
<mgrwt>
<rscale>  0 0.98181548E+03</rscale>
<asrwt>0</asrwt>
<pdfrwt beam="1">  1        1 0.21668439E+00 0.10418716E+04</pdfrwt>
<pdfrwt beam="2">  1       -1 0.21963385E+00 0.10418716E+04</pdfrwt>
<totfact> 0.83989004E-01</totfact>
</mgrwt>
</event>
<event>
 4    1  0.2514307E-008  0.8168160E+03  0.7818608E-02  0.9675551E-01
          1   -1    0    0  501    0  0.00000000000E+00  0.00000000000E+00  0.16714155674E+04  0.16714155674E+04  0.50400000000E-02 0. -1.
         -1   -1    0    0    0  501 -0.00000000000E+00 -0.00000000000E+00 -0.11024464154E+04  0.11024464155E+04  0.50400000000E-02 0.  1.
    8880023    1    1    2    0    0  0.32937608179E+03  0.35339712489E+03 -0.90270059911E+03  0.12173975148E+04  0.65864270000E+03 0.  0.
    8880022    1    1    2    0    0 -0.32937608179E+03 -0.35339712489E+03  0.14716697511E+04  0.15564644681E+04  0.15294330000E+03 0.  0.
<mgrwt>
<rscale>  0 0.72491345E+03</rscale>
<asrwt>0</asrwt>
<pdfrwt beam="1">  1        1 0.25714086E+00 0.81681598E+03</pdfrwt>
<pdfrwt beam="2">  1       -1 0.16960714E+00 0.81681598E+03</pdfrwt>
<totfact> 0.12828109E+00</totfact>
</mgrwt>
</event>
<event>
 4    1  0.2514307E-008  0.8129469E+03  0.7818608E-02  0.9683471E-01
          1   -1    0    0  501    0  0.00000000000E+00  0.00000000000E+00  0.21253428383E+04  0.21253428383E+04  0.50400000000E-02 0. -1.
         -1   -1    0    0    0  501 -0.00000000000E+00 -0.00000000000E+00 -0.67577585331E+03  0.67577585333E+03  0.50400000000E-02 0.  1.
    8880023    1    1    2    0    0 -0.43483998648E+03  0.19490155736E+03 -0.38500715973E+03  0.89950717074E+03  0.65864270000E+03 0.  1.
    8880022    1    1    2    0    0  0.43483998648E+03 -0.19490155736E+03  0.18345741447E+04  0.19016115209E+04  0.15294330000E+03 0.  0.
<mgrwt>
<rscale>  0 0.72009503E+03</rscale>
<asrwt>0</asrwt>
<pdfrwt beam="1">  1        1 0.32697581E+00 0.81294688E+03</pdfrwt>
<pdfrwt beam="2">  1       -1 0.10396552E+00 0.81294688E+03</pdfrwt>
<totfact> 0.22272906E+00</totfact>
</mgrwt>
</event>
<event>
 4    1  0.2514307E-008  0.6923328E+03  0.7818608E-02  0.1003063E+00
         -1   -1    0    0    0  501 -0.00000000000E+00  0.00000000000E+00  0.23356396443E+03  0.23356396449E+03  0.50400000000E-02 0.  1.
          1   -1    0    0  501    0  0.00000000000E+00 -0.00000000000E+00 -0.19028318544E+04  0.19028318544E+04  0.50400000000E-02 0. -1.
    8880023    1    1    2    0    0  0.17648471813E+03  0.11986515278E+03 -0.32156523863E+03  0.76336683157E+03  0.65864270000E+03 0.  0.
    8880022    1    1    2    0    0 -0.17648471813E+03 -0.11986515278E+03 -0.13477026513E+04  0.13730289873E+04  0.15294330000E+03 0.  0.
<mgrwt>
<rscale>  0 0.54327340E+03</rscale>
<asrwt>0</asrwt>
<pdfrwt beam="1">  1        1 0.29274335E+00 0.69233281E+03</pdfrwt>
<pdfrwt beam="2">  1       -1 0.35932919E-01 0.69233281E+03</pdfrwt>
<totfact> 0.26842180E+01</totfact>
</mgrwt>
</event>
<event>
 4    1  0.2514307E-008  0.7993625E+03  0.7818608E-02  0.9712176E-01
         -1   -1    0    0    0  501 -0.00000000000E+00  0.00000000000E+00  0.27821834553E+03  0.27821834558E+03  0.50400000000E-02 0.  1.
          1   -1    0    0  501    0  0.00000000000E+00 -0.00000000000E+00 -0.26066240625E+04  0.26066240625E+04  0.50400000000E-02 0. -1.
    8880023    1    1    2    0    0  0.39470217934E+03 -0.22221695074E+03 -0.39202485124E+03  0.89031672669E+03  0.65864270000E+03 0.  1.
    8880022    1    1    2    0    0 -0.39470217934E+03  0.22221695074E+03 -0.19363808657E+04  0.19945256814E+04  0.15294330000E+03 0.  0.
<mgrwt>
<rscale>  0 0.70296433E+03</rscale>
<asrwt>0</asrwt>
<pdfrwt beam="1">  1        1 0.40101907E+00 0.79936249E+03</pdfrwt>
<pdfrwt beam="2">  1       -1 0.42802824E-01 0.79936249E+03</pdfrwt>
<totfact> 0.64432945E+00</totfact>
</mgrwt>
</event>
<event>
 4    1  0.2514307E-008  0.7730615E+03  0.7818608E-02  0.9772395E-01
          1   -1    0    0  501    0  0.00000000000E+00  0.00000000000E+00  0.13691819694E+04  0.13691819694E+04  0.50400000000E-02 0. -1.
         -1   -1    0    0    0  501 -0.00000000000E+00 -0.00000000000E+00 -0.73914791089E+03  0.73914791091E+03  0.50400000000E-02 0.  1.
    8880023    1    1    2    0    0 -0.40436836755E+03  0.17324968644E+02 -0.48478570010E+03  0.91249181503E+03  0.65864270000E+03 0.  1.
    8880022    1    1    2    0    0  0.40436836755E+03 -0.17324968644E+02  0.11148197586E+04  0.11958380653E+04  0.15294330000E+03 0.  0.
<mgrwt>
<rscale>  0 0.66865239E+03</rscale>
<asrwt>0</asrwt>
<pdfrwt beam="1">  1        1 0.21064338E+00 0.77306154E+03</pdfrwt>
<pdfrwt beam="2">  1       -1 0.11371506E+00 0.77306154E+03</pdfrwt>
<totfact> 0.58981423E+00</totfact>
</mgrwt>
</event>
<event>
 4    1  0.2514307E-008  0.7053149E+03  0.7818608E-02  0.9975828E-01
          1   -1    0    0  501    0  0.00000000000E+00  0.00000000000E+00  0.29645130772E+03  0.29645130776E+03  0.50400000000E-02 0. -1.
         -1   -1    0    0    0  501 -0.00000000000E+00 -0.00000000000E+00 -0.10045638132E+04  0.10045638132E+04  0.50400000000E-02 0.  1.
    8880023    1    1    2    0    0 -0.22501291637E+03  0.11414077318E+03 -0.71710155281E+03  0.10058348632E+04  0.65864270000E+03 0.  1.
    8880022    1    1    2    0    0  0.22501291637E+03 -0.11414077318E+03  0.89890473041E+01  0.29518025785E+03  0.15294330000E+03 0. -1.
<mgrwt>
<rscale>  0 0.56722944E+03</rscale>
<asrwt>0</asrwt>
<pdfrwt beam="1">  1        1 0.45607894E-01 0.70531492E+03</pdfrwt>
<pdfrwt beam="2">  1       -1 0.15454828E+00 0.70531492E+03</pdfrwt>
<totfact> 0.29431377E+01</totfact>
</mgrwt>
</event>
<event>
 4    1  0.2514307E-008  0.6686623E+03  0.7818608E-02  0.1016640E+00
          1   -1    0    0  501    0  0.00000000000E+00  0.00000000000E+00  0.67330967557E+03  0.67330967559E+03  0.50400000000E-02 0. -1.
         -1   -1    0    0    0  501 -0.00000000000E+00 -0.00000000000E+00 -0.42272706373E+03  0.42272706376E+03  0.50400000000E-02 0.  1.
    8880023    1    1    2    0    0  0.60259521831E+02  0.98325544208E+02 -0.11956059098E+03  0.67926729922E+03  0.65864270000E+03 0.  1.
    8880022    1    1    2    0    0 -0.60259521831E+02 -0.98325544208E+02  0.37014320282E+03  0.41676944013E+03  0.15294330000E+03 0.  0.
<mgrwt>
<rscale>  0 0.48918684E+03</rscale>
<asrwt>0</asrwt>
<pdfrwt beam="1">  1        1 0.10358610E+00 0.66866234E+03</pdfrwt>
<pdfrwt beam="2">  1       -1 0.65034933E-01 0.66866234E+03</pdfrwt>
<totfact> 0.71161845E+01</totfact>
</mgrwt>
</event>
<event>
 4    1  0.2514307E-008  0.8327761E+03  0.7818608E-02  0.9643955E-01
         -1   -1    0    0    0  501 -0.00000000000E+00  0.00000000000E+00  0.68254519396E+03  0.68254519397E+03  0.50400000000E-02 0.  1.
          1   -1    0    0  501    0  0.00000000000E+00 -0.00000000000E+00 -0.18432896293E+04  0.18432896294E+04  0.50400000000E-02 0. -1.
    8880023    1    1    2    0    0 -0.23060736078E+02  0.50909131578E+03  0.36553862885E+03  0.90946932922E+03  0.65864270000E+03 0.  0.
    8880022    1    1    2    0    0  0.23060736078E+02 -0.50909131578E+03 -0.15262830642E+04  0.16163654941E+04  0.15294330000E+03 0.  0.
<mgrwt>
<rscale>  0 0.74454022E+03</rscale>
<asrwt>0</asrwt>
<pdfrwt beam="1">  1        1 0.28358302E+00 0.83277606E+03</pdfrwt>
<pdfrwt beam="2">  1       -1 0.10500695E+00 0.83277606E+03</pdfrwt>
<totfact> 0.33520279E+00</totfact>
</mgrwt>
</event>
<event>
 4    1  0.2514307E-008  0.1810909E+04  0.7818608E-02  0.8716526E-01
         -1   -1    0    0    0  501 -0.00000000000E+00  0.00000000000E+00  0.18618883989E+04  0.18618883989E+04  0.50400000000E-02 0.  1.
          1   -1    0    0  501    0  0.00000000000E+00 -0.00000000000E+00 -0.20030532541E+04  0.20030532541E+04  0.50400000000E-02 0. -1.
    8880023    1    1    2    0    0  0.23586160524E+03  0.16703143561E+04  0.73925271388E+03  0.19559870977E+04  0.65864270000E+03 0. -1.
    8880022    1    1    2    0    0 -0.23586160524E+03 -0.16703143561E+04 -0.88041756909E+03  0.19089545553E+04  0.15294330000E+03 0.  0.
<mgrwt>
<rscale>  0 0.17808947E+04</rscale>
<asrwt>0</asrwt>
<pdfrwt beam="1">  1        1 0.30816204E+00 0.18109089E+04</pdfrwt>
<pdfrwt beam="2">  1       -1 0.28644437E+00 0.18109089E+04</pdfrwt>
<totfact> 0.10910496E-01</totfact>
</mgrwt>
</event>
<event>
 4    1  0.2514307E-008  0.7932469E+03  0.7818608E-02  0.9725592E-01
         -1   -1    0    0    0  501 -0.00000000000E+00  0.00000000000E+00  0.56013581819E+03  0.56013581822E+03  0.50400000000E-02 0.  1.
          1   -1    0    0  501    0  0.00000000000E+00 -0.00000000000E+00 -0.21808455632E+04  0.21808455632E+04  0.50400000000E-02 0. -1.
    8880023    1    1    2    0    0  0.32253631383E+02 -0.44089700851E+03  0.23491710299E+03  0.82730086449E+03  0.65864270000E+03 0.  1.
    8880022    1    1    2    0    0 -0.32253631383E+02  0.44089700851E+03 -0.18556268480E+04  0.19136805170E+04  0.15294330000E+03 0.  0.
<mgrwt>
<rscale>  0 0.69513267E+03</rscale>
<asrwt>0</asrwt>
<pdfrwt beam="1">  1        1 0.33551470E+00 0.79324692E+03</pdfrwt>
<pdfrwt beam="2">  1       -1 0.86174743E-01 0.79324692E+03</pdfrwt>
<totfact> 0.31240912E+00</totfact>
</mgrwt>
</event>
<event>
 4    1  0.2514307E-008  0.7671793E+03  0.7818608E-02  0.9786863E-01
         -1   -1    0    0    0  501 -0.00000000000E+00  0.00000000000E+00  0.34658088856E+03  0.34658088860E+03  0.50400000000E-02 0.  1.
          1   -1    0    0  501    0  0.00000000000E+00 -0.00000000000E+00 -0.21773776840E+04  0.21773776840E+04  0.50400000000E-02 0. -1.
    8880023    1    1    2    0    0 -0.90775254875E+02 -0.38277120015E+03 -0.13819650185E+03  0.77952704761E+03  0.65864270000E+03 0.  1.
    8880022    1    1    2    0    0  0.90775254875E+02  0.38277120015E+03 -0.16926002935E+04  0.17444315250E+04  0.15294330000E+03 0.  0.
<mgrwt>
<rscale>  0 0.66072321E+03</rscale>
<asrwt>0</asrwt>
<pdfrwt beam="1">  1        1 0.33498117E+00 0.76717934E+03</pdfrwt>
<pdfrwt beam="2">  1       -1 0.53320138E-01 0.76717934E+03</pdfrwt>
<totfact> 0.83845080E+00</totfact>
</mgrwt>
</event>
<event>
 4    1  0.2514307E-008  0.1202219E+04  0.7818608E-02  0.9154968E-01
         -1   -1    0    0    0  501 -0.00000000000E+00  0.00000000000E+00  0.26838740855E+04  0.26838740855E+04  0.50400000000E-02 0.  1.
          1   -1    0    0  501    0  0.00000000000E+00 -0.00000000000E+00 -0.57123425351E+03  0.57123425353E+03  0.50400000000E-02 0. -1.
    8880023    1    1    2    0    0 -0.41141424825E+03 -0.91774670525E+03  0.18468129274E+04  0.22036444572E+04  0.65864270000E+03 0.  1.
    8880022    1    1    2    0    0  0.41141424825E+03  0.91774670525E+03  0.26582690463E+03  0.10514638819E+04  0.15294330000E+03 0.  0.
<mgrwt>
<rscale>  0 0.11530567E+04</rscale>
<asrwt>0</asrwt>
<pdfrwt beam="1">  1        1 0.87882194E-01 0.12022192E+04</pdfrwt>
<pdfrwt beam="2">  1       -1 0.41290370E+00 0.12022192E+04</pdfrwt>
<totfact> 0.21372313E-01</totfact>
</mgrwt>
</event>
<event>
 4    1  0.2514307E-008  0.6770234E+03  0.7818608E-02  0.1011060E+00
          1   -1    0    0  501    0  0.00000000000E+00  0.00000000000E+00  0.20169083746E+04  0.20169083746E+04  0.50400000000E-02 0. -1.
         -1   -1    0    0    0  501 -0.00000000000E+00 -0.00000000000E+00 -0.35718836189E+03  0.35718836192E+03  0.50400000000E-02 0.  1.
    8880023    1    1    2    0    0 -0.81111013834E+02  0.13405782627E+03 -0.22782630218E+02  0.67740663700E+03  0.65864270000E+03 0.  1.
    8880022    1    1    2    0    0  0.81111013834E+02 -0.13405782627E+03  0.16825026429E+04  0.16966900995E+04  0.15294330000E+03 0.  0.
<mgrwt>
<rscale>  0 0.51055491E+03</rscale>
<asrwt>0</asrwt>
<pdfrwt beam="1">  1        1 0.31029360E+00 0.67702341E+03</pdfrwt>
<pdfrwt beam="2">  1       -1 0.54952055E-01 0.67702341E+03</pdfrwt>
<totfact> 0.10284224E+01</totfact>
</mgrwt>
</event>
<event>
 4    1  0.2514307E-008  0.6714039E+03  0.7818608E-02  0.1014676E+00
         -1   -1    0    0    0  501 -0.00000000000E+00  0.00000000000E+00  0.11599113452E+04  0.11599113453E+04  0.50400000000E-02 0.  1.
          1   -1    0    0  501    0  0.00000000000E+00 -0.00000000000E+00 -0.60970457083E+03  0.60970457085E+03  0.50400000000E-02 0. -1.
    8880023    1    1    2    0    0 -0.85349477033E+02  0.98430280505E+02  0.10413158549E+04  0.12390003912E+04  0.65864270000E+03 0.  1.
    8880022    1    1    2    0    0  0.85349477033E+02 -0.98430280505E+02 -0.49110908050E+03  0.53061552495E+03  0.15294330000E+03 0.  0.
<mgrwt>
<rscale>  0 0.49657876E+03</rscale>
<asrwt>0</asrwt>
<pdfrwt beam="1">  1        1 0.93800703E-01 0.67140395E+03</pdfrwt>
<pdfrwt beam="2">  1       -1 0.17844790E+00 0.67140395E+03</pdfrwt>
<totfact> 0.74634320E+00</totfact>
</mgrwt>
</event>
<event>
 4    1  0.2514307E-008  0.1016335E+04  0.7818608E-02  0.9360492E-01
         -1   -1    0    0    0  501 -0.00000000000E+00  0.00000000000E+00  0.33825393618E+03  0.33825393622E+03  0.50400000000E-02 0.  1.
          1   -1    0    0  501    0  0.00000000000E+00 -0.00000000000E+00 -0.42554666449E+04  0.42554666449E+04  0.50400000000E-02 0. -1.
    8880023    1    1    2    0    0  0.69704774079E+03 -0.33652822818E+03 -0.59199348386E+03  0.11761774069E+04  0.65864270000E+03 0.  0.
    8880022    1    1    2    0    0 -0.69704774079E+03  0.33652822818E+03 -0.33252192249E+04  0.34175431743E+04  0.15294330000E+03 0.  0.
<mgrwt>
<rscale>  0 0.95399636E+03</rscale>
<asrwt>0</asrwt>
<pdfrwt beam="1">  1        1 0.65468714E+00 0.10163351E+04</pdfrwt>
<pdfrwt beam="2">  1       -1 0.52039070E-01 0.10163351E+04</pdfrwt>
<totfact> 0.22109685E-01</totfact>
</mgrwt>
</event>
<event>
 4    1  0.2514307E-008  0.8543592E+03  0.7818608E-02  0.9603677E-01
          1   -1    0    0  501    0  0.00000000000E+00  0.00000000000E+00  0.33827445594E+04  0.33827445594E+04  0.50400000000E-02 0. -1.
         -1   -1    0    0    0  501 -0.00000000000E+00 -0.00000000000E+00 -0.60850324302E+03  0.60850324304E+03  0.50400000000E-02 0.  1.
    8880023    1    1    2    0    0 -0.31787904394E+02 -0.54323927093E+03 -0.26919450694E+03  0.89576518417E+03  0.65864270000E+03 0.  1.
    8880022    1    1    2    0    0  0.31787904394E+02  0.54323927093E+03  0.30434358233E+04  0.30954826182E+04  0.15294330000E+03 0.  0.
<mgrwt>
<rscale>  0 0.77053273E+03</rscale>
<asrwt>0</asrwt>
<pdfrwt beam="1">  1        1 0.52042225E+00 0.85435916E+03</pdfrwt>
<pdfrwt beam="2">  1       -1 0.93615883E-01 0.85435916E+03</pdfrwt>
<totfact> 0.36446114E-01</totfact>
</mgrwt>
</event>
<event>
 4    1  0.2514307E-008  0.1390988E+04  0.7818608E-02  0.8990717E-01
         -1   -1    0    0    0  501 -0.00000000000E+00  0.00000000000E+00  0.79740284030E+03  0.79740284032E+03  0.50400000000E-02 0.  1.
          1   -1    0    0  501    0  0.00000000000E+00 -0.00000000000E+00 -0.26481542728E+04  0.26481542728E+04  0.50400000000E-02 0. -1.
    8880023    1    1    2    0    0 -0.11092389209E+04  0.52021681478E+03 -0.23282446051E+03  0.14103382409E+04  0.65864270000E+03 0. -1.
    8880022    1    1    2    0    0  0.11092389209E+04 -0.52021681478E+03 -0.16179269720E+04  0.20352188722E+04  0.15294330000E+03 0.  0.
<mgrwt>
<rscale>  0 0.13501463E+04</rscale>
<asrwt>0</asrwt>
<pdfrwt beam="1">  1        1 0.40740835E+00 0.13909877E+04</pdfrwt>
<pdfrwt beam="2">  1       -1 0.12267736E+00 0.13909877E+04</pdfrwt>
<totfact> 0.60455414E-01</totfact>
</mgrwt>
</event>
<event>
 4    1  0.2514307E-008  0.6929342E+03  0.7818608E-02  0.1002788E+00
         -1   -1    0    0    0  501 -0.00000000000E+00  0.00000000000E+00  0.25916387620E+03  0.25916387625E+03  0.50400000000E-02 0.  1.
          1   -1    0    0  501    0  0.00000000000E+00 -0.00000000000E+00 -0.14252193156E+04  0.14252193156E+04  0.50400000000E-02 0. -1.
    8880023    1    1    2    0    0 -0.21192182415E+03 -0.37905003845E+02 -0.25914598939E+03  0.73980706873E+03  0.65864270000E+03 0.  1.
    8880022    1    1    2    0    0  0.21192182415E+03  0.37905003845E+02 -0.90690945003E+03  0.94457612316E+03  0.15294330000E+03 0.  0.
<mgrwt>
<rscale>  0 0.54444462E+03</rscale>
<asrwt>0</asrwt>
<pdfrwt beam="1">  1        1 0.21926451E+00 0.69293424E+03</pdfrwt>
<pdfrwt beam="2">  1       -1 0.39871366E-01 0.69293424E+03</pdfrwt>
<totfact> 0.46755916E+01</totfact>
</mgrwt>
</event>
<event>
 4    1  0.2514307E-008  0.7143997E+03  0.7818608E-02  0.9942012E-01
          1   -1    0    0  501    0  0.00000000000E+00  0.00000000000E+00  0.48892314696E+03  0.48892314699E+03  0.50400000000E-02 0. -1.
         -1   -1    0    0    0  501 -0.00000000000E+00 -0.00000000000E+00 -0.10478826048E+04  0.10478826048E+04  0.50400000000E-02 0.  1.
    8880023    1    1    2    0    0  0.11282508548E+03 -0.25264038330E+03 -0.84774303190E+03  0.11086185627E+04  0.65864270000E+03 0.  1.
    8880022    1    1    2    0    0 -0.11282508548E+03  0.25264038330E+03  0.28878357409E+03  0.42818718905E+03  0.15294330000E+03 0.  0.
<mgrwt>
<rscale>  0 0.58267698E+03</rscale>
<asrwt>0</asrwt>
<pdfrwt beam="1">  1        1 0.75218946E-01 0.71439966E+03</pdfrwt>
<pdfrwt beam="2">  1       -1 0.16121271E+00 0.71439966E+03</pdfrwt>
<totfact> 0.13510564E+01</totfact>
</mgrwt>
</event>
<event>
 4    1  0.2514307E-008  0.1029019E+04  0.7818608E-02  0.9344539E-01
          1   -1    0    0  501    0  0.00000000000E+00  0.00000000000E+00  0.18221407135E+04  0.18221407135E+04  0.50400000000E-02 0. -1.
         -1   -1    0    0    0  501 -0.00000000000E+00 -0.00000000000E+00 -0.12481255057E+04  0.12481255057E+04  0.50400000000E-02 0.  1.
    8880023    1    1    2    0    0  0.42742119179E+03  0.66511758151E+03 -0.91529666802E+03  0.13771886106E+04  0.65864270000E+03 0.  1.
    8880022    1    1    2    0    0 -0.42742119179E+03 -0.66511758151E+03  0.14893118758E+04  0.16930776086E+04  0.15294330000E+03 0.  0.
<mgrwt>
<rscale>  0 0.96783910E+03</rscale>
<asrwt>0</asrwt>
<pdfrwt beam="1">  1        1 0.28032934E+00 0.10290192E+04</pdfrwt>
<pdfrwt beam="2">  1       -1 0.19201931E+00 0.10290192E+04</pdfrwt>
<totfact> 0.67667335E-01</totfact>
</mgrwt>
</event>
<event>
 4    1  0.2514307E-008  0.7802305E+03  0.7818608E-02  0.9755296E-01
         -1   -1    0    0    0  501 -0.00000000000E+00  0.00000000000E+00  0.51196159633E+03  0.51196159635E+03  0.50400000000E-02 0.  1.
          1   -1    0    0  501    0  0.00000000000E+00 -0.00000000000E+00 -0.10379983937E+04  0.10379983937E+04  0.50400000000E-02 0. -1.
    8880023    1    1    2    0    0 -0.41800171282E+03  0.14966451839E+02  0.94732253109E+02  0.78596045234E+03  0.65864270000E+03 0.  1.
    8880022    1    1    2    0    0  0.41800171282E+03 -0.14966451839E+02 -0.62076905047E+03  0.76399953772E+03  0.15294330000E+03 0.  0.
<mgrwt>
<rscale>  0 0.67817812E+03</rscale>
<asrwt>0</asrwt>
<pdfrwt beam="1">  1        1 0.15969206E+00 0.78023050E+03</pdfrwt>
<pdfrwt beam="2">  1       -1 0.78763323E-01 0.78023050E+03</pdfrwt>
<totfact> 0.23367552E+01</totfact>
</mgrwt>
</event>
<event>
 4    1  0.2514307E-008  0.7455869E+03  0.7818608E-02  0.9843962E-01
          1   -1    0    0  501    0  0.00000000000E+00  0.00000000000E+00  0.65454008680E+03  0.65454008682E+03  0.50400000000E-02 0. -1.
         -1   -1    0    0    0  501 -0.00000000000E+00 -0.00000000000E+00 -0.89133562857E+03  0.89133562858E+03  0.50400000000E-02 0.  1.
    8880023    1    1    2    0    0  0.73630332527E+02  0.34156721980E+03 -0.64596946108E+03  0.98649700579E+03  0.65864270000E+03 0.  1.
    8880022    1    1    2    0    0 -0.73630332527E+02 -0.34156721980E+03  0.40917391932E+03  0.55937870962E+03  0.15294330000E+03 0.  0.
<mgrwt>
<rscale>  0 0.63055732E+03</rscale>
<asrwt>0</asrwt>
<pdfrwt beam="1">  1        1 0.10069847E+00 0.74558688E+03</pdfrwt>
<pdfrwt beam="2">  1       -1 0.13712856E+00 0.74558688E+03</pdfrwt>
<totfact> 0.13726078E+01</totfact>
</mgrwt>
</event>
<event>
 4    1  0.2514307E-008  0.1003623E+04  0.7818608E-02  0.9376833E-01
         -1   -1    0    0    0  501 -0.00000000000E+00  0.00000000000E+00  0.12905041282E+04  0.12905041282E+04  0.50400000000E-02 0.  1.
          1   -1    0    0  501    0  0.00000000000E+00 -0.00000000000E+00 -0.18008173147E+04  0.18008173147E+04  0.50400000000E-02 0. -1.
    8880023    1    1    2    0    0  0.10605561745E+03  0.74980110577E+03  0.98625698292E+03  0.14071114152E+04  0.65864270000E+03 0.  1.
    8880022    1    1    2    0    0 -0.10605561745E+03 -0.74980110577E+03 -0.14965701695E+04  0.16842100277E+04  0.15294330000E+03 0.  0.
<mgrwt>
<rscale>  0 0.94007043E+03</rscale>
<asrwt>0</asrwt>
<pdfrwt beam="1">  1        1 0.27704882E+00 0.10036233E+04</pdfrwt>
<pdfrwt beam="2">  1       -1 0.19853910E+00 0.10036233E+04</pdfrwt>
<totfact> 0.63280827E-01</totfact>
</mgrwt>
</event>
<event>
 4    1  0.2514307E-008  0.1015051E+04  0.7818608E-02  0.9362126E-01
         -1   -1    0    0    0  501 -0.00000000000E+00  0.00000000000E+00  0.11922932235E+04  0.11922932235E+04  0.50400000000E-02 0.  1.
          1   -1    0    0  501    0  0.00000000000E+00 -0.00000000000E+00 -0.10464400824E+04  0.10464400824E+04  0.50400000000E-02 0. -1.
    8880023    1    1    2    0    0 -0.42075541424E+03  0.64767457248E+03  0.73681448416E+03  0.12542819702E+04  0.65864270000E+03 0.  1.
    8880022    1    1    2    0    0  0.42075541424E+03 -0.64767457248E+03 -0.59096134303E+03  0.98445133573E+03  0.15294330000E+03 0.  0.
<mgrwt>
<rscale>  0 0.95259164E+03</rscale>
<asrwt>0</asrwt>
<pdfrwt beam="1">  1        1 0.16099078E+00 0.10150506E+04</pdfrwt>
<pdfrwt beam="2">  1       -1 0.18342973E+00 0.10150506E+04</pdfrwt>
<totfact> 0.27436819E+00</totfact>
</mgrwt>
</event>
<event>
 4    1  0.2514307E-008  0.9186862E+03  0.7818608E-02  0.9496676E-01
         -1   -1    0    0    0  501 -0.00000000000E+00  0.00000000000E+00  0.68947852652E+03  0.68947852653E+03  0.50400000000E-02 0.  1.
          1   -1    0    0  501    0  0.00000000000E+00 -0.00000000000E+00 -0.21216504366E+04  0.21216504366E+04  0.50400000000E-02 0. -1.
    8880023    1    1    2    0    0  0.40152783289E+03  0.49894840969E+03  0.29323444205E+03  0.96434991595E+03  0.65864270000E+03 0.  0.
    8880022    1    1    2    0    0 -0.40152783289E+03 -0.49894840969E+03 -0.17254063521E+04  0.18467790472E+04  0.15294330000E+03 0.  0.
<mgrwt>
<rscale>  0 0.84529299E+03</rscale>
<asrwt>0</asrwt>
<pdfrwt beam="1">  1        1 0.32640776E+00 0.91868619E+03</pdfrwt>
<pdfrwt beam="2">  1       -1 0.10607362E+00 0.91868619E+03</pdfrwt>
<totfact> 0.20999080E+00</totfact>
</mgrwt>
</event>
<event>
 4    1  0.2514307E-008  0.6666594E+03  0.7818608E-02  0.1018180E+00
          1   -1    0    0  501    0  0.00000000000E+00  0.00000000000E+00  0.15509662595E+04  0.15509662595E+04  0.50400000000E-02 0. -1.
         -1   -1    0    0    0  501 -0.00000000000E+00 -0.00000000000E+00 -0.39854111244E+03  0.39854111247E+03  0.50400000000E-02 0.  1.
    8880023    1    1    2    0    0 -0.48051651695E+02 -0.91190124461E+02 -0.10826867101E+03  0.67539389353E+03  0.65864270000E+03 0.  1.
    8880022    1    1    2    0    0  0.48051651695E+02  0.91190124461E+02  0.12606938181E+04  0.12741134784E+04  0.15294330000E+03 0.  0.
<mgrwt>
<rscale>  0 0.48349149E+03</rscale>
<asrwt>0</asrwt>
<pdfrwt beam="1">  1        1 0.23861019E+00 0.66665944E+03</pdfrwt>
<pdfrwt beam="2">  1       -1 0.61314018E-01 0.66665944E+03</pdfrwt>
<totfact> 0.17067991E+01</totfact>
</mgrwt>
</event>
<event>
 4    1  0.2514307E-008  0.8150612E+03  0.7818608E-02  0.9679129E-01
          1   -1    0    0  501    0  0.00000000000E+00  0.00000000000E+00  0.20871489908E+04  0.20871489908E+04  0.50400000000E-02 0. -1.
         -1   -1    0    0    0  501 -0.00000000000E+00 -0.00000000000E+00 -0.48629195339E+03  0.48629195342E+03  0.50400000000E-02 0.  1.
    8880023    1    1    2    0    0 -0.44960633039E+03  0.16843012590E+03 -0.79717586740E+02  0.81895034009E+03  0.65864270000E+03 0.  0.
    8880022    1    1    2    0    0  0.44960633039E+03 -0.16843012590E+03  0.16805746242E+04  0.17544906042E+04  0.15294330000E+03 0.  0.
<mgrwt>
<rscale>  0 0.72273125E+03</rscale>
<asrwt>0</asrwt>
<pdfrwt beam="1">  1        1 0.32109985E+00 0.81506120E+03</pdfrwt>
<pdfrwt beam="2">  1       -1 0.74814146E-01 0.81506120E+03</pdfrwt>
<totfact> 0.48602300E+00</totfact>
</mgrwt>
</event>
<event>
 4    1  0.2514307E-008  0.7492508E+03  0.7818608E-02  0.9833776E-01
          1   -1    0    0  501    0  0.00000000000E+00  0.00000000000E+00  0.24986221532E+04  0.24986221532E+04  0.50400000000E-02 0. -1.
         -1   -1    0    0    0  501 -0.00000000000E+00 -0.00000000000E+00 -0.20537595863E+03  0.20537595869E+03  0.50400000000E-02 0.  1.
    8880023    1    1    2    0    0  0.40133785540E+02  0.35490251675E+03  0.58072405700E+03  0.94795419392E+03  0.65864270000E+03 0.  1.
    8880022    1    1    2    0    0 -0.40133785540E+02 -0.35490251675E+03  0.17125221375E+04  0.17560439179E+04  0.15294330000E+03 0.  0.
<mgrwt>
<rscale>  0 0.63581018E+03</rscale>
<asrwt>0</asrwt>
<pdfrwt beam="1">  1        1 0.38440340E+00 0.74925077E+03</pdfrwt>
<pdfrwt beam="2">  1       -1 0.31596302E-01 0.74925077E+03</pdfrwt>
<totfact> 0.13290703E+01</totfact>
</mgrwt>
</event>
<event>
 4    1  0.2514307E-008  0.1422433E+04  0.7818608E-02  0.8966445E-01
         -1   -1    0    0    0  501 -0.00000000000E+00  0.00000000000E+00  0.17093586669E+04  0.17093586669E+04  0.50400000000E-02 0.  1.
          1   -1    0    0  501    0  0.00000000000E+00 -0.00000000000E+00 -0.11769828593E+04  0.11769828593E+04  0.50400000000E-02 0. -1.
    8880023    1    1    2    0    0  0.98525367545E+03  0.78662594281E+03 -0.17413258830E+03  0.14330518286E+04  0.65864270000E+03 0.  0.
    8880022    1    1    2    0    0 -0.98525367545E+03 -0.78662594281E+03  0.70650839588E+03  0.14532896977E+04  0.15294330000E+03 0.  0.
<mgrwt>
<rscale>  0 0.13826895E+04</rscale>
<asrwt>0</asrwt>
<pdfrwt beam="1">  1        1 0.18107429E+00 0.14224329E+04</pdfrwt>
<pdfrwt beam="2">  1       -1 0.26297826E+00 0.14224329E+04</pdfrwt>
<totfact> 0.60994494E-01</totfact>
</mgrwt>
</event>
<event>
 4    1  0.2514307E-008  0.1011276E+04  0.7818608E-02  0.9366952E-01
          1   -1    0    0  501    0  0.00000000000E+00  0.00000000000E+00  0.23070355383E+04  0.23070355383E+04  0.50400000000E-02 0. -1.
         -1   -1    0    0    0  501 -0.00000000000E+00 -0.00000000000E+00 -0.65194773443E+03  0.65194773445E+03  0.50400000000E-02 0.  1.
    8880023    1    1    2    0    0  0.70451141824E+03 -0.30419033834E+03 -0.12069379828E+03  0.10184524042E+04  0.65864270000E+03 0.  0.
    8880022    1    1    2    0    0 -0.70451141824E+03  0.30419033834E+03  0.17757816021E+04  0.19405308685E+04  0.15294330000E+03 0.  0.
<mgrwt>
<rscale>  0 0.94846019E+03</rscale>
<asrwt>0</asrwt>
<pdfrwt beam="1">  1        1 0.35492855E+00 0.10112756E+04</pdfrwt>
<pdfrwt beam="2">  1       -1 0.10029965E+00 0.10112756E+04</pdfrwt>
<totfact> 0.17663692E+00</totfact>
</mgrwt>
</event>
<event>
 4    1  0.2514307E-008  0.8724737E+03  0.7818608E-02  0.9571749E-01
          1   -1    0    0  501    0  0.00000000000E+00  0.00000000000E+00  0.12997796685E+04  0.12997796685E+04  0.50400000000E-02 0. -1.
         -1   -1    0    0    0  501 -0.00000000000E+00 -0.00000000000E+00 -0.69835577719E+03  0.69835577720E+03  0.50400000000E-02 0.  1.
    8880023    1    1    2    0    0 -0.39781962267E+03  0.41126596404E+03 -0.29735573298E+03  0.92175418825E+03  0.65864270000E+03 0.  1.
    8880022    1    1    2    0    0  0.39781962267E+03 -0.41126596404E+03  0.89877962428E+03  0.10763812575E+04  0.15294330000E+03 0.  0.
<mgrwt>
<rscale>  0 0.79194576E+03</rscale>
<asrwt>0</asrwt>
<pdfrwt beam="1">  1        1 0.19996610E+00 0.87247370E+03</pdfrwt>
<pdfrwt beam="2">  1       -1 0.10743935E+00 0.87247370E+03</pdfrwt>
<totfact> 0.74431151E+00</totfact>
</mgrwt>
</event>
<event>
 4    1  0.2514307E-008  0.9097259E+03  0.7818608E-02  0.9510595E-01
         -1   -1    0    0    0  501 -0.00000000000E+00  0.00000000000E+00  0.99697787847E+03  0.99697787848E+03  0.50400000000E-02 0.  1.
          1   -1    0    0  501    0  0.00000000000E+00 -0.00000000000E+00 -0.10313551999E+04  0.10313551999E+04  0.50400000000E-02 0. -1.
    8880023    1    1    2    0    0  0.62736056018E+03 -0.14481540663E+02  0.62623530803E+03  0.11044328204E+04  0.65864270000E+03 0.  0.
    8880022    1    1    2    0    0 -0.62736056018E+03  0.14481540663E+02 -0.66061262942E+03  0.92390025796E+03  0.15294330000E+03 0.  0.
<mgrwt>
<rscale>  0 0.83507156E+03</rscale>
<asrwt>0</asrwt>
<pdfrwt beam="1">  1        1 0.15867003E+00 0.90972589E+03</pdfrwt>
<pdfrwt beam="2">  1       -1 0.15338121E+00 0.90972589E+03</pdfrwt>
<totfact> 0.47628247E+00</totfact>
</mgrwt>
</event>
<event>
 4    1  0.2514307E-008  0.9496336E+03  0.7818608E-02  0.9450641E-01
         -1   -1    0    0    0  501 -0.00000000000E+00  0.00000000000E+00  0.42823960938E+03  0.42823960941E+03  0.50400000000E-02 0.  1.
          1   -1    0    0  501    0  0.00000000000E+00 -0.00000000000E+00 -0.17968798836E+04  0.17968798836E+04  0.50400000000E-02 0. -1.
    8880023    1    1    2    0    0 -0.67644946973E+03 -0.10202854573E+03 -0.40237428405E+03  0.10313626811E+04  0.65864270000E+03 0.  1.
    8880022    1    1    2    0    0  0.67644946973E+03  0.10202854573E+03 -0.96626599021E+03  0.11937568120E+04  0.15294330000E+03 0.  0.
<mgrwt>
<rscale>  0 0.88022727E+03</rscale>
<asrwt>0</asrwt>
<pdfrwt beam="1">  1        1 0.27644306E+00 0.94963357E+03</pdfrwt>
<pdfrwt beam="2">  1       -1 0.65883018E-01 0.94963357E+03</pdfrwt>
<totfact> 0.97018229E+00</totfact>
</mgrwt>
</event>
<event>
 4    1  0.2514307E-008  0.8430708E+03  0.7818608E-02  0.9624417E-01
          1   -1    0    0  501    0  0.00000000000E+00  0.00000000000E+00  0.11641025824E+04  0.11641025824E+04  0.50400000000E-02 0. -1.
         -1   -1    0    0    0  501 -0.00000000000E+00 -0.00000000000E+00 -0.10719669224E+04  0.10719669224E+04  0.50400000000E-02 0.  1.
    8880023    1    1    2    0    0 -0.18781257093E+03  0.49161422863E+03 -0.81734309231E+03  0.11742308327E+04  0.65864270000E+03 0.  0.
    8880022    1    1    2    0    0  0.18781257093E+03 -0.49161422863E+03  0.90947875233E+03  0.10618386721E+04  0.15294330000E+03 0.  0.
<mgrwt>
<rscale>  0 0.75700968E+03</rscale>
<asrwt>0</asrwt>
<pdfrwt beam="1">  1        1 0.17909271E+00 0.84307077E+03</pdfrwt>
<pdfrwt beam="2">  1       -1 0.16491799E+00 0.84307077E+03</pdfrwt>
<totfact> 0.31249914E+00</totfact>
</mgrwt>
</event>
<event>
 4    1  0.2514307E-008  0.7795264E+03  0.7818608E-02  0.9756951E-01
          1   -1    0    0  501    0  0.00000000000E+00  0.00000000000E+00  0.27412777871E+03  0.27412777875E+03  0.50400000000E-02 0. -1.
         -1   -1    0    0    0  501 -0.00000000000E+00 -0.00000000000E+00 -0.24033285123E+04  0.24033285123E+04  0.50400000000E-02 0.  1.
    8880023    1    1    2    0    0 -0.32716334752E+03  0.25848653714E+03 -0.20911382504E+04  0.22317079859E+04  0.65864270000E+03 0.  1.
    8880022    1    1    2    0    0  0.32716334752E+03 -0.25848653714E+03 -0.38062483127E+02  0.44574830508E+03  0.15294330000E+03 0.  0.
<mgrwt>
<rscale>  0 0.67724881E+03</rscale>
<asrwt>0</asrwt>
<pdfrwt beam="1">  1        1 0.42173506E-01 0.77952636E+03</pdfrwt>
<pdfrwt beam="2">  1       -1 0.36974283E+00 0.77952636E+03</pdfrwt>
<totfact> 0.11962220E+00</totfact>
</mgrwt>
</event>
<event>
 4    1  0.2514307E-008  0.1292417E+04  0.7818608E-02  0.9072136E-01
         -1   -1    0    0    0  501 -0.00000000000E+00  0.00000000000E+00  0.14194462166E+04  0.14194462166E+04  0.50400000000E-02 0.  1.
          1   -1    0    0  501    0  0.00000000000E+00 -0.00000000000E+00 -0.18027237068E+04  0.18027237068E+04  0.50400000000E-02 0. -1.
    8880023    1    1    2    0    0  0.12157552113E+03  0.11053278956E+04  0.85595366345E+03  0.15501603931E+04  0.65864270000E+03 0.  0.
    8880022    1    1    2    0    0 -0.12157552113E+03 -0.11053278956E+04 -0.12392311537E+04  0.16720095303E+04  0.15294330000E+03 0.  0.
<mgrwt>
<rscale>  0 0.12476560E+04</rscale>
<asrwt>0</asrwt>
<pdfrwt beam="1">  1        1 0.27734211E+00 0.12924166E+04</pdfrwt>
<pdfrwt beam="2">  1       -1 0.21837634E+00 0.12924166E+04</pdfrwt>
<totfact> 0.44345471E-01</totfact>
</mgrwt>
</event>
<event>
 4    1  0.2514307E-008  0.1024955E+04  0.7818608E-02  0.9349613E-01
         -1   -1    0    0    0  501 -0.00000000000E+00  0.00000000000E+00  0.97210131087E+03  0.97210131088E+03  0.50400000000E-02 0.  1.
          1   -1    0    0  501    0  0.00000000000E+00 -0.00000000000E+00 -0.11837686085E+04  0.11837686085E+04  0.50400000000E-02 0. -1.
    8880023    1    1    2    0    0  0.76464140063E+03 -0.17901530479E+03  0.44831619504E+03  0.11187138007E+04  0.65864270000E+03 0.  0.
    8880022    1    1    2    0    0 -0.76464140063E+03  0.17901530479E+03 -0.65998349265E+03  0.10371561187E+04  0.15294330000E+03 0.  0.
<mgrwt>
<rscale>  0 0.96340940E+03</rscale>
<asrwt>0</asrwt>
<pdfrwt beam="1">  1        1 0.18211825E+00 0.10249552E+04</pdfrwt>
<pdfrwt beam="2">  1       -1 0.14955405E+00 0.10249552E+04</pdfrwt>
<totfact> 0.38639810E+00</totfact>
</mgrwt>
</event>
<event>
 4    1  0.2514307E-008  0.6707342E+03  0.7818608E-02  0.1015142E+00
         -1   -1    0    0    0  501 -0.00000000000E+00  0.00000000000E+00  0.11309024422E+04  0.11309024422E+04  0.50400000000E-02 0.  1.
          1   -1    0    0  501    0  0.00000000000E+00 -0.00000000000E+00 -0.42732140066E+03  0.42732140069E+03  0.50400000000E-02 0. -1.
    8880023    1    1    2    0    0  0.70141205104E+02  0.10561416173E+03  0.99836117105E+03  0.12027507530E+04  0.65864270000E+03 0.  1.
    8880022    1    1    2    0    0 -0.70141205104E+02 -0.10561416173E+03 -0.29478012954E+03  0.35547308984E+03  0.15294330000E+03 0.  0.
<mgrwt>
<rscale>  0 0.49481224E+03</rscale>
<asrwt>0</asrwt>
<pdfrwt beam="1">  1        1 0.65741754E-01 0.67073418E+03</pdfrwt>
<pdfrwt beam="2">  1       -1 0.17398499E+00 0.67073418E+03</pdfrwt>
<totfact> 0.13125641E+01</totfact>
</mgrwt>
</event>
<event>
 4    1  0.2514307E-008  0.1152334E+04  0.7818608E-02  0.9204910E-01
         -1   -1    0    0    0  501 -0.00000000000E+00  0.00000000000E+00  0.12209452190E+04  0.12209452190E+04  0.50400000000E-02 0.  1.
          1   -1    0    0  501    0  0.00000000000E+00 -0.00000000000E+00 -0.13143418032E+04  0.13143418032E+04  0.50400000000E-02 0. -1.
    8880023    1    1    2    0    0 -0.29872404997E+03  0.89712226448E+03  0.64981456909E+03  0.13229261491E+04  0.65864270000E+03 0.  1.
    8880022    1    1    2    0    0  0.29872404997E+03 -0.89712226448E+03 -0.74321115323E+03  0.12123608732E+04  0.15294330000E+03 0.  0.
<mgrwt>
<rscale>  0 0.11002897E+04</rscale>
<asrwt>0</asrwt>
<pdfrwt beam="1">  1        1 0.20220643E+00 0.11523344E+04</pdfrwt>
<pdfrwt beam="2">  1       -1 0.18783773E+00 0.11523344E+04</pdfrwt>
<totfact> 0.15933623E+00</totfact>
</mgrwt>
</event>
<event>
 4    1  0.2514307E-008  0.7833591E+03  0.7818608E-02  0.9748005E-01
          1   -1    0    0  501    0  0.00000000000E+00  0.00000000000E+00  0.90504406305E+03  0.90504406307E+03  0.50400000000E-02 0. -1.
         -1   -1    0    0    0  501 -0.00000000000E+00 -0.00000000000E+00 -0.70128685742E+03  0.70128685743E+03  0.50400000000E-02 0.  1.
    8880023    1    1    2    0    0 -0.14870978754E+03 -0.39714821427E+03 -0.37845300385E+03  0.86998746392E+03  0.65864270000E+03 0.  1.
    8880022    1    1    2    0    0  0.14870978754E+03  0.39714821427E+03  0.58221020948E+03  0.73634345658E+03  0.15294330000E+03 0.  0.
<mgrwt>
<rscale>  0 0.68229148E+03</rscale>
<asrwt>0</asrwt>
<pdfrwt beam="1">  1        1 0.13923755E+00 0.78335912E+03</pdfrwt>
<pdfrwt beam="2">  1       -1 0.10789029E+00 0.78335912E+03</pdfrwt>
<totfact> 0.14767864E+01</totfact>
</mgrwt>
</event>
<event>
 4    1  0.2514307E-008  0.1188806E+04  0.7818608E-02  0.9168081E-01
         -1   -1    0    0    0  501 -0.00000000000E+00  0.00000000000E+00  0.16621197311E+04  0.16621197311E+04  0.50400000000E-02 0.  1.
          1   -1    0    0  501    0  0.00000000000E+00 -0.00000000000E+00 -0.11719631681E+04  0.11719631681E+04  0.50400000000E-02 0. -1.
    8880023    1    1    2    0    0  0.49064639582E+03  0.85948521997E+03  0.11345024452E+04  0.16432756109E+04  0.65864270000E+03 0.  1.
    8880022    1    1    2    0    0 -0.49064639582E+03 -0.85948521997E+03 -0.64434588208E+03  0.11908072883E+04  0.15294330000E+03 0.  0.
<mgrwt>
<rscale>  0 0.11389040E+04</rscale>
<asrwt>0</asrwt>
<pdfrwt beam="1">  1        1 0.18030203E+00 0.11888057E+04</pdfrwt>
<pdfrwt beam="2">  1       -1 0.25571073E+00 0.11888057E+04</pdfrwt>
<totfact> 0.70483140E-01</totfact>
</mgrwt>
</event>
<event>
 4    1  0.2514307E-008  0.1510114E+04  0.7818608E-02  0.8902527E-01
         -1   -1    0    0    0  501 -0.00000000000E+00  0.00000000000E+00  0.78559916656E+03  0.78559916657E+03  0.50400000000E-02 0.  1.
          1   -1    0    0  501    0  0.00000000000E+00 -0.00000000000E+00 -0.27134913175E+04  0.27134913175E+04  0.50400000000E-02 0. -1.
    8880023    1    1    2    0    0 -0.78575189955E+03 -0.11087052575E+04 -0.71336928149E+03  0.16701315318E+04  0.65864270000E+03 0.  0.
    8880022    1    1    2    0    0  0.78575189955E+03  0.11087052575E+04 -0.12145228695E+04  0.18289589523E+04  0.15294330000E+03 0.  0.
<mgrwt>
<rscale>  0 0.14731202E+04</rscale>
<asrwt>0</asrwt>
<pdfrwt beam="1">  1        1 0.41746020E+00 0.15101138E+04</pdfrwt>
<pdfrwt beam="2">  1       -1 0.12086141E+00 0.15101138E+04</pdfrwt>
<totfact> 0.55670089E-01</totfact>
</mgrwt>
</event>
<event>
 4    1  0.2514307E-008  0.7132795E+03  0.7818608E-02  0.9946019E-01
          1   -1    0    0  501    0  0.00000000000E+00  0.00000000000E+00  0.12208296717E+04  0.12208296717E+04  0.50400000000E-02 0. -1.
         -1   -1    0    0    0  501 -0.00000000000E+00 -0.00000000000E+00 -0.46570837967E+03  0.46570837970E+03  0.50400000000E-02 0.  1.
    8880023    1    1    2    0    0  0.17733956582E+03  0.20858606934E+03 -0.14977909145E+03  0.72883568273E+03  0.65864270000E+03 0.  1.
    8880022    1    1    2    0    0 -0.17733956582E+03 -0.20858606934E+03  0.90490038347E+03  0.95770236866E+03  0.15294330000E+03 0.  0.
<mgrwt>
<rscale>  0 0.58081942E+03</rscale>
<asrwt>0</asrwt>
<pdfrwt beam="1">  1        1 0.18781994E+00 0.71327952E+03</pdfrwt>
<pdfrwt beam="2">  1       -1 0.71647446E-01 0.71327952E+03</pdfrwt>
<totfact> 0.21019911E+01</totfact>
</mgrwt>
</event>
<event>
 4    1  0.2514307E-008  0.9580499E+03  0.7818608E-02  0.9438625E-01
         -1   -1    0    0    0  501 -0.00000000000E+00  0.00000000000E+00  0.17543963151E+04  0.17543963151E+04  0.50400000000E-02 0.  1.
          1   -1    0    0  501    0  0.00000000000E+00 -0.00000000000E+00 -0.76079827273E+03  0.76079827275E+03  0.50400000000E-02 0. -1.
    8880023    1    1    2    0    0  0.14918838912E+03 -0.67955301552E+03  0.13989735456E+04  0.16955785632E+04  0.65864270000E+03 0.  1.
    8880022    1    1    2    0    0 -0.14918838912E+03  0.67955301552E+03 -0.40537550319E+03  0.81961602471E+03  0.15294330000E+03 0.  0.
<mgrwt>
<rscale>  0 0.88964003E+03</rscale>
<asrwt>0</asrwt>
<pdfrwt beam="1">  1        1 0.11704589E+00 0.95804994E+03</pdfrwt>
<pdfrwt beam="2">  1       -1 0.26990712E+00 0.95804994E+03</pdfrwt>
<totfact> 0.12591847E+00</totfact>
</mgrwt>
</event>
<event>
 4    1  0.2514307E-008  0.9424087E+03  0.7818608E-02  0.9461122E-01
         -1   -1    0    0    0  501 -0.00000000000E+00  0.00000000000E+00  0.66975985645E+03  0.66975985647E+03  0.50400000000E-02 0.  1.
          1   -1    0    0  501    0  0.00000000000E+00 -0.00000000000E+00 -0.26937326245E+04  0.26937326245E+04  0.50400000000E-02 0. -1.
    8880023    1    1    2    0    0  0.66771460500E+03 -0.92092899317E+02 -0.23987629685E+04  0.25772461817E+04  0.65864270000E+03 0. -1.
    8880022    1    1    2    0    0 -0.66771460500E+03  0.92092899317E+02  0.37479020041E+03  0.78624629931E+03  0.15294330000E+03 0.  0.
<mgrwt>
<rscale>  0 0.87211876E+03</rscale>
<asrwt>0</asrwt>
<pdfrwt beam="1">  1        1 0.41442040E+00 0.94240867E+03</pdfrwt>
<pdfrwt beam="2">  1       -1 0.10303998E+00 0.94240867E+03</pdfrwt>
<totfact> 0.91014423E-01</totfact>
</mgrwt>
</event>
<event>
 4    1  0.2514307E-008  0.6868657E+03  0.7818608E-02  0.1005679E+00
          1   -1    0    0  501    0  0.00000000000E+00  0.00000000000E+00  0.13469280007E+04  0.13469280007E+04  0.50400000000E-02 0. -1.
         -1   -1    0    0    0  501 -0.00000000000E+00 -0.00000000000E+00 -0.48322711237E+03  0.48322711239E+03  0.50400000000E-02 0.  1.
    8880023    1    1    2    0    0 -0.19012019618E+03  0.42762245560E+02 -0.21785951548E+03  0.72058814408E+03  0.65864270000E+03 0.  1.
    8880022    1    1    2    0    0  0.19012019618E+03 -0.42762245560E+02  0.10815604038E+04  0.11095669690E+04  0.15294330000E+03 0.  0.
<mgrwt>
<rscale>  0 0.53228572E+03</rscale>
<asrwt>0</asrwt>
<pdfrwt beam="1">  1        1 0.20721969E+00 0.68686571E+03</pdfrwt>
<pdfrwt beam="2">  1       -1 0.74342632E-01 0.68686571E+03</pdfrwt>
<totfact> 0.15913616E+01</totfact>
</mgrwt>
</event>
<event>
 4    1  0.2514307E-008  0.1339034E+04  0.7818608E-02  0.9032564E-01
          1   -1    0    0  501    0  0.00000000000E+00  0.00000000000E+00  0.15077206150E+04  0.15077206150E+04  0.50400000000E-02 0. -1.
         -1   -1    0    0    0  501 -0.00000000000E+00 -0.00000000000E+00 -0.22427751165E+04  0.22427751165E+04  0.50400000000E-02 0.  1.
    8880023    1    1    2    0    0 -0.68315582332E+03 -0.94472247668E+03 -0.17456329550E+04  0.22000561486E+04  0.65864270000E+03 0.  0.
    8880022    1    1    2    0    0  0.68315582332E+03  0.94472247668E+03  0.10105784535E+04  0.15504395830E+04  0.15294330000E+03 0.  0.
<mgrwt>
<rscale>  0 0.12962256E+04</rscale>
<asrwt>0</asrwt>
<pdfrwt beam="1">  1        1 0.23195702E+00 0.13390342E+04</pdfrwt>
<pdfrwt beam="2">  1       -1 0.34504232E+00 0.13390342E+04</pdfrwt>
<totfact> 0.10471343E-01</totfact>
</mgrwt>
</event>
<event>
 4    1  0.2514307E-008  0.6598407E+03  0.7818608E-02  0.1024320E+00
          1   -1    0    0  501    0  0.00000000000E+00  0.00000000000E+00  0.20200146279E+04  0.20200146279E+04  0.50400000000E-02 0. -1.
         -1   -1    0    0    0  501 -0.00000000000E+00 -0.00000000000E+00 -0.67916330247E+03  0.67916330249E+03  0.50400000000E-02 0.  1.
    8880023    1    1    2    0    0  0.36861106707E+02  0.14861070614E+02 -0.51474167467E+03  0.83686844278E+03  0.65864270000E+03 0.  1.
    8880022    1    1    2    0    0 -0.36861106707E+02 -0.14861070614E+02  0.18555930001E+04  0.18623094876E+04  0.15294330000E+03 0.  0.
<mgrwt>
<rscale>  0 0.46159316E+03</rscale>
<asrwt>0</asrwt>
<pdfrwt beam="1">  1        1 0.31077149E+00 0.65984074E+03</pdfrwt>
<pdfrwt beam="2">  1       -1 0.10448666E+00 0.65984074E+03</pdfrwt>
<totfact> 0.26691599E+00</totfact>
</mgrwt>
</event>
<event>
 4    1  0.2514307E-008  0.1040097E+04  0.7818608E-02  0.9330882E-01
          1   -1    0    0  501    0  0.00000000000E+00  0.00000000000E+00  0.10485549440E+04  0.10485549440E+04  0.50400000000E-02 0. -1.
         -1   -1    0    0    0  501 -0.00000000000E+00 -0.00000000000E+00 -0.14417759640E+04  0.14417759640E+04  0.50400000000E-02 0.  1.
    8880023    1    1    2    0    0  0.40243704036E+03  0.69716243282E+03 -0.10214794274E+04  0.14578139305E+04  0.65864270000E+03 0.  0.
    8880022    1    1    2    0    0 -0.40243704036E+03 -0.69716243282E+03  0.62825840746E+03  0.10325169775E+04  0.15294330000E+03 0.  0.
<mgrwt>
<rscale>  0 0.97988829E+03</rscale>
<asrwt>0</asrwt>
<pdfrwt beam="1">  1        1 0.16131615E+00 0.10400967E+04</pdfrwt>
<pdfrwt beam="2">  1       -1 0.22181169E+00 0.10400967E+04</pdfrwt>
<totfact> 0.14854378E+00</totfact>
</mgrwt>
</event>
<event>
 4    1  0.2514307E-008  0.1474315E+04  0.7818608E-02  0.8927989E-01
          1   -1    0    0  501    0  0.00000000000E+00  0.00000000000E+00  0.24572184912E+04  0.24572184912E+04  0.50400000000E-02 0. -1.
         -1   -1    0    0    0  501 -0.00000000000E+00 -0.00000000000E+00 -0.10255044814E+04  0.10255044814E+04  0.50400000000E-02 0.  1.
    8880023    1    1    2    0    0  0.72747263285E+03 -0.11002628631E+04 -0.72719286836E+02  0.14761074149E+04  0.65864270000E+03 0.  0.
    8880022    1    1    2    0    0 -0.72747263285E+03  0.11002628631E+04  0.15044332967E+04  0.20066155577E+04  0.15294330000E+03 0.  0.
<mgrwt>
<rscale>  0 0.14362499E+04</rscale>
<asrwt>0</asrwt>
<pdfrwt beam="1">  1        1 0.37803362E+00 0.14743151E+04</pdfrwt>
<pdfrwt beam="2">  1       -1 0.15776992E+00 0.14743151E+04</pdfrwt>
<totfact> 0.41954902E-01</totfact>
</mgrwt>
</event>
<event>
 4    1  0.2514307E-008  0.1169465E+04  0.7818608E-02  0.9187392E-01
         -1   -1    0    0    0  501 -0.00000000000E+00  0.00000000000E+00  0.13972403580E+04  0.13972403580E+04  0.50400000000E-02 0.  1.
          1   -1    0    0  501    0  0.00000000000E+00 -0.00000000000E+00 -0.12969757091E+04  0.12969757091E+04  0.50400000000E-02 0. -1.
    8880023    1    1    2    0    0  0.66911012765E+03  0.69722928141E+03  0.86319753995E+03  0.14535326735E+04  0.65864270000E+03 0.  0.
    8880022    1    1    2    0    0 -0.66911012765E+03 -0.69722928141E+03 -0.76293289105E+03  0.12406833936E+04  0.15294330000E+03 0.  0.
<mgrwt>
<rscale>  0 0.11184517E+04</rscale>
<asrwt>0</asrwt>
<pdfrwt beam="1">  1        1 0.19953473E+00 0.11694645E+04</pdfrwt>
<pdfrwt beam="2">  1       -1 0.21496005E+00 0.11694645E+04</pdfrwt>
<totfact> 0.10641192E+00</totfact>
</mgrwt>
</event>
<event>
 4    1  0.3041557E-008  0.1166464E+04  0.7818608E-02  0.9190431E-01
          1   -1    0    0  501    0  0.00000000000E+00  0.00000000000E+00  0.18991006291E+04  0.18991006291E+04  0.50400000000E-02 0. -1.
         -1   -1    0    0    0  501 -0.00000000000E+00 -0.00000000000E+00 -0.16534918565E+04  0.16534918565E+04  0.50400000000E-02 0.  1.
    8880023    1    1    2    0    0 -0.38431561006E+03 -0.88268373688E+03 -0.12865541076E+04  0.17366233747E+04  0.65864270000E+03 0.  0.
    8880022    1    1    2    0    0  0.38431561006E+03  0.88268373688E+03  0.15321628802E+04  0.18159691110E+04  0.15294330000E+03 0.  0.
<mgrwt>
<rscale>  0 0.11152743E+04</rscale>
<asrwt>0</asrwt>
<pdfrwt beam="1">  1        1 0.29216933E+00 0.11664644E+04</pdfrwt>
<pdfrwt beam="2">  1       -1 0.25438336E+00 0.11664644E+04</pdfrwt>
<totfact> 0.22491683E-01</totfact>
</mgrwt>
</event>
<event>
 4    1  0.2514307E-008  0.7437654E+03  0.7818608E-02  0.9849111E-01
          1   -1    0    0  501    0  0.00000000000E+00  0.00000000000E+00  0.32287660343E+03  0.32287660347E+03  0.50400000000E-02 0. -1.
         -1   -1    0    0    0  501 -0.00000000000E+00 -0.00000000000E+00 -0.29349400283E+04  0.29349400283E+04  0.50400000000E-02 0.  1.
    8880023    1    1    2    0    0 -0.12319379678E+03 -0.32280042500E+03 -0.27551560300E+04  0.28537820137E+04  0.65864270000E+03 0.  1.
    8880022    1    1    2    0    0  0.12319379678E+03  0.32280042500E+03  0.14309260511E+03  0.40403461807E+03  0.15294330000E+03 0.  0.
<mgrwt>
<rscale>  0 0.62792249E+03</rscale>
<asrwt>0</asrwt>
<pdfrwt beam="1">  1        1 0.49673326E-01 0.74376544E+03</pdfrwt>
<pdfrwt beam="2">  1       -1 0.45152922E+00 0.74376544E+03</pdfrwt>
<totfact> 0.27006941E-01</totfact>
</mgrwt>
</event>
<event>
 4    1  0.2514307E-008  0.1134616E+04  0.7818608E-02  0.9223460E-01
          1   -1    0    0  501    0  0.00000000000E+00  0.00000000000E+00  0.25644375975E+04  0.25644375975E+04  0.50400000000E-02 0. -1.
         -1   -1    0    0    0  501 -0.00000000000E+00 -0.00000000000E+00 -0.43060122906E+03  0.43060122909E+03  0.50400000000E-02 0.  1.
    8880023    1    1    2    0    0  0.90225445884E+03 -0.19869788099E+03  0.91257064281E+03  0.14560698269E+04  0.65864270000E+03 0.  0.
    8880022    1    1    2    0    0 -0.90225445884E+03  0.19869788099E+03  0.12212657256E+04  0.15389689997E+04  0.15294330000E+03 0.  0.
<mgrwt>
<rscale>  0 0.10814532E+04</rscale>
<asrwt>0</asrwt>
<pdfrwt beam="1">  1        1 0.39452886E+00 0.11346163E+04</pdfrwt>
<pdfrwt beam="2">  1       -1 0.66246343E-01 0.11346163E+04</pdfrwt>
<totfact> 0.28265602E+00</totfact>
</mgrwt>
</event>
<event>
 4    1  0.2514307E-008  0.7410249E+03  0.7818608E-02  0.9856972E-01
         -1   -1    0    0    0  501 -0.00000000000E+00  0.00000000000E+00  0.97289669179E+03  0.97289669180E+03  0.50400000000E-02 0.  1.
          1   -1    0    0  501    0  0.00000000000E+00 -0.00000000000E+00 -0.82269784492E+03  0.82269784494E+03  0.50400000000E-02 0. -1.
    8880023    1    1    2    0    0 -0.13393872882E+03  0.31203867719E+03  0.77244285362E+03  0.10704138861E+04  0.65864270000E+03 0.  0.
    8880022    1    1    2    0    0  0.13393872882E+03 -0.31203867719E+03 -0.62224400675E+03  0.72518065066E+03  0.15294330000E+03 0.  0.
<mgrwt>
<rscale>  0 0.62392720E+03</rscale>
<asrwt>0</asrwt>
<pdfrwt beam="1">  1        1 0.12656890E+00 0.74102492E+03</pdfrwt>
<pdfrwt beam="2">  1       -1 0.14967641E+00 0.74102492E+03</pdfrwt>
<totfact> 0.76690407E+00</totfact>
</mgrwt>
</event>
<event>
 4    1  0.2514307E-008  0.8774395E+03  0.7818608E-02  0.9563264E-01
          1   -1    0    0  501    0  0.00000000000E+00  0.00000000000E+00  0.92484524762E+03  0.92484524763E+03  0.50400000000E-02 0. -1.
         -1   -1    0    0    0  501 -0.00000000000E+00 -0.00000000000E+00 -0.10468506324E+04  0.10468506324E+04  0.50400000000E-02 0.  1.
    8880023    1    1    2    0    0 -0.57874626912E+03  0.33803944998E+02 -0.71240974364E+03  0.11302335156E+04  0.65864270000E+03 0.  1.
    8880022    1    1    2    0    0  0.57874626912E+03 -0.33803944998E+02  0.59040435888E+03  0.84146236441E+03  0.15294330000E+03 0.  0.
<mgrwt>
<rscale>  0 0.79776042E+03</rscale>
<asrwt>0</asrwt>
<pdfrwt beam="1">  1        1 0.14228388E+00 0.87743955E+03</pdfrwt>
<pdfrwt beam="2">  1       -1 0.16105394E+00 0.87743955E+03</pdfrwt>
<totfact> 0.50703095E+00</totfact>
</mgrwt>
</event>
<event>
 4    1  0.2514307E-008  0.1468615E+04  0.7818608E-02  0.8932122E-01
          1   -1    0    0  501    0  0.00000000000E+00  0.00000000000E+00  0.13709534310E+04  0.13709534310E+04  0.50400000000E-02 0. -1.
         -1   -1    0    0    0  501 -0.00000000000E+00 -0.00000000000E+00 -0.20144513361E+04  0.20144513361E+04  0.50400000000E-02 0.  1.
    8880023    1    1    2    0    0 -0.12552335109E+04 -0.38393941916E+03 -0.12526252449E+04  0.19302592714E+04  0.65864270000E+03 0.  0.
    8880022    1    1    2    0    0  0.12552335109E+04  0.38393941916E+03  0.60912733980E+03  0.14551454957E+04  0.15294330000E+03 0.  0.
<mgrwt>
<rscale>  0 0.14303733E+04</rscale>
<asrwt>0</asrwt>
<pdfrwt beam="1">  1        1 0.21091591E+00 0.14686153E+04</pdfrwt>
<pdfrwt beam="2">  1       -1 0.30991559E+00 0.14686153E+04</pdfrwt>
<totfact> 0.21794932E-01</totfact>
</mgrwt>
</event>
<event>
 4    1  0.2514307E-008  0.2465440E+04  0.7818608E-02  0.8423216E-01
         -1   -1    0    0    0  501 -0.00000000000E+00  0.00000000000E+00  0.18723799580E+04  0.18723799580E+04  0.50400000000E-02 0.  1.
          1   -1    0    0  501    0  0.00000000000E+00 -0.00000000000E+00 -0.39261172853E+04  0.39261172853E+04  0.50400000000E-02 0. -1.
    8880023    1    1    2    0    0  0.22855453778E+04  0.64874235249E+03  0.25942965655E+03  0.24790518887E+04  0.65864270000E+03 0.  0.
    8880022    1    1    2    0    0 -0.22855453778E+04 -0.64874235249E+03 -0.23131669838E+04  0.33194453546E+04  0.15294330000E+03 0.  0.
<mgrwt>
<rscale>  0 0.24439895E+04</rscale>
<asrwt>0</asrwt>
<pdfrwt beam="1">  1        1 0.60401804E+00 0.24654400E+04</pdfrwt>
<pdfrwt beam="2">  1       -1 0.28805846E+00 0.24654400E+04</pdfrwt>
<totfact> 0.36974806E-03</totfact>
</mgrwt>
</event>
<event>
 4    1  0.2514307E-008  0.1119233E+04  0.7818608E-02  0.9239939E-01
          1   -1    0    0  501    0  0.00000000000E+00  0.00000000000E+00  0.27606669677E+04  0.27606669677E+04  0.50400000000E-02 0. -1.
         -1   -1    0    0    0  501 -0.00000000000E+00 -0.00000000000E+00 -0.58308144719E+03  0.58308144721E+03  0.50400000000E-02 0.  1.
    8880023    1    1    2    0    0  0.77627062279E+03  0.46505514623E+03  0.21519890890E+04  0.24256421035E+04  0.65864270000E+03 0.  0.
    8880022    1    1    2    0    0 -0.77627062279E+03 -0.46505514623E+03  0.25596431583E+02  0.91810631147E+03  0.15294330000E+03 0.  0.
<mgrwt>
<rscale>  0 0.10650535E+04</rscale>
<asrwt>0</asrwt>
<pdfrwt beam="1">  1        1 0.42471800E+00 0.11192330E+04</pdfrwt>
<pdfrwt beam="2">  1       -1 0.89704837E-01 0.11192330E+04</pdfrwt>
<totfact> 0.10870504E+00</totfact>
</mgrwt>
</event>
<event>
 4    1  0.2514307E-008  0.7865852E+03  0.7818608E-02  0.9740589E-01
          1   -1    0    0  501    0  0.00000000000E+00  0.00000000000E+00  0.17094795514E+04  0.17094795514E+04  0.50400000000E-02 0. -1.
         -1   -1    0    0    0  501 -0.00000000000E+00 -0.00000000000E+00 -0.53507779575E+03  0.53507779578E+03  0.50400000000E-02 0.  1.
    8880023    1    1    2    0    0  0.31228409793E+03  0.29560917095E+03 -0.18715495513E+03  0.80854395259E+03  0.65864270000E+03 0.  1.
    8880022    1    1    2    0    0 -0.31228409793E+03 -0.29560917095E+03  0.13615567107E+04  0.14360133946E+04  0.15294330000E+03 0.  0.
<mgrwt>
<rscale>  0 0.68650694E+03</rscale>
<asrwt>0</asrwt>
<pdfrwt beam="1">  1        1 0.26299686E+00 0.78658524E+03</pdfrwt>
<pdfrwt beam="2">  1       -1 0.82319659E-01 0.78658524E+03</pdfrwt>
<totfact> 0.71462825E+00</totfact>
</mgrwt>
</event>
<event>
 4    1  0.2514307E-008  0.8273214E+03  0.7818608E-02  0.9654567E-01
         -1   -1    0    0    0  501 -0.00000000000E+00  0.00000000000E+00  0.34515274745E+03  0.34515274749E+03  0.50400000000E-02 0.  1.
          1   -1    0    0  501    0  0.00000000000E+00 -0.00000000000E+00 -0.23788755373E+04  0.23788755373E+04  0.50400000000E-02 0. -1.
    8880023    1    1    2    0    0  0.39318320733E+03 -0.30993127750E+03 -0.24879915997E+03  0.86392225319E+03  0.65864270000E+03 0.  0.
    8880022    1    1    2    0    0 -0.39318320733E+03  0.30993127750E+03 -0.17849236298E+04  0.18601060316E+04  0.15294330000E+03 0.  0.
<mgrwt>
<rscale>  0 0.73787507E+03</rscale>
<asrwt>0</asrwt>
<pdfrwt beam="1">  1        1 0.36598084E+00 0.82732136E+03</pdfrwt>
<pdfrwt beam="2">  1       -1 0.53100424E-01 0.82732136E+03</pdfrwt>
<totfact> 0.61209360E+00</totfact>
</mgrwt>
</event>
<event>
 4    1  0.2514307E-008  0.8549756E+03  0.7818608E-02  0.9602564E-01
          1   -1    0    0  501    0  0.00000000000E+00  0.00000000000E+00  0.12487899007E+04  0.12487899007E+04  0.50400000000E-02 0. -1.
         -1   -1    0    0    0  501 -0.00000000000E+00 -0.00000000000E+00 -0.10346734352E+04  0.10346734352E+04  0.50400000000E-02 0.  1.
    8880023    1    1    2    0    0  0.10240223013E+03 -0.53543146619E+03 -0.76837095589E+03  0.11495117241E+04  0.65864270000E+03 0.  0.
    8880022    1    1    2    0    0 -0.10240223013E+03  0.53543146619E+03  0.98248742143E+03  0.11339516118E+04  0.15294330000E+03 0.  0.
<mgrwt>
<rscale>  0 0.77126701E+03</rscale>
<asrwt>0</asrwt>
<pdfrwt beam="1">  1        1 0.19212152E+00 0.85497560E+03</pdfrwt>
<pdfrwt beam="2">  1       -1 0.15918053E+00 0.85497560E+03</pdfrwt>
<totfact> 0.29899285E+00</totfact>
</mgrwt>
</event>
<event>
 4    1  0.2514307E-008  0.1236225E+04  0.7818608E-02  0.9122688E-01
          1   -1    0    0  501    0  0.00000000000E+00  0.00000000000E+00  0.88370112628E+03  0.88370112630E+03  0.50400000000E-02 0. -1.
         -1   -1    0    0    0  501 -0.00000000000E+00 -0.00000000000E+00 -0.17126049314E+04  0.17126049314E+04  0.50400000000E-02 0.  1.
    8880023    1    1    2    0    0  0.17396335054E+03  0.10315909300E+04 -0.91131548904E+03  0.15358220017E+04  0.65864270000E+03 0.  0.
    8880022    1    1    2    0    0 -0.17396335054E+03 -0.10315909300E+04  0.82411683951E+02  0.10604840559E+04  0.15294330000E+03 0.  0.
<mgrwt>
<rscale>  0 0.11888319E+04</rscale>
<asrwt>0</asrwt>
<pdfrwt beam="1">  1        1 0.13595402E+00 0.12362254E+04</pdfrwt>
<pdfrwt beam="2">  1       -1 0.26347768E+00 0.12362254E+04</pdfrwt>
<totfact> 0.10472998E+00</totfact>
</mgrwt>
</event>
<event>
 4    1  0.2514307E-008  0.7511700E+03  0.7818608E-02  0.9828528E-01
         -1   -1    0    0    0  501 -0.00000000000E+00  0.00000000000E+00  0.15870741609E+04  0.15870741609E+04  0.50400000000E-02 0.  1.
          1   -1    0    0  501    0  0.00000000000E+00 -0.00000000000E+00 -0.89629982059E+03  0.89629982061E+03  0.50400000000E-02 0. -1.
    8880023    1    1    2    0    0  0.32628542010E+03  0.15486760442E+03  0.14476350497E+04  0.16309210875E+04  0.65864270000E+03 0.  0.
    8880022    1    1    2    0    0 -0.32628542010E+03 -0.15486760442E+03 -0.75686070933E+03  0.85245289407E+03  0.15294330000E+03 0.  0.
<mgrwt>
<rscale>  0 0.63853772E+03</rscale>
<asrwt>0</asrwt>
<pdfrwt beam="1">  1        1 0.13789228E+00 0.75116999E+03</pdfrwt>
<pdfrwt beam="2">  1       -1 0.24416525E+00 0.75116999E+03</pdfrwt>
<totfact> 0.14621746E+00</totfact>
</mgrwt>
</event>
<event>
 4    1  0.2514307E-008  0.8004269E+03  0.7818608E-02  0.9709874E-01
          1   -1    0    0  501    0  0.00000000000E+00  0.00000000000E+00  0.21058161354E+04  0.21058161354E+04  0.50400000000E-02 0. -1.
         -1   -1    0    0    0  501 -0.00000000000E+00 -0.00000000000E+00 -0.24111509052E+03  0.24111509057E+03  0.50400000000E-02 0.  1.
    8880023    1    1    2    0    0  0.15145149170E+03  0.42887696856E+03  0.61853282547E+03  0.10115661476E+04  0.65864270000E+03 0.  1.
    8880022    1    1    2    0    0 -0.15145149170E+03 -0.42887696856E+03  0.12461682194E+04  0.13353650784E+04  0.15294330000E+03 0.  0.
<mgrwt>
<rscale>  0 0.70431943E+03</rscale>
<asrwt>0</asrwt>
<pdfrwt beam="1">  1        1 0.32397172E+00 0.80042690E+03</pdfrwt>
<pdfrwt beam="2">  1       -1 0.37094628E-01 0.80042690E+03</pdfrwt>
<totfact> 0.18275413E+01</totfact>
</mgrwt>
</event>
<event>
 4    1  0.2514307E-008  0.8669439E+03  0.7818608E-02  0.9581329E-01
         -1   -1    0    0    0  501 -0.00000000000E+00  0.00000000000E+00  0.71274665373E+03  0.71274665375E+03  0.50400000000E-02 0.  1.
          1   -1    0    0  501    0  0.00000000000E+00 -0.00000000000E+00 -0.36991286180E+04  0.36991286180E+04  0.50400000000E-02 0. -1.
    8880023    1    1    2    0    0  0.22273455184E+03 -0.51785219882E+03  0.41468364597E+03  0.96101733226E+03  0.65864270000E+03 0.  1.
    8880022    1    1    2    0    0 -0.22273455184E+03  0.51785219882E+03 -0.34010656102E+04  0.34508579395E+04  0.15294330000E+03 0.  0.
<mgrwt>
<rscale>  0 0.78544382E+03</rscale>
<asrwt>0</asrwt>
<pdfrwt beam="1">  1        1 0.56909670E+00 0.86694394E+03</pdfrwt>
<pdfrwt beam="2">  1       -1 0.10965333E+00 0.86694394E+03</pdfrwt>
<totfact> 0.14294089E-01</totfact>
</mgrwt>
</event>
<event>
 4    1  0.2514307E-008  0.1646679E+04  0.7818608E-02  0.8812454E-01
         -1   -1    0    0    0  501 -0.00000000000E+00  0.00000000000E+00  0.26007968190E+04  0.26007968191E+04  0.50400000000E-02 0.  1.
          1   -1    0    0  501    0  0.00000000000E+00 -0.00000000000E+00 -0.10242236621E+04  0.10242236621E+04  0.50400000000E-02 0. -1.
    8880023    1    1    2    0    0  0.14801353462E+04 -0.29485617323E+03  0.37248807446E+03  0.16882826711E+04  0.65864270000E+03 0.  0.
    8880022    1    1    2    0    0 -0.14801353462E+04  0.29485617323E+03  0.12040850825E+04  0.19367378100E+04  0.15294330000E+03 0.  0.
<mgrwt>
<rscale>  0 0.16132414E+04</rscale>
<asrwt>0</asrwt>
<pdfrwt beam="1">  1        1 0.15757287E+00 0.16466788E+04</pdfrwt>
<pdfrwt beam="2">  1       -1 0.40012258E+00 0.16466788E+04</pdfrwt>
<totfact> 0.96886103E-02</totfact>
</mgrwt>
</event>
<event>
 4    1  0.2514307E-008  0.1074593E+04  0.7818608E-02  0.9289885E-01
          1   -1    0    0  501    0  0.00000000000E+00  0.00000000000E+00  0.16740875052E+04  0.16740875052E+04  0.50400000000E-02 0. -1.
         -1   -1    0    0    0  501 -0.00000000000E+00 -0.00000000000E+00 -0.64588832513E+03  0.64588832515E+03  0.50400000000E-02 0.  1.
    8880023    1    1    2    0    0 -0.48207133321E+03  0.69896170811E+03  0.14330253842E+03  0.10841061126E+04  0.65864270000E+03 0. -1.
    8880022    1    1    2    0    0  0.48207133321E+03 -0.69896170811E+03  0.88489664162E+03  0.12358697177E+04  0.15294330000E+03 0.  0.
<mgrwt>
<rscale>  0 0.10171942E+04</rscale>
<asrwt>0</asrwt>
<pdfrwt beam="1">  1        1 0.25755192E+00 0.10745932E+04</pdfrwt>
<pdfrwt beam="2">  1       -1 0.99367435E-01 0.10745932E+04</pdfrwt>
<totfact> 0.47925922E+00</totfact>
</mgrwt>
</event>
<event>
 4    1  0.2514307E-008  0.6683469E+03  0.7818608E-02  0.1016877E+00
          1   -1    0    0  501    0  0.00000000000E+00  0.00000000000E+00  0.82363564209E+03  0.82363564210E+03  0.50400000000E-02 0. -1.
         -1   -1    0    0    0  501 -0.00000000000E+00 -0.00000000000E+00 -0.31487701978E+03  0.31487701982E+03  0.50400000000E-02 0.  1.
    8880023    1    1    2    0    0  0.27296771680E+02  0.11014645469E+03  0.84750586667E+02  0.67369891155E+03  0.65864270000E+03 0.  1.
    8880022    1    1    2    0    0 -0.27296771680E+02 -0.11014645469E+03  0.42400803564E+03  0.46481375037E+03  0.15294330000E+03 0.  0.
<mgrwt>
<rscale>  0 0.48830751E+03</rscale>
<asrwt>0</asrwt>
<pdfrwt beam="1">  1        1 0.12671317E+00 0.66834689E+03</pdfrwt>
<pdfrwt beam="2">  1       -1 0.48442619E-01 0.66834689E+03</pdfrwt>
<totfact> 0.92254467E+01</totfact>
</mgrwt>
</event>
<event>
 4    1  0.2514307E-008  0.1670966E+04  0.7818608E-02  0.8797486E-01
          1   -1    0    0  501    0  0.00000000000E+00  0.00000000000E+00  0.19207042887E+04  0.19207042887E+04  0.50400000000E-02 0. -1.
         -1   -1    0    0    0  501 -0.00000000000E+00 -0.00000000000E+00 -0.31051479292E+04  0.31051479292E+04  0.50400000000E-02 0.  1.
    8880023    1    1    2    0    0  0.43897116747E+03  0.14716046287E+04 -0.24938705809E+04  0.30019188113E+04  0.65864270000E+03 0.  1.
    8880022    1    1    2    0    0 -0.43897116747E+03 -0.14716046287E+04  0.13094269403E+04  0.20239334066E+04  0.15294330000E+03 0.  0.
<mgrwt>
<rscale>  0 0.16380860E+04</rscale>
<asrwt>0</asrwt>
<pdfrwt beam="1">  1        1 0.29549297E+00 0.16709656E+04</pdfrwt>
<pdfrwt beam="2">  1       -1 0.47771507E+00 0.16709656E+04</pdfrwt>
<totfact> 0.64773895E-03</totfact>
</mgrwt>
</event>
<event>
 4    1  0.2514307E-008  0.7187732E+03  0.7818608E-02  0.9926759E-01
         -1   -1    0    0    0  501 -0.00000000000E+00  0.00000000000E+00  0.30097137918E+03  0.30097137923E+03  0.50400000000E-02 0.  1.
          1   -1    0    0  501    0  0.00000000000E+00 -0.00000000000E+00 -0.15144338110E+04  0.15144338110E+04  0.50400000000E-02 0. -1.
    8880023    1    1    2    0    0 -0.27371424122E+03 -0.88911517669E+02 -0.19310223101E+03  0.74426031851E+03  0.65864270000E+03 0.  1.
    8880022    1    1    2    0    0  0.27371424122E+03  0.88911517669E+02 -0.10203602008E+04  0.10711448717E+04  0.15294330000E+03 0.  0.
<mgrwt>
<rscale>  0 0.58981779E+03</rscale>
<asrwt>0</asrwt>
<pdfrwt beam="1">  1        1 0.23298981E+00 0.71877323E+03</pdfrwt>
<pdfrwt beam="2">  1       -1 0.46303290E-01 0.71877323E+03</pdfrwt>
<totfact> 0.30740105E+01</totfact>
</mgrwt>
</event>
<event>
 4    1  0.2514307E-008  0.1228528E+04  0.7818608E-02  0.9129878E-01
          1   -1    0    0  501    0  0.00000000000E+00  0.00000000000E+00  0.25424042247E+04  0.25424042247E+04  0.50400000000E-02 0. -1.
         -1   -1    0    0    0  501 -0.00000000000E+00 -0.00000000000E+00 -0.10766806970E+04  0.10766806970E+04  0.50400000000E-02 0.  1.
    8880023    1    1    2    0    0  0.93353320567E+03 -0.45164891847E+03 -0.55081498604E+03  0.13463574365E+04  0.65864270000E+03 0.  0.
    8880022    1    1    2    0    0 -0.93353320567E+03  0.45164891847E+03  0.20165385137E+04  0.22727274852E+04  0.15294330000E+03 0.  0.
<mgrwt>
<rscale>  0 0.11807467E+04</rscale>
<asrwt>0</asrwt>
<pdfrwt beam="1">  1        1 0.39113911E+00 0.12285281E+04</pdfrwt>
<pdfrwt beam="2">  1       -1 0.16564319E+00 0.12285281E+04</pdfrwt>
<totfact> 0.32962074E-01</totfact>
</mgrwt>
</event>
<event>
 4    1  0.2514307E-008  0.7912070E+03  0.7818608E-02  0.9730141E-01
         -1   -1    0    0    0  501 -0.00000000000E+00  0.00000000000E+00  0.70732554545E+03  0.70732554546E+03  0.50400000000E-02 0.  1.
          1   -1    0    0  501    0  0.00000000000E+00 -0.00000000000E+00 -0.15749549273E+04  0.15749549273E+04  0.50400000000E-02 0. -1.
    8880023    1    1    2    0    0 -0.40253259648E+03 -0.17368291669E+03  0.43251869107E+03  0.90170997065E+03  0.65864270000E+03 0.  0.
    8880022    1    1    2    0    0  0.40253259648E+03  0.17368291669E+03 -0.13001480729E+04  0.13805705021E+04  0.15294330000E+03 0.  0.
<mgrwt>
<rscale>  0 0.69250215E+03</rscale>
<asrwt>0</asrwt>
<pdfrwt beam="1">  1        1 0.24230076E+00 0.79120696E+03</pdfrwt>
<pdfrwt beam="2">  1       -1 0.10881932E+00 0.79120696E+03</pdfrwt>
<totfact> 0.47103728E+00</totfact>
</mgrwt>
</event>
<event>
 4    1  0.2514307E-008  0.1156153E+04  0.7818608E-02  0.9200970E-01
         -1   -1    0    0    0  501 -0.00000000000E+00  0.00000000000E+00  0.54487540539E+03  0.54487540541E+03  0.50400000000E-02 0.  1.
          1   -1    0    0  501    0  0.00000000000E+00 -0.00000000000E+00 -0.34448290372E+04  0.34448290372E+04  0.50400000000E-02 0. -1.
    8880023    1    1    2    0    0 -0.51826889370E+02 -0.94878475084E+03 -0.26730516078E+03  0.11866510798E+04  0.65864270000E+03 0.  0.
    8880022    1    1    2    0    0  0.51826889370E+02  0.94878475084E+03 -0.26326484710E+04  0.28030533628E+04  0.15294330000E+03 0.  0.
<mgrwt>
<rscale>  0 0.11043419E+04</rscale>
<asrwt>0</asrwt>
<pdfrwt beam="1">  1        1 0.52997369E+00 0.11561526E+04</pdfrwt>
<pdfrwt beam="2">  1       -1 0.83826987E-01 0.11561526E+04</pdfrwt>
<totfact> 0.39404660E-01</totfact>
</mgrwt>
</event>
<event>
 4    1  0.2514307E-008  0.8969853E+03  0.7818608E-02  0.9530889E-01
          1   -1    0    0  501    0  0.00000000000E+00  0.00000000000E+00  0.22457261383E+03  0.22457261389E+03  0.50400000000E-02 0. -1.
         -1   -1    0    0    0  501 -0.00000000000E+00 -0.00000000000E+00 -0.30859907848E+04  0.30859907848E+04  0.50400000000E-02 0.  1.
    8880023    1    1    2    0    0  0.19126915771E+02  0.60861030457E+03 -0.22985287937E+04  0.24673502312E+04  0.65864270000E+03 0. -1.
    8880022    1    1    2    0    0 -0.19126915771E+02 -0.60861030457E+03 -0.56288937722E+03  0.84321316743E+03  0.15294330000E+03 0.  0.
<mgrwt>
<rscale>  0 0.82044335E+03</rscale>
<asrwt>0</asrwt>
<pdfrwt beam="1">  1        1 0.34549635E-01 0.89698526E+03</pdfrwt>
<pdfrwt beam="2">  1       -1 0.47476778E+00 0.89698526E+03</pdfrwt>
<totfact> 0.29138019E-01</totfact>
</mgrwt>
</event>
<event>
 4    1  0.2514307E-008  0.8459443E+03  0.7818608E-02  0.9619072E-01
         -1   -1    0    0    0  501 -0.00000000000E+00  0.00000000000E+00  0.54269042617E+03  0.54269042619E+03  0.50400000000E-02 0.  1.
          1   -1    0    0  501    0  0.00000000000E+00 -0.00000000000E+00 -0.19228352447E+04  0.19228352447E+04  0.50400000000E-02 0. -1.
    8880023    1    1    2    0    0  0.48516193374E+03  0.21547479535E+03  0.13149008658E+03  0.85610241123E+03  0.65864270000E+03 0.  1.
    8880022    1    1    2    0    0 -0.48516193374E+03 -0.21547479535E+03 -0.15116349051E+04  0.16094232597E+04  0.15294330000E+03 0.  0.
<mgrwt>
<rscale>  0 0.76046624E+03</rscale>
<asrwt>0</asrwt>
<pdfrwt beam="1">  1        1 0.29582080E+00 0.84594426E+03</pdfrwt>
<pdfrwt beam="2">  1       -1 0.83490836E-01 0.84594426E+03</pdfrwt>
<totfact> 0.49393674E+00</totfact>
</mgrwt>
</event>
<event>
 4    1  0.2514307E-008  0.1230698E+04  0.7818608E-02  0.9127844E-01
          1   -1    0    0  501    0  0.00000000000E+00  0.00000000000E+00  0.61114437037E+03  0.61114437039E+03  0.50400000000E-02 0. -1.
         -1   -1    0    0    0  501 -0.00000000000E+00 -0.00000000000E+00 -0.32045378675E+04  0.32045378675E+04  0.50400000000E-02 0.  1.
    8880023    1    1    2    0    0  0.30725883329E+03 -0.99317630590E+03 -0.24674661721E+04  0.27573550156E+04  0.65864270000E+03 0.  0.
    8880022    1    1    2    0    0 -0.30725883329E+03  0.99317630590E+03 -0.12592732502E+03  0.10583272223E+04  0.15294330000E+03 0.  0.
<mgrwt>
<rscale>  0 0.11830266E+04</rscale>
<asrwt>0</asrwt>
<pdfrwt beam="1">  1        1 0.94022213E-01 0.12306979E+04</pdfrwt>
<pdfrwt beam="2">  1       -1 0.49300582E+00 0.12306979E+04</pdfrwt>
<totfact> 0.54389968E-02</totfact>
</mgrwt>
</event>
<event>
 4    1  0.2514307E-008  0.1512317E+04  0.7818608E-02  0.8900987E-01
          1   -1    0    0  501    0  0.00000000000E+00  0.00000000000E+00  0.16477697089E+04  0.16477697089E+04  0.50400000000E-02 0. -1.
         -1   -1    0    0    0  501 -0.00000000000E+00 -0.00000000000E+00 -0.28894620013E+04  0.28894620013E+04  0.50400000000E-02 0.  1.
    8880023    1    1    2    0    0 -0.10336465359E+04  0.88592823595E+03  0.10682928987E+04  0.18515814657E+04  0.65864270000E+03 0.  0.
    8880022    1    1    2    0    0  0.10336465359E+04 -0.88592823595E+03 -0.23099851910E+04  0.26856502446E+04  0.15294330000E+03 0.  0.
<mgrwt>
<rscale>  0 0.14753878E+04</rscale>
<asrwt>0</asrwt>
<pdfrwt beam="1">  1        1 0.25350303E+00 0.15123175E+04</pdfrwt>
<pdfrwt beam="2">  1       -1 0.44453261E+00 0.15123175E+04</pdfrwt>
<totfact> 0.17218956E-02</totfact>
</mgrwt>
</event>
<event>
 4    1  0.2514307E-008  0.7421685E+03  0.7818608E-02  0.9853675E-01
          1   -1    0    0  501    0  0.00000000000E+00  0.00000000000E+00  0.11393946416E+04  0.11393946416E+04  0.50400000000E-02 0. -1.
         -1   -1    0    0    0  501 -0.00000000000E+00 -0.00000000000E+00 -0.18606236033E+04  0.18606236033E+04  0.50400000000E-02 0.  1.
    8880023    1    1    2    0    0  0.33656889361E+02  0.34039837626E+03 -0.17522923856E+04  0.19029825674E+04  0.65864270000E+03 0.  1.
    8880022    1    1    2    0    0 -0.33656889361E+02 -0.34039837626E+03  0.10310634239E+04  0.10970356776E+04  0.15294330000E+03 0.  0.
<mgrwt>
<rscale>  0 0.62559897E+03</rscale>
<asrwt>0</asrwt>
<pdfrwt beam="1">  1        1 0.17529148E+00 0.74216848E+03</pdfrwt>
<pdfrwt beam="2">  1       -1 0.28624978E+00 0.74216848E+03</pdfrwt>
<totfact> 0.51080902E-01</totfact>
</mgrwt>
</event>
<event>
 4    1  0.2514307E-008  0.6606805E+03  0.7818608E-02  0.1023470E+00
         -1   -1    0    0    0  501 -0.00000000000E+00  0.00000000000E+00  0.63210137261E+03  0.63210137263E+03  0.50400000000E-02 0.  1.
          1   -1    0    0  501    0  0.00000000000E+00 -0.00000000000E+00 -0.17793812188E+04  0.17793812188E+04  0.50400000000E-02 0. -1.
    8880023    1    1    2    0    0  0.33211067550E+02 -0.39818386927E+02  0.45428647547E+03  0.80179479108E+03  0.65864270000E+03 0.  1.
    8880022    1    1    2    0    0 -0.33211067550E+02  0.39818386927E+02 -0.16015663217E+04  0.16096878004E+04  0.15294330000E+03 0.  0.
<mgrwt>
<rscale>  0 0.46454985E+03</rscale>
<asrwt>0</asrwt>
<pdfrwt beam="1">  1        1 0.27375095E+00 0.66068047E+03</pdfrwt>
<pdfrwt beam="2">  1       -1 0.97246366E-01 0.66068047E+03</pdfrwt>
<totfact> 0.45487704E+00</totfact>
</mgrwt>
</event>
<event>
 4    1  0.2514307E-008  0.7223265E+03  0.7818608E-02  0.9914791E-01
          1   -1    0    0  501    0  0.00000000000E+00  0.00000000000E+00  0.75882495450E+03  0.75882495452E+03  0.50400000000E-02 0. -1.
         -1   -1    0    0    0  501 -0.00000000000E+00 -0.00000000000E+00 -0.16649395677E+04  0.16649395677E+04  0.50400000000E-02 0.  1.
    8880023    1    1    2    0    0 -0.24786277911E+03 -0.16281720021E+03 -0.15435927600E+04  0.17042400691E+04  0.65864270000E+03 0.  1.
    8880022    1    1    2    0    0  0.24786277911E+03  0.16281720021E+03  0.63747814684E+03  0.71952445314E+03  0.15294330000E+03 0.  0.
<mgrwt>
<rscale>  0 0.59549776E+03</rscale>
<asrwt>0</asrwt>
<pdfrwt beam="1">  1        1 0.11674230E+00 0.72232652E+03</pdfrwt>
<pdfrwt beam="2">  1       -1 0.25614455E+00 0.72232652E+03</pdfrwt>
<totfact> 0.16107967E+00</totfact>
</mgrwt>
</event>
<event>
 4    1  0.2514307E-008  0.1288826E+04  0.7818608E-02  0.9075270E-01
         -1   -1    0    0    0  501 -0.00000000000E+00  0.00000000000E+00  0.32328576707E+04  0.32328576707E+04  0.50400000000E-02 0.  1.
          1   -1    0    0  501    0  0.00000000000E+00 -0.00000000000E+00 -0.93483091203E+03  0.93483091205E+03  0.50400000000E-02 0. -1.
    8880023    1    1    2    0    0 -0.91498143140E+03  0.62455582964E+03  0.26898751589E+04  0.29827000487E+04  0.65864270000E+03 0.  0.
    8880022    1    1    2    0    0  0.91498143140E+03 -0.62455582964E+03 -0.39184840016E+03  0.11849885341E+04  0.15294330000E+03 0.  0.
<mgrwt>
<rscale>  0 0.12439063E+04</rscale>
<asrwt>0</asrwt>
<pdfrwt beam="1">  1        1 0.14382014E+00 0.12888255E+04</pdfrwt>
<pdfrwt beam="2">  1       -1 0.49736272E+00 0.12888255E+04</pdfrwt>
<totfact> 0.25693118E-02</totfact>
</mgrwt>
</event>
<event>
 4    1  0.2514307E-008  0.9816615E+03  0.7818608E-02  0.9405953E-01
         -1   -1    0    0    0  501 -0.00000000000E+00  0.00000000000E+00  0.12476632064E+04  0.12476632064E+04  0.50400000000E-02 0.  1.
          1   -1    0    0  501    0  0.00000000000E+00 -0.00000000000E+00 -0.79094118449E+03  0.79094118451E+03  0.50400000000E-02 0. -1.
    8880023    1    1    2    0    0  0.22578745424E+03  0.69200364995E+03  0.75378070387E+03  0.12376770911E+04  0.65864270000E+03 0.  1.
    8880022    1    1    2    0    0 -0.22578745424E+03 -0.69200364995E+03 -0.29705868196E+03  0.80092729981E+03  0.15294330000E+03 0.  0.
<mgrwt>
<rscale>  0 0.91587366E+03</rscale>
<asrwt>0</asrwt>
<pdfrwt beam="1">  1        1 0.12168326E+00 0.98166147E+03</pdfrwt>
<pdfrwt beam="2">  1       -1 0.19194818E+00 0.98166147E+03</pdfrwt>
<totfact> 0.38777702E+00</totfact>
</mgrwt>
</event>
<event>
 4    1  0.2514307E-008  0.1340351E+04  0.7818608E-02  0.9031475E-01
         -1   -1    0    0    0  501 -0.00000000000E+00  0.00000000000E+00  0.60957131437E+03  0.60957131439E+03  0.50400000000E-02 0.  1.
          1   -1    0    0  501    0  0.00000000000E+00 -0.00000000000E+00 -0.28165299917E+04  0.28165299917E+04  0.50400000000E-02 0. -1.
    8880023    1    1    2    0    0 -0.37774559540E+03 -0.11045536962E+04 -0.69501520544E+03  0.15098301046E+04  0.65864270000E+03 0.  1.
    8880022    1    1    2    0    0  0.37774559540E+03  0.11045536962E+04 -0.15119434719E+04  0.19162712015E+04  0.15294330000E+03 0.  0.
<mgrwt>
<rscale>  0 0.12975948E+04</rscale>
<asrwt>0</asrwt>
<pdfrwt beam="1">  1        1 0.43331230E+00 0.13403510E+04</pdfrwt>
<pdfrwt beam="2">  1       -1 0.93780204E-01 0.13403510E+04</pdfrwt>
<totfact> 0.87310195E-01</totfact>
</mgrwt>
</event>
<event>
 4    1  0.2514307E-008  0.9747859E+03  0.7818608E-02  0.9415315E-01
          1   -1    0    0  501    0  0.00000000000E+00  0.00000000000E+00  0.23689463565E+04  0.23689463566E+04  0.50400000000E-02 0. -1.
         -1   -1    0    0    0  501 -0.00000000000E+00 -0.00000000000E+00 -0.37470688406E+03  0.37470688409E+03  0.50400000000E-02 0.  1.
    8880023    1    1    2    0    0 -0.62716370175E+03  0.35080344548E+03  0.54001405722E+03  0.11143710129E+04  0.65864270000E+03 0.  0.
    8880022    1    1    2    0    0  0.62716370175E+03 -0.35080344548E+03  0.14542254153E+04  0.16292822277E+04  0.15294330000E+03 0.  0.
<mgrwt>
<rscale>  0 0.90825948E+03</rscale>
<asrwt>0</asrwt>
<pdfrwt beam="1">  1        1 0.36445329E+00 0.97478591E+03</pdfrwt>
<pdfrwt beam="2">  1       -1 0.57647212E-01 0.97478591E+03</pdfrwt>
<totfact> 0.51885262E+00</totfact>
</mgrwt>
</event>
<event>
 4    1  0.2514307E-008  0.1042477E+04  0.7818608E-02  0.9327980E-01
         -1   -1    0    0    0  501 -0.00000000000E+00  0.00000000000E+00  0.16462442814E+04  0.16462442814E+04  0.50400000000E-02 0.  1.
          1   -1    0    0  501    0  0.00000000000E+00 -0.00000000000E+00 -0.68362268418E+03  0.68362268420E+03  0.50400000000E-02 0. -1.
    8880023    1    1    2    0    0 -0.77011766914E+03 -0.24467872845E+03 -0.27381318857E+02  0.10428369227E+04  0.65864270000E+03 0.  0.
    8880022    1    1    2    0    0  0.77011766914E+03  0.24467872845E+03  0.99000291610E+03  0.12870300429E+04  0.15294330000E+03 0.  0.
<mgrwt>
<rscale>  0 0.98247309E+03</rscale>
<asrwt>0</asrwt>
<pdfrwt beam="1">  1        1 0.10517272E+00 0.10424774E+04</pdfrwt>
<pdfrwt beam="2">  1       -1 0.25326834E+00 0.10424774E+04</pdfrwt>
<totfact> 0.18801575E+00</totfact>
</mgrwt>
</event>
<event>
 4    1  0.2514307E-008  0.7833526E+03  0.7818608E-02  0.9748020E-01
         -1   -1    0    0    0  501 -0.00000000000E+00  0.00000000000E+00  0.31953120927E+03  0.31953120930E+03  0.50400000000E-02 0.  1.
          1   -1    0    0  501    0  0.00000000000E+00 -0.00000000000E+00 -0.18372807493E+04  0.18372807493E+04  0.50400000000E-02 0. -1.
    8880023    1    1    2    0    0 -0.19762911423E+03 -0.37519830178E+03 -0.26749082791E+03  0.82776360256E+03  0.65864270000E+03 0.  0.
    8880022    1    1    2    0    0  0.19762911423E+03  0.37519830178E+03 -0.12502587121E+04  0.13290483561E+04  0.15294330000E+03 0.  0.
<mgrwt>
<rscale>  0 0.68228288E+03</rscale>
<asrwt>0</asrwt>
<pdfrwt beam="1">  1        1 0.28265857E+00 0.78335256E+03</pdfrwt>
<pdfrwt beam="2">  1       -1 0.49158649E-01 0.78335256E+03</pdfrwt>
<totfact> 0.16495394E+01</totfact>
</mgrwt>
</event>
<event>
 4    1  0.2514307E-008  0.7176690E+03  0.7818608E-02  0.9930553E-01
          1   -1    0    0  501    0  0.00000000000E+00  0.00000000000E+00  0.24730701742E+03  0.24730701747E+03  0.50400000000E-02 0. -1.
         -1   -1    0    0    0  501 -0.00000000000E+00 -0.00000000000E+00 -0.12703035359E+04  0.12703035359E+04  0.50400000000E-02 0.  1.
    8880023    1    1    2    0    0 -0.28215138531E+03  0.40363757874E+02 -0.94186002655E+03  0.11841237913E+04  0.65864270000E+03 0.  0.
    8880022    1    1    2    0    0  0.28215138531E+03 -0.40363757874E+02 -0.81136491969E+02  0.33348676214E+03  0.15294330000E+03 0.  0.
<mgrwt>
<rscale>  0 0.58803115E+03</rscale>
<asrwt>0</asrwt>
<pdfrwt beam="1">  1        1 0.38047234E-01 0.71766903E+03</pdfrwt>
<pdfrwt beam="2">  1       -1 0.19543131E+00 0.71766903E+03</pdfrwt>
<totfact> 0.18810106E+01</totfact>
</mgrwt>
</event>
<event>
 4    1  0.2514307E-008  0.7670047E+03  0.7818608E-02  0.9787299E-01
         -1   -1    0    0    0  501 -0.00000000000E+00  0.00000000000E+00  0.10761225881E+04  0.10761225881E+04  0.50400000000E-02 0.  1.
          1   -1    0    0  501    0  0.00000000000E+00 -0.00000000000E+00 -0.65540855918E+03  0.65540855920E+03  0.50400000000E-02 0. -1.
    8880023    1    1    2    0    0  0.38244714411E+03 -0.90665496017E+02  0.83953357007E+03  0.11371512088E+04  0.65864270000E+03 0.  0.
    8880022    1    1    2    0    0 -0.38244714411E+03  0.90665496017E+02 -0.41881954115E+03  0.59437993848E+03  0.15294330000E+03 0.  0.
<mgrwt>
<rscale>  0 0.66048616E+03</rscale>
<asrwt>0</asrwt>
<pdfrwt beam="1">  1        1 0.10083209E+00 0.76700473E+03</pdfrwt>
<pdfrwt beam="2">  1       -1 0.16555732E+00 0.76700473E+03</pdfrwt>
<totfact> 0.82220274E+00</totfact>
</mgrwt>
</event>
<event>
 4    1  0.2514307E-008  0.1285961E+04  0.7818608E-02  0.9077780E-01
          1   -1    0    0  501    0  0.00000000000E+00  0.00000000000E+00  0.18911566891E+04  0.18911566891E+04  0.50400000000E-02 0. -1.
         -1   -1    0    0    0  501 -0.00000000000E+00 -0.00000000000E+00 -0.24186948034E+04  0.24186948035E+04  0.50400000000E-02 0.  1.
    8880023    1    1    2    0    0 -0.73479168894E+03 -0.82460027716E+03 -0.20516858554E+04  0.24213858633E+04  0.65864270000E+03 0.  1.
    8880022    1    1    2    0    0  0.73479168894E+03  0.82460027716E+03  0.15241477411E+04  0.18884656293E+04  0.15294330000E+03 0.  0.
<mgrwt>
<rscale>  0 0.12409140E+04</rscale>
<asrwt>0</asrwt>
<pdfrwt beam="1">  1        1 0.29094718E+00 0.12859606E+04</pdfrwt>
<pdfrwt beam="2">  1       -1 0.37210689E+00 0.12859606E+04</pdfrwt>
<totfact> 0.38132706E-02</totfact>
</mgrwt>
</event>
<event>
 4    1  0.2514307E-008  0.6732503E+03  0.7818608E-02  0.1013433E+00
         -1   -1    0    0    0  501 -0.00000000000E+00  0.00000000000E+00  0.44474607307E+03  0.44474607309E+03  0.50400000000E-02 0.  1.
          1   -1    0    0  501    0  0.00000000000E+00 -0.00000000000E+00 -0.98401818547E+03  0.98401818548E+03  0.50400000000E-02 0. -1.
    8880023    1    1    2    0    0  0.62220964585E+02 -0.12483740532E+03  0.16627494479E+03  0.69347919200E+03  0.65864270000E+03 0.  1.
    8880022    1    1    2    0    0 -0.62220964585E+02  0.12483740532E+03 -0.70554705719E+03  0.73528506658E+03  0.15294330000E+03 0.  0.
<mgrwt>
<rscale>  0 0.50132931E+03</rscale>
<asrwt>0</asrwt>
<pdfrwt beam="1">  1        1 0.15138741E+00 0.67325035E+03</pdfrwt>
<pdfrwt beam="2">  1       -1 0.68422473E-01 0.67325035E+03</pdfrwt>
<totfact> 0.34853788E+01</totfact>
</mgrwt>
</event>
<event>
 4    1  0.2514307E-008  0.1375746E+04  0.7818608E-02  0.9002762E-01
         -1   -1    0    0    0  501 -0.00000000000E+00  0.00000000000E+00  0.75039449678E+03  0.75039449680E+03  0.50400000000E-02 0.  1.
          1   -1    0    0  501    0  0.00000000000E+00 -0.00000000000E+00 -0.23389021295E+04  0.23389021295E+04  0.50400000000E-02 0. -1.
    8880023    1    1    2    0    0 -0.64350403920E+02  0.12061198462E+04 -0.52430725748E+03  0.14722684417E+04  0.65864270000E+03 0.  0.
    8880022    1    1    2    0    0  0.64350403920E+02 -0.12061198462E+04 -0.10642003752E+04  0.16170281845E+04  0.15294330000E+03 0.  0.
<mgrwt>
<rscale>  0 0.13343479E+04</rscale>
<asrwt>0</asrwt>
<pdfrwt beam="1">  1        1 0.35983109E+00 0.13757457E+04</pdfrwt>
<pdfrwt beam="2">  1       -1 0.11544531E+00 0.13757457E+04</pdfrwt>
<totfact> 0.11508996E+00</totfact>
</mgrwt>
</event>
<event>
 4    1  0.2514307E-008  0.7579468E+03  0.7818608E-02  0.9810452E-01
         -1   -1    0    0    0  501 -0.00000000000E+00  0.00000000000E+00  0.41419690097E+03  0.41419690100E+03  0.50400000000E-02 0.  1.
          1   -1    0    0  501    0  0.00000000000E+00 -0.00000000000E+00 -0.16437238443E+04  0.16437238443E+04  0.50400000000E-02 0. -1.
    8880023    1    1    2    0    0 -0.23607767843E+03 -0.29144558118E+03  0.57104396456E+01  0.75796834527E+03  0.65864270000E+03 0.  1.
    8880022    1    1    2    0    0  0.23607767843E+03  0.29144558118E+03 -0.12352373830E+04  0.12999524001E+04  0.15294330000E+03 0.  0.
<mgrwt>
<rscale>  0 0.64804625E+03</rscale>
<asrwt>0</asrwt>
<pdfrwt beam="1">  1        1 0.25288059E+00 0.75794683E+03</pdfrwt>
<pdfrwt beam="2">  1       -1 0.63722601E-01 0.75794683E+03</pdfrwt>
<totfact> 0.13496134E+01</totfact>
</mgrwt>
</event>
<event>
 4    1  0.2514307E-008  0.6910652E+03  0.7818608E-02  0.1003650E+00
          1   -1    0    0  501    0  0.00000000000E+00  0.00000000000E+00  0.63878549326E+03  0.63878549328E+03  0.50400000000E-02 0. -1.
         -1   -1    0    0    0  501 -0.00000000000E+00 -0.00000000000E+00 -0.42535018688E+03  0.42535018691E+03  0.50400000000E-02 0.  1.
    8880023    1    1    2    0    0 -0.11718234653E+03 -0.17328948178E+03 -0.52203085801E+02  0.69303413715E+03  0.65864270000E+03 0.  1.
    8880022    1    1    2    0    0  0.11718234653E+03  0.17328948178E+03  0.26563839218E+03  0.37110154304E+03  0.15294330000E+03 0.  0.
<mgrwt>
<rscale>  0 0.54078189E+03</rscale>
<asrwt>0</asrwt>
<pdfrwt beam="1">  1        1 0.98274692E-01 0.69106523E+03</pdfrwt>
<pdfrwt beam="2">  1       -1 0.65438490E-01 0.69106523E+03</pdfrwt>
<totfact> 0.75808402E+01</totfact>
</mgrwt>
</event>
<event>
 4    1  0.2514307E-008  0.9362416E+03  0.7818608E-02  0.9470192E-01
          1   -1    0    0  501    0  0.00000000000E+00  0.00000000000E+00  0.31572381104E+04  0.31572381104E+04  0.50400000000E-02 0. -1.
         -1   -1    0    0    0  501 -0.00000000000E+00 -0.00000000000E+00 -0.21987467914E+03  0.21987467920E+03  0.50400000000E-02 0.  1.
    8880023    1    1    2    0    0 -0.96418994171E+01  0.66531579170E+03  0.12905754048E+04  0.15944068335E+04  0.65864270000E+03 0. -1.
    8880022    1    1    2    0    0  0.96418994171E+01 -0.66531579170E+03  0.16467880264E+04  0.17827059561E+04  0.15294330000E+03 0.  0.
<mgrwt>
<rscale>  0 0.86517565E+03</rscale>
<asrwt>0</asrwt>
<pdfrwt beam="1">  1        1 0.48572895E+00 0.93624157E+03</pdfrwt>
<pdfrwt beam="2">  1       -1 0.33826873E-01 0.93624157E+03</pdfrwt>
<totfact> 0.39224754E+00</totfact>
</mgrwt>
</event>
<event>
 4    1  0.2514307E-008  0.9850295E+03  0.7818608E-02  0.9401411E-01
          1   -1    0    0  501    0  0.00000000000E+00  0.00000000000E+00  0.22326949834E+04  0.22326949835E+04  0.50400000000E-02 0. -1.
         -1   -1    0    0    0  501 -0.00000000000E+00 -0.00000000000E+00 -0.52968090201E+03  0.52968090203E+03  0.50400000000E-02 0.  1.
    8880023    1    1    2    0    0  0.29828942273E+03 -0.66895160198E+03  0.95988258252E+02  0.98969529528E+03  0.65864270000E+03 0.  1.
    8880022    1    1    2    0    0 -0.29828942273E+03  0.66895160198E+03  0.16070258232E+04  0.17726805902E+04  0.15294330000E+03 0.  0.
<mgrwt>
<rscale>  0 0.91959643E+03</rscale>
<asrwt>0</asrwt>
<pdfrwt beam="1">  1        1 0.34349153E+00 0.98502946E+03</pdfrwt>
<pdfrwt beam="2">  1       -1 0.81489370E-01 0.98502946E+03</pdfrwt>
<totfact> 0.31551264E+00</totfact>
</mgrwt>
</event>
<event>
 4    1  0.2514307E-008  0.7504746E+03  0.7818608E-02  0.9830423E-01
          1   -1    0    0  501    0  0.00000000000E+00  0.00000000000E+00  0.69014136361E+03  0.69014136363E+03  0.50400000000E-02 0. -1.
         -1   -1    0    0    0  501 -0.00000000000E+00 -0.00000000000E+00 -0.70572002904E+03  0.70572002906E+03  0.50400000000E-02 0.  1.
    8880023    1    1    2    0    0  0.24975950744E+03  0.25888629080E+03 -0.39760281306E+03  0.84929389868E+03  0.65864270000E+03 0.  0.
    8880022    1    1    2    0    0 -0.24975950744E+03 -0.25888629080E+03  0.38202414763E+03  0.54656749401E+03  0.15294330000E+03 0.  0.
<mgrwt>
<rscale>  0 0.63755130E+03</rscale>
<asrwt>0</asrwt>
<pdfrwt beam="1">  1        1 0.10617559E+00 0.75047460E+03</pdfrwt>
<pdfrwt beam="2">  1       -1 0.10857231E+00 0.75047460E+03</pdfrwt>
<totfact> 0.22486069E+01</totfact>
</mgrwt>
</event>
<event>
 4    1  0.2514307E-008  0.1800086E+04  0.7818608E-02  0.8722489E-01
          1   -1    0    0  501    0  0.00000000000E+00  0.00000000000E+00  0.13338381096E+04  0.13338381096E+04  0.50400000000E-02 0. -1.
         -1   -1    0    0    0  501 -0.00000000000E+00 -0.00000000000E+00 -0.30672942929E+04  0.30672942929E+04  0.50400000000E-02 0.  1.
    8880023    1    1    2    0    0  0.74421840740E+03 -0.15008789092E+04 -0.20079061870E+04  0.26966638649E+04  0.65864270000E+03 0.  0.
    8880022    1    1    2    0    0 -0.74421840740E+03  0.15008789092E+04  0.27445000370E+03  0.17044685376E+04  0.15294330000E+03 0.  0.
<mgrwt>
<rscale>  0 0.17698689E+04</rscale>
<asrwt>0</asrwt>
<pdfrwt beam="1">  1        1 0.20520586E+00 0.18000858E+04</pdfrwt>
<pdfrwt beam="2">  1       -1 0.47189143E+00 0.18000858E+04</pdfrwt>
<totfact> 0.17852693E-02</totfact>
</mgrwt>
</event>
<event>
 4    1  0.2514307E-008  0.1235871E+04  0.7818608E-02  0.9123018E-01
          1   -1    0    0  501    0  0.00000000000E+00  0.00000000000E+00  0.27144611848E+04  0.27144611848E+04  0.50400000000E-02 0. -1.
         -1   -1    0    0    0  501 -0.00000000000E+00 -0.00000000000E+00 -0.11567989132E+04  0.11567989132E+04  0.50400000000E-02 0.  1.
    8880023    1    1    2    0    0  0.10255453307E+04  0.20450968347E+03 -0.66986013266E+03  0.14057347685E+04  0.65864270000E+03 0.  1.
    8880022    1    1    2    0    0 -0.10255453307E+04 -0.20450968347E+03  0.22275224043E+04  0.24655253295E+04  0.15294330000E+03 0.  0.
<mgrwt>
<rscale>  0 0.11884600E+04</rscale>
<asrwt>0</asrwt>
<pdfrwt beam="1">  1        1 0.41760941E+00 0.12358712E+04</pdfrwt>
<pdfrwt beam="2">  1       -1 0.17796906E+00 0.12358712E+04</pdfrwt>
<totfact> 0.20275373E-01</totfact>
</mgrwt>
</event>
<event>
 4    1  0.2514307E-008  0.8381891E+03  0.7818608E-02  0.9633604E-01
         -1   -1    0    0    0  501 -0.00000000000E+00  0.00000000000E+00  0.11493505423E+04  0.11493505424E+04  0.50400000000E-02 0.  1.
          1   -1    0    0  501    0  0.00000000000E+00 -0.00000000000E+00 -0.86652792500E+03  0.86652792502E+03  0.50400000000E-02 0. -1.
    8880023    1    1    2    0    0 -0.51531879965E+03 -0.56544388221E+02  0.87666462199E+03  0.12128898544E+04  0.65864270000E+03 0.  1.
    8880022    1    1    2    0    0  0.51531879965E+03  0.56544388221E+02 -0.59384200466E+03  0.80298861301E+03  0.15294330000E+03 0.  0.
<mgrwt>
<rscale>  0 0.75111394E+03</rscale>
<asrwt>0</asrwt>
<pdfrwt beam="1">  1        1 0.13331199E+00 0.83818908E+03</pdfrwt>
<pdfrwt beam="2">  1       -1 0.17682316E+00 0.83818908E+03</pdfrwt>
<totfact> 0.43561416E+00</totfact>
</mgrwt>
</event>
<event>
 4    1  0.2514307E-008  0.1179751E+04  0.7818608E-02  0.9177061E-01
         -1   -1    0    0    0  501 -0.00000000000E+00  0.00000000000E+00  0.19274611359E+04  0.19274611359E+04  0.50400000000E-02 0.  1.
          1   -1    0    0  501    0  0.00000000000E+00 -0.00000000000E+00 -0.15614179375E+04  0.15614179375E+04  0.50400000000E-02 0. -1.
    8880023    1    1    2    0    0  0.86524008379E+03  0.45756139447E+03  0.15482298543E+04  0.19464913871E+04  0.65864270000E+03 0.  1.
    8880022    1    1    2    0    0 -0.86524008379E+03 -0.45756139447E+03 -0.11821866559E+04  0.15423876863E+04  0.15294330000E+03 0.  0.
<mgrwt>
<rscale>  0 0.11293363E+04</rscale>
<asrwt>0</asrwt>
<pdfrwt beam="1">  1        1 0.24021814E+00 0.11797513E+04</pdfrwt>
<pdfrwt beam="2">  1       -1 0.29653248E+00 0.11797513E+04</pdfrwt>
<totfact> 0.20362615E-01</totfact>
</mgrwt>
</event>
<event>
 4    1  0.2514307E-008  0.7438415E+03  0.7818608E-02  0.9848895E-01
          1   -1    0    0  501    0  0.00000000000E+00  0.00000000000E+00  0.92500932945E+03  0.92500932947E+03  0.50400000000E-02 0. -1.
         -1   -1    0    0    0  501 -0.00000000000E+00 -0.00000000000E+00 -0.11440916198E+04  0.11440916198E+04  0.50400000000E-02 0.  1.
    8880023    1    1    2    0    0 -0.33922431119E+03 -0.66459800612E+02 -0.97357668697E+03  0.12252150057E+04  0.65864270000E+03 0.  0.
    8880022    1    1    2    0    0  0.33922431119E+03  0.66459800612E+02  0.75449439659E+03  0.84388594366E+03  0.15294330000E+03 0. -1.
<mgrwt>
<rscale>  0 0.62803290E+03</rscale>
<asrwt>0</asrwt>
<pdfrwt beam="1">  1        1 0.14230913E+00 0.74384155E+03</pdfrwt>
<pdfrwt beam="2">  1       -1 0.17601410E+00 0.74384155E+03</pdfrwt>
<totfact> 0.40108932E+00</totfact>
</mgrwt>
</event>
<event>
 4    1  0.2514307E-008  0.7115896E+03  0.7818608E-02  0.9952145E-01
          1   -1    0    0  501    0  0.00000000000E+00  0.00000000000E+00  0.17001478564E+04  0.17001478564E+04  0.50400000000E-02 0. -1.
         -1   -1    0    0    0  501 -0.00000000000E+00 -0.00000000000E+00 -0.17830598449E+03  0.17830598456E+03  0.50400000000E-02 0.  1.
    8880023    1    1    2    0    0  0.16207662321E+03 -0.21512938647E+03  0.69156205504E+03  0.99227907715E+03  0.65864270000E+03 0.  1.
    8880022    1    1    2    0    0 -0.16207662321E+03  0.21512938647E+03  0.83027981691E+03  0.88617476385E+03  0.15294330000E+03 0.  0.
<mgrwt>
<rscale>  0 0.57799327E+03</rscale>
<asrwt>0</asrwt>
<pdfrwt beam="1">  1        1 0.26156121E+00 0.71158955E+03</pdfrwt>
<pdfrwt beam="2">  1       -1 0.27431690E-01 0.71158955E+03</pdfrwt>
<totfact> 0.58727017E+01</totfact>
</mgrwt>
</event>
<event>
 4    1  0.2514307E-008  0.1022504E+04  0.7818608E-02  0.9352690E-01
         -1   -1    0    0    0  501 -0.00000000000E+00  0.00000000000E+00  0.14824341439E+04  0.14824341439E+04  0.50400000000E-02 0.  1.
          1   -1    0    0  501    0  0.00000000000E+00 -0.00000000000E+00 -0.71416825062E+03  0.71416825064E+03  0.50400000000E-02 0. -1.
    8880023    1    1    2    0    0  0.40206491052E+03 -0.67085588181E+03  0.93143233388E+03  0.13831414264E+04  0.65864270000E+03 0.  0.
    8880022    1    1    2    0    0 -0.40206491052E+03  0.67085588181E+03 -0.16316644059E+03  0.81346096820E+03  0.15294330000E+03 0.  0.
<mgrwt>
<rscale>  0 0.96073491E+03</rscale>
<asrwt>0</asrwt>
<pdfrwt beam="1">  1        1 0.10987204E+00 0.10225038E+04</pdfrwt>
<pdfrwt beam="2">  1       -1 0.22806679E+00 0.10225038E+04</pdfrwt>
<totfact> 0.25773146E+00</totfact>
</mgrwt>
</event>
<event>
 4    1  0.2514307E-008  0.1412501E+04  0.7818608E-02  0.8974030E-01
          1   -1    0    0  501    0  0.00000000000E+00  0.00000000000E+00  0.30958706114E+04  0.30958706114E+04  0.50400000000E-02 0. -1.
         -1   -1    0    0    0  501 -0.00000000000E+00 -0.00000000000E+00 -0.84151325869E+03  0.84151325871E+03  0.50400000000E-02 0.  1.
    8880023    1    1    2    0    0  0.99676050878E+02 -0.12455570062E+04  0.67544923612E+02  0.14141145971E+04  0.65864270000E+03 0.  1.
    8880022    1    1    2    0    0 -0.99676050878E+02  0.12455570062E+04  0.21868124291E+04  0.25232692729E+04  0.15294330000E+03 0.  0.
<mgrwt>
<rscale>  0 0.13724173E+04</rscale>
<asrwt>0</asrwt>
<pdfrwt beam="1">  1        1 0.47628779E+00 0.14125005E+04</pdfrwt>
<pdfrwt beam="2">  1       -1 0.12946358E+00 0.14125005E+04</pdfrwt>
<totfact> 0.25155301E-01</totfact>
</mgrwt>
</event>
<event>
 4    1  0.3092243E-008  0.1159216E+04  0.7818608E-02  0.9197825E-01
         -1   -1    0    0    0  501 -0.00000000000E+00  0.00000000000E+00  0.19355631622E+04  0.19355631622E+04  0.50400000000E-02 0.  1.
          1   -1    0    0  501    0  0.00000000000E+00 -0.00000000000E+00 -0.18689096369E+04  0.18689096369E+04  0.50400000000E-02 0. -1.
    8880023    1    1    2    0    0 -0.95340992463E+03 -0.31304368012E+02  0.16098651322E+04  0.19837959567E+04  0.65864270000E+03 0.  0.
    8880022    1    1    2    0    0  0.95340992463E+03  0.31304368012E+02 -0.15432116069E+04  0.18206768424E+04  0.15294330000E+03 0.  0.
<mgrwt>
<rscale>  0 0.11075910E+04</rscale>
<asrwt>0</asrwt>
<pdfrwt beam="1">  1        1 0.28752456E+00 0.11592155E+04</pdfrwt>
<pdfrwt beam="2">  1       -1 0.29777895E+00 0.11592155E+04</pdfrwt>
<totfact> 0.12382832E-01</totfact>
</mgrwt>
</event>
<event>
 4    1  0.2514307E-008  0.1821508E+04  0.7818608E-02  0.8710732E-01
         -1   -1    0    0    0  501 -0.00000000000E+00  0.00000000000E+00  0.16646765772E+04  0.16646765772E+04  0.50400000000E-02 0.  1.
          1   -1    0    0  501    0  0.00000000000E+00 -0.00000000000E+00 -0.21892903456E+04  0.21892903456E+04  0.50400000000E-02 0. -1.
    8880023    1    1    2    0    0 -0.14925536683E+04  0.81016247955E+03  0.46838857945E+03  0.18807652069E+04  0.65864270000E+03 0.  0.
    8880022    1    1    2    0    0  0.14925536683E+04 -0.81016247955E+03 -0.99300234784E+03  0.19732017159E+04  0.15294330000E+03 0.  0.
<mgrwt>
<rscale>  0 0.17916892E+04</rscale>
<asrwt>0</asrwt>
<pdfrwt beam="1">  1        1 0.33681390E+00 0.18215076E+04</pdfrwt>
<pdfrwt beam="2">  1       -1 0.25610409E+00 0.18215076E+04</pdfrwt>
<totfact> 0.12812470E-01</totfact>
</mgrwt>
</event>
<event>
 4    1  0.2514307E-008  0.6598151E+03  0.7818608E-02  0.1024347E+00
          1   -1    0    0  501    0  0.00000000000E+00  0.00000000000E+00  0.49732357703E+03  0.49732357705E+03  0.50400000000E-02 0. -1.
         -1   -1    0    0    0  501 -0.00000000000E+00 -0.00000000000E+00 -0.33814381982E+03  0.33814381986E+03  0.50400000000E-02 0.  1.
    8880023    1    1    2    0    0  0.38631051030E+02  0.73033226506E+01  0.10272421106E+03  0.66776355578E+03  0.65864270000E+03 0.  1.
    8880022    1    1    2    0    0 -0.38631051030E+02 -0.73033226506E+01  0.56455546145E+02  0.16770384113E+03  0.15294330000E+03 0.  0.
<mgrwt>
<rscale>  0 0.46150132E+03</rscale>
<asrwt>0</asrwt>
<pdfrwt beam="1">  1        1 0.76511319E-01 0.65981505E+03</pdfrwt>
<pdfrwt beam="2">  1       -1 0.52022126E-01 0.65981505E+03</pdfrwt>
<totfact> 0.16942719E+02</totfact>
</mgrwt>
</event>
<event>
 4    1  0.2514307E-008  0.1840910E+04  0.7818608E-02  0.8700238E-01
          1   -1    0    0  501    0  0.00000000000E+00  0.00000000000E+00  0.23527254081E+04  0.23527254081E+04  0.50400000000E-02 0. -1.
         -1   -1    0    0    0  501 -0.00000000000E+00 -0.00000000000E+00 -0.13688223792E+04  0.13688223792E+04  0.50400000000E-02 0.  1.
    8880023    1    1    2    0    0 -0.53571841587E+03 -0.16334456206E+04  0.30026593106E+03  0.18652368890E+04  0.65864270000E+03 0.  0.
    8880022    1    1    2    0    0  0.53571841587E+03  0.16334456206E+04  0.68363709779E+03  0.18563108983E+04  0.15294330000E+03 0.  0.
<mgrwt>
<rscale>  0 0.18114429E+04</rscale>
<asrwt>0</asrwt>
<pdfrwt beam="1">  1        1 0.36195776E+00 0.18409098E+04</pdfrwt>
<pdfrwt beam="2">  1       -1 0.21058806E+00 0.18409098E+04</pdfrwt>
<totfact> 0.19854084E-01</totfact>
</mgrwt>
</event>
<event>
 4    1  0.2514307E-008  0.7081441E+03  0.7818608E-02  0.9964958E-01
         -1   -1    0    0    0  501 -0.00000000000E+00  0.00000000000E+00  0.34313259346E+03  0.34313259350E+03  0.50400000000E-02 0.  1.
          1   -1    0    0  501    0  0.00000000000E+00 -0.00000000000E+00 -0.12695343810E+04  0.12695343810E+04  0.50400000000E-02 0. -1.
    8880023    1    1    2    0    0 -0.36748669331E+02 -0.25750227551E+03 -0.10663355994E+04  0.12800545704E+04  0.65864270000E+03 0. -1.
    8880022    1    1    2    0    0  0.36748669331E+02  0.25750227551E+03  0.13993381186E+03  0.33261240402E+03  0.15294330000E+03 0.  0.
<mgrwt>
<rscale>  0 0.57213822E+03</rscale>
<asrwt>0</asrwt>
<pdfrwt beam="1">  1        1 0.19531298E+00 0.70814412E+03</pdfrwt>
<pdfrwt beam="2">  1       -1 0.52789630E-01 0.70814412E+03</pdfrwt>
<totfact> 0.35561098E+01</totfact>
</mgrwt>
</event>
<event>
 4    1  0.2514307E-008  0.1210620E+04  0.7818608E-02  0.9146868E-01
          1   -1    0    0  501    0  0.00000000000E+00  0.00000000000E+00  0.25037231400E+04  0.25037231400E+04  0.50400000000E-02 0. -1.
         -1   -1    0    0    0  501 -0.00000000000E+00 -0.00000000000E+00 -0.70907045740E+03  0.70907045741E+03  0.50400000000E-02 0.  1.
    8880023    1    1    2    0    0  0.67507728742E+03 -0.75898681232E+03  0.79079038127E+02  0.12131999117E+04  0.65864270000E+03 0.  0.
    8880022    1    1    2    0    0 -0.67507728742E+03  0.75898681232E+03  0.17155736445E+04  0.19995936857E+04  0.15294330000E+03 0.  0.
<mgrwt>
<rscale>  0 0.11619081E+04</rscale>
<asrwt>0</asrwt>
<pdfrwt beam="1">  1        1 0.38518817E+00 0.12106199E+04</pdfrwt>
<pdfrwt beam="2">  1       -1 0.10908776E+00 0.12106199E+04</pdfrwt>
<totfact> 0.10357577E+00</totfact>
</mgrwt>
</event>
<event>
 4    1  0.2514307E-008  0.7810352E+03  0.7818608E-02  0.9753411E-01
         -1   -1    0    0    0  501 -0.00000000000E+00  0.00000000000E+00  0.12300277266E+04  0.12300277266E+04  0.50400000000E-02 0.  1.
          1   -1    0    0  501    0  0.00000000000E+00 -0.00000000000E+00 -0.13168290630E+04  0.13168290630E+04  0.50400000000E-02 0. -1.
    8880023    1    1    2    0    0 -0.23474751355E+03 -0.34799341660E+03  0.10596753453E+04  0.13164071775E+04  0.65864270000E+03 0.  0.
    8880022    1    1    2    0    0  0.23474751355E+03  0.34799341660E+03 -0.11464766818E+04  0.12304496122E+04  0.15294330000E+03 0.  0.
<mgrwt>
<rscale>  0 0.67923858E+03</rscale>
<asrwt>0</asrwt>
<pdfrwt beam="1">  1        1 0.20258909E+00 0.78103522E+03</pdfrwt>
<pdfrwt beam="2">  1       -1 0.18923504E+00 0.78103522E+03</pdfrwt>
<totfact> 0.16388514E+00</totfact>
</mgrwt>
</event>
<event>
 4    1  0.2514307E-008  0.2058955E+04  0.7818608E-02  0.8591385E-01
         -1   -1    0    0    0  501 -0.00000000000E+00  0.00000000000E+00  0.13138546768E+04  0.13138546768E+04  0.50400000000E-02 0.  1.
          1   -1    0    0  501    0  0.00000000000E+00 -0.00000000000E+00 -0.32609312064E+04  0.32609312064E+04  0.50400000000E-02 0. -1.
    8880023    1    1    2    0    0 -0.10063123643E+04 -0.16711729418E+04 -0.15524406488E+04  0.25786364130E+04  0.65864270000E+03 0. -1.
    8880022    1    1    2    0    0  0.10063123643E+04  0.16711729418E+04 -0.39463588077E+03  0.19961494702E+04  0.15294330000E+03 0.  1.
<mgrwt>
<rscale>  0 0.20329138E+04</rscale>
<asrwt>0</asrwt>
<pdfrwt beam="1">  1        1 0.50168172E+00 0.20589545E+04</pdfrwt>
<pdfrwt beam="2">  1       -1 0.20213149E+00 0.20589545E+04</pdfrwt>
<totfact> 0.49457564E-02</totfact>
</mgrwt>
</event>
<event>
 4    1  0.2514307E-008  0.1960705E+04  0.7818608E-02  0.8638490E-01
         -1   -1    0    0    0  501 -0.00000000000E+00  0.00000000000E+00  0.42564557513E+04  0.42564557513E+04  0.50400000000E-02 0.  1.
          1   -1    0    0  501    0  0.00000000000E+00 -0.00000000000E+00 -0.12147988658E+04  0.12147988658E+04  0.50400000000E-02 0. -1.
    8880023    1    1    2    0    0 -0.18412359194E+04  0.14284926732E+03  0.61168390661E+02  0.19616593492E+04  0.65864270000E+03 0.  0.
    8880022    1    1    2    0    0  0.18412359194E+04 -0.14284926732E+03  0.29804884948E+04  0.35095952679E+04  0.15294330000E+03 0.  0.
<mgrwt>
<rscale>  0 0.19332297E+04</rscale>
<asrwt>0</asrwt>
<pdfrwt beam="1">  1        1 0.18689213E+00 0.19607054E+04</pdfrwt>
<pdfrwt beam="2">  1       -1 0.65483934E+00 0.19607054E+04</pdfrwt>
<totfact> 0.25738915E-03</totfact>
</mgrwt>
</event>
<event>
 4    1  0.2514307E-008  0.1716470E+04  0.7818608E-02  0.8770206E-01
          1   -1    0    0  501    0  0.00000000000E+00  0.00000000000E+00  0.34912768920E+04  0.34912768920E+04  0.50400000000E-02 0. -1.
         -1   -1    0    0    0  501 -0.00000000000E+00 -0.00000000000E+00 -0.87206347102E+03  0.87206347104E+03  0.50400000000E-02 0.  1.
    8880023    1    1    2    0    0  0.24449461644E+03 -0.15661039604E+04  0.66095179740E+03  0.18393277894E+04  0.65864270000E+03 0.  0.
    8880022    1    1    2    0    0 -0.24449461644E+03  0.15661039604E+04  0.19582616235E+04  0.25240125736E+04  0.15294330000E+03 0.  0.
<mgrwt>
<rscale>  0 0.16845839E+04</rscale>
<asrwt>0</asrwt>
<pdfrwt beam="1">  1        1 0.53711953E+00 0.17164701E+04</pdfrwt>
<pdfrwt beam="2">  1       -1 0.13416361E+00 0.17164701E+04</pdfrwt>
<totfact> 0.11086870E-01</totfact>
</mgrwt>
</event>
<event>
 4    1  0.2514307E-008  0.7876265E+03  0.7818608E-02  0.9738218E-01
          1   -1    0    0  501    0  0.00000000000E+00  0.00000000000E+00  0.86421480674E+03  0.86421480676E+03  0.50400000000E-02 0. -1.
         -1   -1    0    0    0  501 -0.00000000000E+00 -0.00000000000E+00 -0.10210698635E+04  0.10210698635E+04  0.50400000000E-02 0.  1.
    8880023    1    1    2    0    0 -0.12665129051E+03  0.41292219568E+03 -0.78220366610E+03  0.11100441751E+04  0.65864270000E+03 0.  1.
    8880022    1    1    2    0    0  0.12665129051E+03 -0.41292219568E+03  0.62534860938E+03  0.77524049516E+03  0.15294330000E+03 0.  0.
<mgrwt>
<rscale>  0 0.68786204E+03</rscale>
<asrwt>0</asrwt>
<pdfrwt beam="1">  1        1 0.13295612E+00 0.78762649E+03</pdfrwt>
<pdfrwt beam="2">  1       -1 0.15708767E+00 0.78762649E+03</pdfrwt>
<totfact> 0.61657057E+00</totfact>
</mgrwt>
</event>
<event>
 4    1  0.2514307E-008  0.1549874E+04  0.7818608E-02  0.8875198E-01
         -1   -1    0    0    0  501 -0.00000000000E+00  0.00000000000E+00  0.23771797516E+04  0.23771797516E+04  0.50400000000E-02 0.  1.
          1   -1    0    0  501    0  0.00000000000E+00 -0.00000000000E+00 -0.17744232036E+04  0.17744232036E+04  0.50400000000E-02 0. -1.
    8880023    1    1    2    0    0 -0.20369124250E+03 -0.13880960287E+04  0.17465178993E+04  0.23350451144E+04  0.65864270000E+03 0.  0.
    8880022    1    1    2    0    0  0.20369124250E+03  0.13880960287E+04 -0.11437613513E+04  0.18165578408E+04  0.15294330000E+03 0.  0.
<mgrwt>
<rscale>  0 0.15139976E+04</rscale>
<asrwt>0</asrwt>
<pdfrwt beam="1">  1        1 0.27298818E+00 0.15498745E+04</pdfrwt>
<pdfrwt beam="2">  1       -1 0.36571996E+00 0.15498745E+04</pdfrwt>
<totfact> 0.48596014E-02</totfact>
</mgrwt>
</event>
<event>
 4    1  0.2514307E-008  0.7928893E+03  0.7818608E-02  0.9726387E-01
         -1   -1    0    0    0  501 -0.00000000000E+00  0.00000000000E+00  0.27887595198E+04  0.27887595198E+04  0.50400000000E-02 0.  1.
          1   -1    0    0  501    0  0.00000000000E+00 -0.00000000000E+00 -0.55193842458E+03  0.55193842461E+03  0.50400000000E-02 0. -1.
    8880023    1    1    2    0    0  0.41430446910E+03 -0.15236499714E+03  0.26194536286E+04  0.27368249495E+04  0.65864270000E+03 0.  0.
    8880022    1    1    2    0    0 -0.41430446910E+03  0.15236499714E+03 -0.38263253334E+03  0.60387299497E+03  0.15294330000E+03 0.  0.
<mgrwt>
<rscale>  0 0.69467223E+03</rscale>
<asrwt>0</asrwt>
<pdfrwt beam="1">  1        1 0.84913602E-01 0.79288933E+03</pdfrwt>
<pdfrwt beam="2">  1       -1 0.42903993E+00 0.79288933E+03</pdfrwt>
<totfact> 0.18607478E-01</totfact>
</mgrwt>
</event>
<event>
 4    1  0.2514307E-008  0.6768488E+03  0.7818608E-02  0.1011165E+00
         -1   -1    0    0    0  501 -0.00000000000E+00  0.00000000000E+00  0.65346064975E+03  0.65346064977E+03  0.50400000000E-02 0.  1.
          1   -1    0    0  501    0  0.00000000000E+00 -0.00000000000E+00 -0.10192511045E+04  0.10192511046E+04  0.50400000000E-02 0. -1.
    8880023    1    1    2    0    0  0.13922420780E+03 -0.70218797173E+02  0.46010323393E+03  0.81842486011E+03  0.65864270000E+03 0.  1.
    8880022    1    1    2    0    0 -0.13922420780E+03  0.70218797173E+02 -0.82589368874E+03  0.85428689421E+03  0.15294330000E+03 0.  0.
<mgrwt>
<rscale>  0 0.51014077E+03</rscale>
<asrwt>0</asrwt>
<pdfrwt beam="1">  1        1 0.15680786E+00 0.67684878E+03</pdfrwt>
<pdfrwt beam="2">  1       -1 0.10053241E+00 0.67684878E+03</pdfrwt>
<totfact> 0.14332598E+01</totfact>
</mgrwt>
</event>
<event>
 4    1  0.2514307E-008  0.1016349E+04  0.7818608E-02  0.9360474E-01
         -1   -1    0    0    0  501 -0.00000000000E+00  0.00000000000E+00  0.58711233254E+03  0.58711233256E+03  0.50400000000E-02 0.  1.
          1   -1    0    0  501    0  0.00000000000E+00 -0.00000000000E+00 -0.14954538201E+04  0.14954538201E+04  0.50400000000E-02 0. -1.
    8880023    1    1    2    0    0  0.75971232566E+03  0.14829596296E+03 -0.23001782241E+03  0.10420522613E+04  0.65864270000E+03 0.  0.
    8880022    1    1    2    0    0 -0.75971232566E+03 -0.14829596296E+03 -0.67832366510E+03  0.10405138913E+04  0.15294330000E+03 0.  0.
<mgrwt>
<rscale>  0 0.95401127E+03</rscale>
<asrwt>0</asrwt>
<pdfrwt beam="1">  1        1 0.23006982E+00 0.10163487E+04</pdfrwt>
<pdfrwt beam="2">  1       -1 0.90324975E-01 0.10163487E+04</pdfrwt>
<totfact> 0.79266958E+00</totfact>
</mgrwt>
</event>
<event>
 4    1  0.2514307E-008  0.1077347E+04  0.7818608E-02  0.9286707E-01
          1   -1    0    0  501    0  0.00000000000E+00  0.00000000000E+00  0.25375970861E+04  0.25375970861E+04  0.50400000000E-02 0. -1.
         -1   -1    0    0    0  501 -0.00000000000E+00 -0.00000000000E+00 -0.39411846153E+03  0.39411846156E+03  0.50400000000E-02 0.  1.
    8880023    1    1    2    0    0  0.11360052142E+03  0.84496197639E+03  0.83739551453E+03  0.13645172311E+04  0.65864270000E+03 0.  0.
    8880022    1    1    2    0    0 -0.11360052142E+03 -0.84496197639E+03  0.13060831100E+04  0.15671983165E+04  0.15294330000E+03 0.  0.
<mgrwt>
<rscale>  0 0.10201591E+04</rscale>
<asrwt>0</asrwt>
<pdfrwt beam="1">  1        1 0.39039956E+00 0.10773468E+04</pdfrwt>
<pdfrwt beam="2">  1       -1 0.60633609E-01 0.10773468E+04</pdfrwt>
<totfact> 0.35501531E+00</totfact>
</mgrwt>
</event>
<event>
 4    1  0.2514307E-008  0.1393185E+04  0.7818608E-02  0.8988996E-01
         -1   -1    0    0    0  501 -0.00000000000E+00  0.00000000000E+00  0.16206571014E+04  0.16206571014E+04  0.50400000000E-02 0.  1.
          1   -1    0    0  501    0  0.00000000000E+00 -0.00000000000E+00 -0.13664738898E+04  0.13664738898E+04  0.50400000000E-02 0. -1.
    8880023    1    1    2    0    0 -0.10037266741E+04 -0.70688523046E+03  0.83091372729E+03  0.16221534434E+04  0.65864270000E+03 0.  0.
    8880022    1    1    2    0    0  0.10037266741E+04  0.70688523046E+03 -0.57673051571E+03  0.13649775478E+04  0.15294330000E+03 0.  0.
<mgrwt>
<rscale>  0 0.13524224E+04</rscale>
<asrwt>0</asrwt>
<pdfrwt beam="1">  1        1 0.21022675E+00 0.13931849E+04</pdfrwt>
<pdfrwt beam="2">  1       -1 0.24933186E+00 0.13931849E+04</pdfrwt>
<totfact> 0.54737403E-01</totfact>
</mgrwt>
</event>
<event>
 4    1  0.2514307E-008  0.9248279E+03  0.7818608E-02  0.9487296E-01
          1   -1    0    0  501    0  0.00000000000E+00  0.00000000000E+00  0.18733219983E+04  0.18733219983E+04  0.50400000000E-02 0. -1.
         -1   -1    0    0    0  501 -0.00000000000E+00 -0.00000000000E+00 -0.91396999498E+03  0.91396999500E+03  0.50400000000E-02 0.  1.
    8880023    1    1    2    0    0  0.63739673795E+03 -0.12337658758E+03 -0.59237972753E+03  0.10982806252E+04  0.65864270000E+03 0.  0.
    8880022    1    1    2    0    0 -0.63739673795E+03  0.12337658758E+03  0.15517317308E+04  0.16890113680E+04  0.15294330000E+03 0.  0.
<mgrwt>
<rscale>  0 0.85226965E+03</rscale>
<asrwt>0</asrwt>
<pdfrwt beam="1">  1        1 0.28820338E+00 0.92482787E+03</pdfrwt>
<pdfrwt beam="2">  1       -1 0.14061077E+00 0.92482787E+03</pdfrwt>
<totfact> 0.15371753E+00</totfact>
</mgrwt>
</event>
<event>
 4    1  0.2514307E-008  0.1578832E+04  0.7818608E-02  0.8855887E-01
          1   -1    0    0  501    0  0.00000000000E+00  0.00000000000E+00  0.20800468044E+04  0.20800468044E+04  0.50400000000E-02 0. -1.
         -1   -1    0    0    0  501 -0.00000000000E+00 -0.00000000000E+00 -0.13976639178E+04  0.13976639178E+04  0.50400000000E-02 0.  1.
    8880023    1    1    2    0    0  0.61241205106E+03 -0.12976326363E+04 -0.45192969315E+03  0.16422392131E+04  0.65864270000E+03 0.  0.
    8880022    1    1    2    0    0 -0.61241205106E+03  0.12976326363E+04  0.11343125798E+04  0.18354715091E+04  0.15294330000E+03 0.  0.
<mgrwt>
<rscale>  0 0.15437235E+04</rscale>
<asrwt>0</asrwt>
<pdfrwt beam="1">  1        1 0.32000720E+00 0.15788316E+04</pdfrwt>
<pdfrwt beam="2">  1       -1 0.21502522E+00 0.15788316E+04</pdfrwt>
<totfact> 0.29257494E-01</totfact>
</mgrwt>
</event>
<event>
 4    1  0.2514307E-008  0.7134372E+03  0.7818608E-02  0.9945452E-01
          1   -1    0    0  501    0  0.00000000000E+00  0.00000000000E+00  0.16356070554E+04  0.16356070554E+04  0.50400000000E-02 0. -1.
         -1   -1    0    0    0  501 -0.00000000000E+00 -0.00000000000E+00 -0.16947129068E+03  0.16947129075E+03  0.50400000000E-02 0.  1.
    8880023    1    1    2    0    0 -0.25944522051E+03  0.88716737476E+02  0.82150562817E+03  0.10880552308E+04  0.65864270000E+03 0.  0.
    8880022    1    1    2    0    0  0.25944522051E+03 -0.88716737476E+02  0.64463013656E+03  0.71702311534E+03  0.15294330000E+03 0.  0.
<mgrwt>
<rscale>  0 0.58108170E+03</rscale>
<asrwt>0</asrwt>
<pdfrwt beam="1">  1        1 0.25163186E+00 0.71343723E+03</pdfrwt>
<pdfrwt beam="2">  1       -1 0.26072506E-01 0.71343723E+03</pdfrwt>
<totfact> 0.70811917E+01</totfact>
</mgrwt>
</event>
<event>
 4    1  0.2514307E-008  0.7352059E+03  0.7818608E-02  0.9874139E-01
          1   -1    0    0  501    0  0.00000000000E+00  0.00000000000E+00  0.58806704103E+03  0.58806704106E+03  0.50400000000E-02 0. -1.
         -1   -1    0    0    0  501 -0.00000000000E+00 -0.00000000000E+00 -0.89223994185E+03  0.89223994186E+03  0.50400000000E-02 0.  1.
    8880023    1    1    2    0    0 -0.28252614907E+03 -0.16400136920E+03 -0.64945480984E+03  0.98097871042E+03  0.65864270000E+03 0.  1.
    8880022    1    1    2    0    0  0.28252614907E+03  0.16400136920E+03  0.34528190903E+03  0.49932827250E+03  0.15294330000E+03 0.  0.
<mgrwt>
<rscale>  0 0.61531173E+03</rscale>
<asrwt>0</asrwt>
<pdfrwt beam="1">  1        1 0.90471852E-01 0.73520588E+03</pdfrwt>
<pdfrwt beam="2">  1       -1 0.13726768E+00 0.73520588E+03</pdfrwt>
<totfact> 0.16014095E+01</totfact>
</mgrwt>
</event>
<event>
 4    1  0.2514307E-008  0.1374673E+04  0.7818608E-02  0.9003617E-01
          1   -1    0    0  501    0  0.00000000000E+00  0.00000000000E+00  0.25388298170E+04  0.25388298170E+04  0.50400000000E-02 0. -1.
         -1   -1    0    0    0  501 -0.00000000000E+00 -0.00000000000E+00 -0.92545500711E+03  0.92545500713E+03  0.50400000000E-02 0.  1.
    8880023    1    1    2    0    0  0.86829361882E+03  0.83784298550E+03 -0.82733562538E+02  0.13771600217E+04  0.65864270000E+03 0.  0.
    8880022    1    1    2    0    0 -0.86829361882E+03 -0.83784298550E+03  0.16961083725E+04  0.20871248024E+04  0.15294330000E+03 0.  0.
<mgrwt>
<rscale>  0 0.13332351E+04</rscale>
<asrwt>0</asrwt>
<pdfrwt beam="1">  1        1 0.39058920E+00 0.13746726E+04</pdfrwt>
<pdfrwt beam="2">  1       -1 0.14237769E+00 0.13746726E+04</pdfrwt>
<totfact> 0.49269035E-01</totfact>
</mgrwt>
</event>
<event>
 4    1  0.2514307E-008  0.7817407E+03  0.7818608E-02  0.9751764E-01
          1   -1    0    0  501    0  0.00000000000E+00  0.00000000000E+00  0.11792561701E+04  0.11792561701E+04  0.50400000000E-02 0. -1.
         -1   -1    0    0    0  501 -0.00000000000E+00 -0.00000000000E+00 -0.12396714541E+04  0.12396714541E+04  0.50400000000E-02 0.  1.
    8880023    1    1    2    0    0  0.38880707285E+03 -0.16167079537E+03 -0.10637568925E+04  0.13201126159E+04  0.65864270000E+03 0.  1.
    8880022    1    1    2    0    0 -0.38880707285E+03  0.16167079537E+03  0.10033416085E+04  0.10988150083E+04  0.15294330000E+03 0.  0.
<mgrwt>
<rscale>  0 0.68016690E+03</rscale>
<asrwt>0</asrwt>
<pdfrwt beam="1">  1        1 0.18142403E+00 0.78174074E+03</pdfrwt>
<pdfrwt beam="2">  1       -1 0.19071869E+00 0.78174074E+03</pdfrwt>
<totfact> 0.20077947E+00</totfact>
</mgrwt>
</event>
<event>
 4    1  0.2514307E-008  0.1232185E+04  0.7818608E-02  0.9126454E-01
         -1   -1    0    0    0  501 -0.00000000000E+00  0.00000000000E+00  0.23748526104E+04  0.23748526104E+04  0.50400000000E-02 0.  1.
          1   -1    0    0  501    0  0.00000000000E+00 -0.00000000000E+00 -0.12543059625E+04  0.12543059625E+04  0.50400000000E-02 0. -1.
    8880023    1    1    2    0    0  0.50699059446E+03  0.90963185044E+03  0.19379394765E+04  0.22964949787E+04  0.65864270000E+03 0.  0.
    8880022    1    1    2    0    0 -0.50699059446E+03 -0.90963185044E+03 -0.81739282856E+03  0.13326635942E+04  0.15294330000E+03 0.  0.
<mgrwt>
<rscale>  0 0.11845887E+04</rscale>
<asrwt>0</asrwt>
<pdfrwt beam="1">  1        1 0.19297015E+00 0.12321850E+04</pdfrwt>
<pdfrwt beam="2">  1       -1 0.36536194E+00 0.12321850E+04</pdfrwt>
<totfact> 0.11786903E-01</totfact>
</mgrwt>
</event>
<event>
 4    1  0.2514307E-008  0.9052212E+03  0.7818608E-02  0.9517701E-01
          1   -1    0    0  501    0  0.00000000000E+00  0.00000000000E+00  0.37054237465E+04  0.37054237465E+04  0.50400000000E-02 0. -1.
         -1   -1    0    0    0  501 -0.00000000000E+00 -0.00000000000E+00 -0.17716585568E+03  0.17716585575E+03  0.50400000000E-02 0.  1.
    8880023    1    1    2    0    0 -0.32478484118E+02 -0.62012925305E+03  0.26183503045E+04  0.27704121834E+04  0.65864270000E+03 0. -1.
    8880022    1    1    2    0    0  0.32478484118E+02  0.62012925305E+03  0.90990758633E+03  0.11121774189E+04  0.15294330000E+03 0.  0.
<mgrwt>
<rscale>  0 0.82991256E+03</rscale>
<asrwt>0</asrwt>
<pdfrwt beam="1">  1        1 0.57006521E+00 0.90522116E+03</pdfrwt>
<pdfrwt beam="2">  1       -1 0.27256285E-01 0.90522116E+03</pdfrwt>
<totfact> 0.21809903E+00</totfact>
</mgrwt>
</event>
<event>
 4    1  0.2514307E-008  0.9360558E+03  0.7818608E-02  0.9470467E-01
          1   -1    0    0  501    0  0.00000000000E+00  0.00000000000E+00  0.34290254949E+03  0.34290254953E+03  0.50400000000E-02 0. -1.
         -1   -1    0    0    0  501 -0.00000000000E+00 -0.00000000000E+00 -0.25232262671E+04  0.25232262671E+04  0.50400000000E-02 0.  1.
    8880023    1    1    2    0    0 -0.41561257480E+03  0.51928448693E+03 -0.19193711472E+04  0.21354592007E+04  0.65864270000E+03 0.  1.
    8880022    1    1    2    0    0  0.41561257480E+03 -0.51928448693E+03 -0.26095257041E+03  0.73066961598E+03  0.15294330000E+03 0.  0.
<mgrwt>
<rscale>  0 0.86496615E+03</rscale>
<asrwt>0</asrwt>
<pdfrwt beam="1">  1        1 0.52754240E-01 0.93605577E+03</pdfrwt>
<pdfrwt beam="2">  1       -1 0.38818864E+00 0.93605577E+03</pdfrwt>
<totfact> 0.65570376E-01</totfact>
</mgrwt>
</event>
<event>
 4    1  0.2514307E-008  0.7826815E+03  0.7818608E-02  0.9749575E-01
          1   -1    0    0  501    0  0.00000000000E+00  0.00000000000E+00  0.75753246998E+03  0.75753247000E+03  0.50400000000E-02 0. -1.
         -1   -1    0    0    0  501 -0.00000000000E+00 -0.00000000000E+00 -0.21734039865E+04  0.21734039865E+04  0.50400000000E-02 0.  1.
    8880023    1    1    2    0    0  0.21443495361E+03 -0.36441421332E+03  0.52252414468E+03  0.94107478781E+03  0.65864270000E+03 0. -1.
    8880022    1    1    2    0    0 -0.21443495361E+03  0.36441421332E+03 -0.19383956612E+04  0.19898616687E+04  0.15294330000E+03 0.  0.
<mgrwt>
<rscale>  0 0.68140268E+03</rscale>
<asrwt>0</asrwt>
<pdfrwt beam="1">  1        1 0.11654346E+00 0.78268146E+03</pdfrwt>
<pdfrwt beam="2">  1       -1 0.33436984E+00 0.78268146E+03</pdfrwt>
<totfact> 0.50290716E-01</totfact>
</mgrwt>
</event>
<event>
 4    1  0.2514307E-008  0.1116939E+04  0.7818608E-02  0.9242427E-01
         -1   -1    0    0    0  501 -0.00000000000E+00  0.00000000000E+00  0.15338146905E+04  0.15338146905E+04  0.50400000000E-02 0.  1.
          1   -1    0    0  501    0  0.00000000000E+00 -0.00000000000E+00 -0.14095082323E+04  0.14095082323E+04  0.50400000000E-02 0. -1.
    8880023    1    1    2    0    0  0.30956664923E+02  0.90154548609E+03 -0.99624506656E+03  0.14966820028E+04  0.65864270000E+03 0.  0.
    8880022    1    1    2    0    0 -0.30956664923E+02 -0.90154548609E+03  0.11205515248E+04  0.14466409199E+04  0.15294330000E+03 0.  0.
<mgrwt>
<rscale>  0 0.10626041E+04</rscale>
<asrwt>0</asrwt>
<pdfrwt beam="1">  1        1 0.21684742E+00 0.11169390E+04</pdfrwt>
<pdfrwt beam="2">  1       -1 0.23597149E+00 0.11169390E+04</pdfrwt>
<totfact> 0.64653594E-01</totfact>
</mgrwt>
</event>
<event>
 4    1  0.2514307E-008  0.8336556E+03  0.7818608E-02  0.9642261E-01
          1   -1    0    0  501    0  0.00000000000E+00  0.00000000000E+00  0.46465899239E+03  0.46465899242E+03  0.50400000000E-02 0. -1.
         -1   -1    0    0    0  501 -0.00000000000E+00 -0.00000000000E+00 -0.19535913233E+04  0.19535913233E+04  0.50400000000E-02 0.  1.
    8880023    1    1    2    0    0  0.21388083589E+03 -0.46414055320E+03 -0.16603946320E+04  0.18579268030E+04  0.65864270000E+03 0.  0.
    8880022    1    1    2    0    0 -0.21388083589E+03  0.46414055320E+03  0.17146230117E+03  0.56032351264E+03  0.15294330000E+03 0.  0.
<mgrwt>
<rscale>  0 0.74561105E+03</rscale>
<asrwt>0</asrwt>
<pdfrwt beam="1">  1        1 0.71486000E-01 0.83365561E+03</pdfrwt>
<pdfrwt beam="2">  1       -1 0.30055251E+00 0.83365561E+03</pdfrwt>
<totfact> 0.16672819E+00</totfact>
</mgrwt>
</event>
<event>
 4    1  0.2514307E-008  0.1104598E+04  0.7818608E-02  0.9255954E-01
         -1   -1    0    0    0  501 -0.00000000000E+00  0.00000000000E+00  0.45400797177E+03  0.45400797179E+03  0.50400000000E-02 0.  1.
          1   -1    0    0  501    0  0.00000000000E+00 -0.00000000000E+00 -0.27147935674E+04  0.27147935674E+04  0.50400000000E-02 0. -1.
    8880023    1    1    2    0    0  0.57698872724E+03  0.67335722363E+03 -0.54581328492E+03  0.12320910235E+04  0.65864270000E+03 0.  0.
    8880022    1    1    2    0    0 -0.57698872724E+03 -0.67335722363E+03 -0.17149723107E+04  0.19367105156E+04  0.15294330000E+03 0.  0.
<mgrwt>
<rscale>  0 0.10494091E+04</rscale>
<asrwt>0</asrwt>
<pdfrwt beam="1">  1        1 0.41766054E+00 0.11045977E+04</pdfrwt>
<pdfrwt beam="2">  1       -1 0.69847382E-01 0.11045977E+04</pdfrwt>
<totfact> 0.20005806E+00</totfact>
</mgrwt>
</event>
<event>
 4    1  0.2514307E-008  0.1764032E+04  0.7818608E-02  0.8742698E-01
         -1   -1    0    0    0  501 -0.00000000000E+00  0.00000000000E+00  0.10818127099E+04  0.10818127099E+04  0.50400000000E-02 0.  1.
          1   -1    0    0  501    0  0.00000000000E+00 -0.00000000000E+00 -0.30860906488E+04  0.30860906488E+04  0.50400000000E-02 0. -1.
    8880023    1    1    2    0    0  0.88514518484E+02 -0.16340635325E+04 -0.28059664727E+03  0.17862091515E+04  0.65864270000E+03 0.  0.
    8880022    1    1    2    0    0 -0.88514518484E+02  0.16340635325E+04 -0.17236812917E+04  0.23816942072E+04  0.15294330000E+03 0.  0.
<mgrwt>
<rscale>  0 0.17331184E+04</rscale>
<asrwt>0</asrwt>
<pdfrwt beam="1">  1        1 0.47478317E+00 0.17640319E+04</pdfrwt>
<pdfrwt beam="2">  1       -1 0.16643273E+00 0.17640319E+04</pdfrwt>
<totfact> 0.12453185E-01</totfact>
</mgrwt>
</event>
<event>
 4    1  0.2514307E-008  0.2021412E+04  0.7818608E-02  0.8609036E-01
          1   -1    0    0  501    0  0.00000000000E+00  0.00000000000E+00  0.22598160706E+04  0.22598160706E+04  0.50400000000E-02 0. -1.
         -1   -1    0    0    0  501 -0.00000000000E+00 -0.00000000000E+00 -0.27297855459E+04  0.27297855459E+04  0.50400000000E-02 0.  1.
    8880023    1    1    2    0    0 -0.15300489228E+04 -0.11450967916E+04 -0.17588001795E+04  0.26794560355E+04  0.65864270000E+03 0.  0.
    8880022    1    1    2    0    0  0.15300489228E+04  0.11450967916E+04  0.12888307042E+04  0.23101455810E+04  0.15294330000E+03 0.  0.
<mgrwt>
<rscale>  0 0.19948418E+04</rscale>
<asrwt>0</asrwt>
<pdfrwt beam="1">  1        1 0.34766401E+00 0.20214120E+04</pdfrwt>
<pdfrwt beam="2">  1       -1 0.41996701E+00 0.20214120E+04</pdfrwt>
<totfact> 0.91188595E-03</totfact>
</mgrwt>
</event>
<event>
 4    1  0.2514307E-008  0.7251521E+03  0.7818608E-02  0.9905523E-01
          1   -1    0    0  501    0  0.00000000000E+00  0.00000000000E+00  0.10907988476E+04  0.10907988477E+04  0.50400000000E-02 0. -1.
         -1   -1    0    0    0  501 -0.00000000000E+00 -0.00000000000E+00 -0.81721323351E+03  0.81721323353E+03  0.50400000000E-02 0.  1.
    8880023    1    1    2    0    0  0.28647151764E+03  0.99847217884E+02 -0.61870671762E+03  0.95322799268E+03  0.65864270000E+03 0.  1.
    8880022    1    1    2    0    0 -0.28647151764E+03 -0.99847217884E+02  0.89229233175E+03  0.95478408850E+03  0.15294330000E+03 0.  0.
<mgrwt>
<rscale>  0 0.59994342E+03</rscale>
<asrwt>0</asrwt>
<pdfrwt beam="1">  1        1 0.16781521E+00 0.72515212E+03</pdfrwt>
<pdfrwt beam="2">  1       -1 0.12572511E+00 0.72515212E+03</pdfrwt>
<totfact> 0.73829940E+00</totfact>
</mgrwt>
</event>
<event>
 4    1  0.2514307E-008  0.7218036E+03  0.7818608E-02  0.9916530E-01
          1   -1    0    0  501    0  0.00000000000E+00  0.00000000000E+00  0.15576974724E+04  0.15576974724E+04  0.50400000000E-02 0. -1.
         -1   -1    0    0    0  501 -0.00000000000E+00 -0.00000000000E+00 -0.36765299336E+03  0.36765299339E+03  0.50400000000E-02 0.  1.
    8880023    1    1    2    0    0 -0.29510179542E+03 -0.10257777610E+02  0.34191798872E+02  0.72261302025E+03  0.65864270000E+03 0.  0.
    8880022    1    1    2    0    0  0.29510179542E+03  0.10257777610E+02  0.11558526801E+04  0.12027374455E+04  0.15294330000E+03 0.  0.
<mgrwt>
<rscale>  0 0.59466836E+03</rscale>
<asrwt>0</asrwt>
<pdfrwt beam="1">  1        1 0.23964576E+00 0.72180364E+03</pdfrwt>
<pdfrwt beam="2">  1       -1 0.56561999E-01 0.72180364E+03</pdfrwt>
<totfact> 0.19621265E+01</totfact>
</mgrwt>
</event>
<event>
 4    1  0.2514307E-008  0.6600743E+03  0.7818608E-02  0.1024080E+00
         -1   -1    0    0    0  501 -0.00000000000E+00  0.00000000000E+00  0.15342887231E+03  0.15342887240E+03  0.50400000000E-02 0.  1.
          1   -1    0    0  501    0  0.00000000000E+00 -0.00000000000E+00 -0.16776101830E+04  0.16776101831E+04  0.50400000000E-02 0. -1.
    8880023    1    1    2    0    0 -0.42730242715E+02  0.78759295804E+01 -0.59598449542E+03  0.88932312966E+03  0.65864270000E+03 0.  1.
    8880022    1    1    2    0    0  0.42730242715E+02 -0.78759295804E+01 -0.92819681531E+03  0.94171592579E+03  0.15294330000E+03 0.  0.
<mgrwt>
<rscale>  0 0.46242447E+03</rscale>
<asrwt>0</asrwt>
<pdfrwt beam="1">  1        1 0.25809386E+00 0.66007432E+03</pdfrwt>
<pdfrwt beam="2">  1       -1 0.23604443E-01 0.66007432E+03</pdfrwt>
<totfact> 0.79046627E+01</totfact>
</mgrwt>
</event>
<event>
 4    1  0.2514307E-008  0.6952871E+03  0.7818608E-02  0.1001734E+00
         -1   -1    0    0    0  501 -0.00000000000E+00  0.00000000000E+00  0.69557928836E+03  0.69557928838E+03  0.50400000000E-02 0.  1.
          1   -1    0    0  501    0  0.00000000000E+00 -0.00000000000E+00 -0.61166398437E+03  0.61166398439E+03  0.50400000000E-02 0. -1.
    8880023    1    1    2    0    0  0.18351714096E+03  0.12623571014E+03  0.46765024857E+03  0.83792658198E+03  0.65864270000E+03 0.  1.
    8880022    1    1    2    0    0 -0.18351714096E+03 -0.12623571014E+03 -0.38373494458E+03  0.46931669078E+03  0.15294330000E+03 0.  0.
<mgrwt>
<rscale>  0 0.54896253E+03</rscale>
<asrwt>0</asrwt>
<pdfrwt beam="1">  1        1 0.94102152E-01 0.69528714E+03</pdfrwt>
<pdfrwt beam="2">  1       -1 0.10701220E+00 0.69528714E+03</pdfrwt>
<totfact> 0.27955990E+01</totfact>
</mgrwt>
</event>
<event>
 4    1  0.2514307E-008  0.1385793E+04  0.7818608E-02  0.8994801E-01
          1   -1    0    0  501    0  0.00000000000E+00  0.00000000000E+00  0.18976909426E+04  0.18976909426E+04  0.50400000000E-02 0. -1.
         -1   -1    0    0    0  501 -0.00000000000E+00 -0.00000000000E+00 -0.90638586186E+03  0.90638586188E+03  0.50400000000E-02 0.  1.
    8880023    1    1    2    0    0 -0.59831544330E+03  0.10623704074E+04  0.41336541088E+03  0.14461304995E+04  0.65864270000E+03 0.  0.
    8880022    1    1    2    0    0  0.59831544330E+03 -0.10623704074E+04  0.57793966984E+03  0.13579463050E+04  0.15294330000E+03 0.  0.
<mgrwt>
<rscale>  0 0.13447639E+04</rscale>
<asrwt>0</asrwt>
<pdfrwt beam="1">  1        1 0.29195245E+00 0.13857931E+04</pdfrwt>
<pdfrwt beam="2">  1       -1 0.13944398E+00 0.13857931E+04</pdfrwt>
<totfact> 0.14253387E+00</totfact>
</mgrwt>
</event>
<event>
 4    1  0.2514307E-008  0.6683620E+03  0.7818608E-02  0.1016865E+00
         -1   -1    0    0    0  501 -0.00000000000E+00  0.00000000000E+00  0.15594852805E+03  0.15594852813E+03  0.50400000000E-02 0.  1.
          1   -1    0    0  501    0  0.00000000000E+00 -0.00000000000E+00 -0.27432319419E+04  0.27432319419E+04  0.50400000000E-02 0. -1.
    8880023    1    1    2    0    0 -0.16043457804E+02 -0.11242868498E+03 -0.58607980337E+03  0.88893044943E+03  0.65864270000E+03 0.  1.
    8880022    1    1    2    0    0  0.16043457804E+02  0.11242868498E+03 -0.20012036105E+04  0.20102500206E+04  0.15294330000E+03 0.  0.
<mgrwt>
<rscale>  0 0.48834988E+03</rscale>
<asrwt>0</asrwt>
<pdfrwt beam="1">  1        1 0.42203565E+00 0.66836203E+03</pdfrwt>
<pdfrwt beam="2">  1       -1 0.23992083E-01 0.66836203E+03</pdfrwt>
<totfact> 0.14691050E+01</totfact>
</mgrwt>
</event>
<event>
 4    1  0.2514307E-008  0.1296332E+04  0.7818608E-02  0.9068734E-01
          1   -1    0    0  501    0  0.00000000000E+00  0.00000000000E+00  0.10869574231E+04  0.10869574231E+04  0.50400000000E-02 0. -1.
         -1   -1    0    0    0  501 -0.00000000000E+00 -0.00000000000E+00 -0.20751894374E+04  0.20751894375E+04  0.50400000000E-02 0.  1.
    8880023    1    1    2    0    0 -0.66383952474E+03  0.89776635952E+03 -0.14493379831E+04  0.19444943164E+04  0.65864270000E+03 0.  1.
    8880022    1    1    2    0    0  0.66383952474E+03 -0.89776635952E+03  0.46110596876E+03  0.12176525442E+04  0.15294330000E+03 0.  0.
<mgrwt>
<rscale>  0 0.12517432E+04</rscale>
<asrwt>0</asrwt>
<pdfrwt beam="1">  1        1 0.16722422E+00 0.12963323E+04</pdfrwt>
<pdfrwt beam="2">  1       -1 0.31925991E+00 0.12963323E+04</pdfrwt>
<totfact> 0.31253593E-01</totfact>
</mgrwt>
</event>
<event>
 4    1  0.2514307E-008  0.7032382E+03  0.7818608E-02  0.9984024E-01
         -1   -1    0    0    0  501 -0.00000000000E+00  0.00000000000E+00  0.28951209473E+03  0.28951209477E+03  0.50400000000E-02 0.  1.
          1   -1    0    0  501    0  0.00000000000E+00 -0.00000000000E+00 -0.20485230489E+04  0.20485230489E+04  0.50400000000E-02 0. -1.
    8880023    1    1    2    0    0 -0.51124232370E+02 -0.24108100251E+03 -0.17096797094E+03  0.72372231571E+03  0.65864270000E+03 0.  1.
    8880022    1    1    2    0    0  0.51124232370E+02  0.24108100251E+03 -0.15880429832E+04  0.16143128280E+04  0.15294330000E+03 0.  0.
<mgrwt>
<rscale>  0 0.56356332E+03</rscale>
<asrwt>0</asrwt>
<pdfrwt beam="1">  1        1 0.31515738E+00 0.70323818E+03</pdfrwt>
<pdfrwt beam="2">  1       -1 0.44540324E-01 0.70323818E+03</pdfrwt>
<totfact> 0.14501316E+01</totfact>
</mgrwt>
</event>
<event>
 4    1  0.2514307E-008  0.9209517E+03  0.7818608E-02  0.9493201E-01
         -1   -1    0    0    0  501 -0.00000000000E+00  0.00000000000E+00  0.12727483680E+04  0.12727483680E+04  0.50400000000E-02 0.  1.
          1   -1    0    0  501    0  0.00000000000E+00 -0.00000000000E+00 -0.17000675112E+04  0.17000675112E+04  0.50400000000E-02 0. -1.
    8880023    1    1    2    0    0 -0.17530270986E+03  0.61936320568E+03  0.10243551126E+04  0.13774815511E+04  0.65864270000E+03 0.  0.
    8880022    1    1    2    0    0  0.17530270986E+03 -0.61936320568E+03 -0.14516742558E+04  0.15953343282E+04  0.15294330000E+03 0.  0.
<mgrwt>
<rscale>  0 0.84786920E+03</rscale>
<asrwt>0</asrwt>
<pdfrwt beam="1">  1        1 0.26154885E+00 0.92095170E+03</pdfrwt>
<pdfrwt beam="2">  1       -1 0.19580744E+00 0.92095170E+03</pdfrwt>
<totfact> 0.78396475E-01</totfact>
</mgrwt>
</event>
<event>
 4    1  0.2514307E-008  0.7151021E+03  0.7818608E-02  0.9939521E-01
         -1   -1    0    0    0  501 -0.00000000000E+00  0.00000000000E+00  0.99123882811E+03  0.99123882812E+03  0.50400000000E-02 0.  1.
          1   -1    0    0  501    0  0.00000000000E+00 -0.00000000000E+00 -0.21085376321E+04  0.21085376321E+04  0.50400000000E-02 0. -1.
    8880023    1    1    2    0    0 -0.20922511428E+03 -0.18380856741E+03  0.84782407472E+03  0.11091332678E+04  0.65864270000E+03 0.  1.
    8880022    1    1    2    0    0  0.20922511428E+03  0.18380856741E+03 -0.19651228787E+04  0.19906431924E+04  0.15294330000E+03 0.  0.
<mgrwt>
<rscale>  0 0.58383563E+03</rscale>
<asrwt>0</asrwt>
<pdfrwt beam="1">  1        1 0.32439040E+00 0.71510205E+03</pdfrwt>
<pdfrwt beam="2">  1       -1 0.15249828E+00 0.71510205E+03</pdfrwt>
<totfact> 0.89718428E-01</totfact>
</mgrwt>
</event>
<event>
 4    1  0.2514307E-008  0.6806836E+03  0.7818608E-02  0.1008940E+00
         -1   -1    0    0    0  501 -0.00000000000E+00  0.00000000000E+00  0.28320646144E+03  0.28320646148E+03  0.50400000000E-02 0.  1.
          1   -1    0    0  501    0  0.00000000000E+00 -0.00000000000E+00 -0.14907019231E+04  0.14907019232E+04  0.50400000000E-02 0. -1.
    8880023    1    1    2    0    0 -0.93317685326E+02 -0.14426305012E+03 -0.15704185051E+03  0.69856450461E+03  0.65864270000E+03 0.  1.
    8880022    1    1    2    0    0  0.93317685326E+02  0.14426305012E+03 -0.10504536112E+04  0.10753438800E+04  0.15294330000E+03 0.  0.
<mgrwt>
<rscale>  0 0.51898275E+03</rscale>
<asrwt>0</asrwt>
<pdfrwt beam="1">  1        1 0.22933875E+00 0.68068364E+03</pdfrwt>
<pdfrwt beam="2">  1       -1 0.43570226E-01 0.68068364E+03</pdfrwt>
<totfact> 0.35895954E+01</totfact>
</mgrwt>
</event>
<event>
 4    1  0.2514307E-008  0.6795033E+03  0.7818608E-02  0.1009606E+00
         -1   -1    0    0    0  501 -0.00000000000E+00  0.00000000000E+00  0.57666943131E+03  0.57666943133E+03  0.50400000000E-02 0.  1.
          1   -1    0    0  501    0  0.00000000000E+00 -0.00000000000E+00 -0.91537293060E+03  0.91537293061E+03  0.50400000000E-02 0. -1.
    8880023    1    1    2    0    0 -0.13256144578E+03  0.10169588762E+03  0.35191677698E+03  0.76522559723E+03  0.65864270000E+03 0.  1.
    8880022    1    1    2    0    0  0.13256144578E+03 -0.10169588762E+03 -0.69062027627E+03  0.72681676472E+03  0.15294330000E+03 0.  0.
<mgrwt>
<rscale>  0 0.51631528E+03</rscale>
<asrwt>0</asrwt>
<pdfrwt beam="1">  1        1 0.14082661E+00 0.67950335E+03</pdfrwt>
<pdfrwt beam="2">  1       -1 0.88718374E-01 0.67950335E+03</pdfrwt>
<totfact> 0.22846654E+01</totfact>
</mgrwt>
</event>
<event>
 4    1  0.2514307E-008  0.1716288E+04  0.7818608E-02  0.8770313E-01
         -1   -1    0    0    0  501 -0.00000000000E+00  0.00000000000E+00  0.91504642801E+03  0.91504642803E+03  0.50400000000E-02 0.  1.
          1   -1    0    0  501    0  0.00000000000E+00 -0.00000000000E+00 -0.34500440581E+04  0.34500440581E+04  0.50400000000E-02 0. -1.
    8880023    1    1    2    0    0  0.61930388188E+03 -0.14588688078E+04 -0.51276224770E+03  0.17912483986E+04  0.65864270000E+03 0.  0.
    8880022    1    1    2    0    0 -0.61930388188E+03  0.14588688078E+04 -0.20222353823E+04  0.25738420875E+04  0.15294330000E+03 0.  0.
<mgrwt>
<rscale>  0 0.16843983E+04</rscale>
<asrwt>0</asrwt>
<pdfrwt beam="1">  1        1 0.53077600E+00 0.17162884E+04</pdfrwt>
<pdfrwt beam="2">  1       -1 0.14077638E+00 0.17162884E+04</pdfrwt>
<totfact> 0.10528385E-01</totfact>
</mgrwt>
</event>
<event>
 4    1  0.2514307E-008  0.1118032E+04  0.7818608E-02  0.9241240E-01
          1   -1    0    0  501    0  0.00000000000E+00  0.00000000000E+00  0.92901056535E+03  0.92901056536E+03  0.50400000000E-02 0. -1.
         -1   -1    0    0    0  501 -0.00000000000E+00 -0.00000000000E+00 -0.17631542149E+04  0.17631542149E+04  0.50400000000E-02 0.  1.
    8880023    1    1    2    0    0 -0.89538627359E+03  0.12029065148E+03 -0.12576342730E+04  0.16827479284E+04  0.65864270000E+03 0.  0.
    8880022    1    1    2    0    0  0.89538627359E+03 -0.12029065148E+03  0.42349062338E+03  0.10094168519E+04  0.15294330000E+03 0.  0.
<mgrwt>
<rscale>  0 0.10637717E+04</rscale>
<asrwt>0</asrwt>
<pdfrwt beam="1">  1        1 0.14292470E+00 0.11180325E+04</pdfrwt>
<pdfrwt beam="2">  1       -1 0.27125450E+00 0.11180325E+04</pdfrwt>
<totfact> 0.86864008E-01</totfact>
</mgrwt>
</event>
<event>
 4    1  0.2514307E-008  0.9062425E+03  0.7818608E-02  0.9516084E-01
         -1   -1    0    0    0  501 -0.00000000000E+00  0.00000000000E+00  0.11906686888E+04  0.11906686888E+04  0.50400000000E-02 0.  1.
          1   -1    0    0  501    0  0.00000000000E+00 -0.00000000000E+00 -0.82591039805E+03  0.82591039807E+03  0.50400000000E-02 0. -1.
    8880023    1    1    2    0    0 -0.22838171802E+03 -0.57905696686E+03  0.82655741832E+03  0.12265694241E+04  0.65864270000E+03 0.  0.
    8880022    1    1    2    0    0  0.22838171802E+03  0.57905696686E+03 -0.46179912761E+03  0.79000966277E+03  0.15294330000E+03 0.  0.
<mgrwt>
<rscale>  0 0.83108342E+03</rscale>
<asrwt>0</asrwt>
<pdfrwt beam="1">  1        1 0.12706314E+00 0.90624245E+03</pdfrwt>
<pdfrwt beam="2">  1       -1 0.18317980E+00 0.90624245E+03</pdfrwt>
<totfact> 0.42070143E+00</totfact>
</mgrwt>
</event>
<event>
 4    1  0.2514307E-008  0.7314689E+03  0.7818608E-02  0.9885533E-01
          1   -1    0    0  501    0  0.00000000000E+00  0.00000000000E+00  0.19135794037E+04  0.19135794037E+04  0.50400000000E-02 0. -1.
         -1   -1    0    0    0  501 -0.00000000000E+00 -0.00000000000E+00 -0.52969104416E+03  0.52969104418E+03  0.50400000000E-02 0.  1.
    8880023    1    1    2    0    0 -0.41061370540E+02  0.31551625120E+03 -0.24897488958E+03  0.77268055678E+03  0.65864270000E+03 0.  1.
    8880022    1    1    2    0    0  0.41061370540E+02 -0.31551625120E+03  0.16328632491E+04  0.16705898911E+04  0.15294330000E+03 0.  0.
<mgrwt>
<rscale>  0 0.60967577E+03</rscale>
<asrwt>0</asrwt>
<pdfrwt beam="1">  1        1 0.29439684E+00 0.73146890E+03</pdfrwt>
<pdfrwt beam="2">  1       -1 0.81490927E-01 0.73146890E+03</pdfrwt>
<totfact> 0.53775470E+00</totfact>
</mgrwt>
</event>
<event>
 4    1  0.2514307E-008  0.7172826E+03  0.7818608E-02  0.9931890E-01
          1   -1    0    0  501    0  0.00000000000E+00  0.00000000000E+00  0.88761596205E+03  0.88761596207E+03  0.50400000000E-02 0. -1.
         -1   -1    0    0    0  501 -0.00000000000E+00 -0.00000000000E+00 -0.34109429633E+03  0.34109429637E+03  0.50400000000E-02 0.  1.
    8880023    1    1    2    0    0 -0.27979564067E+03 -0.48974407103E+02  0.17821123714E+03  0.73908967277E+03  0.65864270000E+03 0.  0.
    8880022    1    1    2    0    0  0.27979564067E+03  0.48974407103E+02  0.36831042858E+03  0.48962058567E+03  0.15294330000E+03 0.  0.
<mgrwt>
<rscale>  0 0.58740333E+03</rscale>
<asrwt>0</asrwt>
<pdfrwt beam="1">  1        1 0.13655630E+00 0.71728258E+03</pdfrwt>
<pdfrwt beam="2">  1       -1 0.52476046E-01 0.71728258E+03</pdfrwt>
<totfact> 0.69816823E+01</totfact>
</mgrwt>
</event>
<event>
 4    1  0.2514307E-008  0.7954478E+03  0.7818608E-02  0.9720727E-01
         -1   -1    0    0    0  501 -0.00000000000E+00  0.00000000000E+00  0.68072507408E+03  0.68072507410E+03  0.50400000000E-02 0.  1.
          1   -1    0    0  501    0  0.00000000000E+00 -0.00000000000E+00 -0.10449389463E+04  0.10449389463E+04  0.50400000000E-02 0. -1.
    8880023    1    1    2    0    0 -0.38275438299E+03 -0.22896732570E+03  0.35065020289E+03  0.86930588689E+03  0.65864270000E+03 0.  1.
    8880022    1    1    2    0    0  0.38275438299E+03  0.22896732570E+03 -0.71486407510E+03  0.85635813351E+03  0.15294330000E+03 0.  0.
<mgrwt>
<rscale>  0 0.69796031E+03</rscale>
<asrwt>0</asrwt>
<pdfrwt beam="1">  1        1 0.16075984E+00 0.79544777E+03</pdfrwt>
<pdfrwt beam="2">  1       -1 0.10472693E+00 0.79544777E+03</pdfrwt>
<totfact> 0.12270444E+01</totfact>
</mgrwt>
</event>
<event>
 4    1  0.2514307E-008  0.7700177E+03  0.7818608E-02  0.9779831E-01
         -1   -1    0    0    0  501 -0.00000000000E+00  0.00000000000E+00  0.10436770534E+04  0.10436770534E+04  0.50400000000E-02 0.  1.
          1   -1    0    0  501    0  0.00000000000E+00 -0.00000000000E+00 -0.25072523332E+04  0.25072523332E+04  0.50400000000E-02 0. -1.
    8880023    1    1    2    0    0 -0.61698163128E+02  0.39409443396E+03  0.87965818313E+03  0.11690704904E+04  0.65864270000E+03 0.  1.
    8880022    1    1    2    0    0  0.61698163128E+02 -0.39409443396E+03 -0.23432334629E+04  0.23818588961E+04  0.15294330000E+03 0.  0.
<mgrwt>
<rscale>  0 0.66456276E+03</rscale>
<asrwt>0</asrwt>
<pdfrwt beam="1">  1        1 0.38573113E+00 0.77001772E+03</pdfrwt>
<pdfrwt beam="2">  1       -1 0.16056570E+00 0.77001772E+03</pdfrwt>
<totfact> 0.41383798E-01</totfact>
</mgrwt>
</event>
<event>
 4    1  0.2514307E-008  0.7572789E+03  0.7818608E-02  0.9812204E-01
          1   -1    0    0  501    0  0.00000000000E+00  0.00000000000E+00  0.57350662768E+03  0.57350662770E+03  0.50400000000E-02 0. -1.
         -1   -1    0    0    0  501 -0.00000000000E+00 -0.00000000000E+00 -0.68963073706E+03  0.68963073708E+03  0.50400000000E-02 0.  1.
    8880023    1    1    2    0    0  0.63148764762E+02  0.36833865125E+03 -0.30619792375E+03  0.81684056172E+03  0.65864270000E+03 0.  0.
    8880022    1    1    2    0    0 -0.63148764762E+02 -0.36833865125E+03  0.19007381437E+03  0.44629680306E+03  0.15294330000E+03 0.  0.
<mgrwt>
<rscale>  0 0.64711716E+03</rscale>
<asrwt>0</asrwt>
<pdfrwt beam="1">  1        1 0.88231789E-01 0.75727890E+03</pdfrwt>
<pdfrwt beam="2">  1       -1 0.10609704E+00 0.75727890E+03</pdfrwt>
<totfact> 0.31077754E+01</totfact>
</mgrwt>
</event>
<event>
 4    1  0.2514307E-008  0.7538949E+03  0.7818608E-02  0.9821177E-01
          1   -1    0    0  501    0  0.00000000000E+00  0.00000000000E+00  0.13322919129E+04  0.13322919129E+04  0.50400000000E-02 0. -1.
         -1   -1    0    0    0  501 -0.00000000000E+00 -0.00000000000E+00 -0.34261241813E+03  0.34261241817E+03  0.50400000000E-02 0.  1.
    8880023    1    1    2    0    0  0.26553058157E+03  0.25306292458E+03  0.18321877097E+03  0.77583932476E+03  0.65864270000E+03 0.  0.
    8880022    1    1    2    0    0 -0.26553058157E+03 -0.25306292458E+03  0.80646072383E+03  0.89906500635E+03  0.15294330000E+03 0.  0.
<mgrwt>
<rscale>  0 0.64238335E+03</rscale>
<asrwt>0</asrwt>
<pdfrwt beam="1">  1        1 0.20496799E+00 0.75389491E+03</pdfrwt>
<pdfrwt beam="2">  1       -1 0.52709603E-01 0.75389491E+03</pdfrwt>
<totfact> 0.32030115E+01</totfact>
</mgrwt>
</event>
<event>
 4    1  0.2514307E-008  0.1176189E+04  0.7818608E-02  0.9180623E-01
          1   -1    0    0  501    0  0.00000000000E+00  0.00000000000E+00  0.20961761455E+04  0.20961761455E+04  0.50400000000E-02 0. -1.
         -1   -1    0    0    0  501 -0.00000000000E+00 -0.00000000000E+00 -0.58773050819E+03  0.58773050821E+03  0.50400000000E-02 0.  1.
    8880023    1    1    2    0    0 -0.72445228669E+03 -0.65175040638E+03  0.51521408572E+03  0.12840815661E+04  0.65864270000E+03 0.  0.
    8880022    1    1    2    0    0  0.72445228669E+03  0.65175040638E+03  0.99323155157E+03  0.13998250876E+04  0.15294330000E+03 0.  0.
<mgrwt>
<rscale>  0 0.11255685E+04</rscale>
<asrwt>0</asrwt>
<pdfrwt beam="1">  1        1 0.32248864E+00 0.11761887E+04</pdfrwt>
<pdfrwt beam="2">  1       -1 0.90420078E-01 0.11761887E+04</pdfrwt>
<totfact> 0.30355710E+00</totfact>
</mgrwt>
</event>
<event>
 4    1  0.2514307E-008  0.9193589E+03  0.7818608E-02  0.9495643E-01
          1   -1    0    0  501    0  0.00000000000E+00  0.00000000000E+00  0.12964448764E+04  0.12964448764E+04  0.50400000000E-02 0. -1.
         -1   -1    0    0    0  501 -0.00000000000E+00 -0.00000000000E+00 -0.62155202889E+03  0.62155202891E+03  0.50400000000E-02 0.  1.
    8880023    1    1    2    0    0  0.36026846621E+03  0.53067621293E+03 -0.71400590040E+02  0.92212735630E+03  0.65864270000E+03 0.  0.
    8880022    1    1    2    0    0 -0.36026846621E+03 -0.53067621293E+03  0.74629343755E+03  0.99586954901E+03  0.15294330000E+03 0.  0.
<mgrwt>
<rscale>  0 0.84605831E+03</rscale>
<asrwt>0</asrwt>
<pdfrwt beam="1">  1        1 0.19945306E+00 0.91935892E+03</pdfrwt>
<pdfrwt beam="2">  1       -1 0.95623390E-01 0.91935892E+03</pdfrwt>
<totfact> 0.97272550E+00</totfact>
</mgrwt>
</event>
<event>
 4    1  0.2514307E-008  0.9493314E+03  0.7818608E-02  0.9451077E-01
          1   -1    0    0  501    0  0.00000000000E+00  0.00000000000E+00  0.16305269252E+04  0.16305269252E+04  0.50400000000E-02 0. -1.
         -1   -1    0    0    0  501 -0.00000000000E+00 -0.00000000000E+00 -0.56790634626E+03  0.56790634628E+03  0.50400000000E-02 0.  1.
    8880023    1    1    2    0    0 -0.58676638649E+03 -0.35089177873E+03  0.29016836486E+02  0.94977471843E+03  0.65864270000E+03 0.  0.
    8880022    1    1    2    0    0  0.58676638649E+03  0.35089177873E+03  0.10336037425E+04  0.12486585531E+04  0.15294330000E+03 0.  0.
<mgrwt>
<rscale>  0 0.87988864E+03</rscale>
<asrwt>0</asrwt>
<pdfrwt beam="1">  1        1 0.25085029E+00 0.94933136E+03</pdfrwt>
<pdfrwt beam="2">  1       -1 0.87370208E-01 0.94933136E+03</pdfrwt>
<totfact> 0.69465971E+00</totfact>
</mgrwt>
</event>
<event>
 4    1  0.2514307E-008  0.1641782E+04  0.7818608E-02  0.8815508E-01
          1   -1    0    0  501    0  0.00000000000E+00  0.00000000000E+00  0.24580133074E+04  0.24580133074E+04  0.50400000000E-02 0. -1.
         -1   -1    0    0    0  501 -0.00000000000E+00 -0.00000000000E+00 -0.13292876249E+04  0.13292876249E+04  0.50400000000E-02 0.  1.
    8880023    1    1    2    0    0  0.36919228466E+03  0.14578530521E+04 -0.34336673490E+03  0.16773042018E+04  0.65864270000E+03 0.  0.
    8880022    1    1    2    0    0 -0.36919228466E+03 -0.14578530521E+04  0.14720924174E+04  0.21099967305E+04  0.15294330000E+03 0.  0.
<mgrwt>
<rscale>  0 0.16082299E+04</rscale>
<asrwt>0</asrwt>
<pdfrwt beam="1">  1        1 0.37815589E+00 0.16417822E+04</pdfrwt>
<pdfrwt beam="2">  1       -1 0.20450579E+00 0.16417822E+04</pdfrwt>
<totfact> 0.18874010E-01</totfact>
</mgrwt>
</event>
<event>
 4    1  0.2514307E-008  0.1111369E+04  0.7818608E-02  0.9248503E-01
          1   -1    0    0  501    0  0.00000000000E+00  0.00000000000E+00  0.19324029675E+04  0.19324029675E+04  0.50400000000E-02 0. -1.
         -1   -1    0    0    0  501 -0.00000000000E+00 -0.00000000000E+00 -0.62764332216E+03  0.62764332218E+03  0.50400000000E-02 0.  1.
    8880023    1    1    2    0    0  0.39019595350E+03 -0.80565340384E+03  0.19880101434E+03  0.11290094503E+04  0.65864270000E+03 0.  0.
    8880022    1    1    2    0    0 -0.39019595350E+03  0.80565340384E+03  0.11059586310E+04  0.14310368394E+04  0.15294330000E+03 0.  0.
<mgrwt>
<rscale>  0 0.10566522E+04</rscale>
<asrwt>0</asrwt>
<pdfrwt beam="1">  1        1 0.29729276E+00 0.11113687E+04</pdfrwt>
<pdfrwt beam="2">  1       -1 0.96560513E-01 0.11113687E+04</pdfrwt>
<totfact> 0.34054367E+00</totfact>
</mgrwt>
</event>
<event>
 4    1  0.2514307E-008  0.8743945E+03  0.7818608E-02  0.9568454E-01
          1   -1    0    0  501    0  0.00000000000E+00  0.00000000000E+00  0.15135280766E+04  0.15135280766E+04  0.50400000000E-02 0. -1.
         -1   -1    0    0    0  501 -0.00000000000E+00 -0.00000000000E+00 -0.39354234531E+03  0.39354234534E+03  0.50400000000E-02 0.  1.
    8880023    1    1    2    0    0  0.52273106509E+03 -0.23980762610E+03  0.36946892962E+03  0.94924862927E+03  0.65864270000E+03 0.  0.
    8880022    1    1    2    0    0 -0.52273106509E+03  0.23980762610E+03  0.75051680168E+03  0.95782179270E+03  0.15294330000E+03 0.  0.
<mgrwt>
<rscale>  0 0.79419749E+03</rscale>
<asrwt>0</asrwt>
<pdfrwt beam="1">  1        1 0.23285047E+00 0.87439446E+03</pdfrwt>
<pdfrwt beam="2">  1       -1 0.60544976E-01 0.87439446E+03</pdfrwt>
<totfact> 0.18054512E+01</totfact>
</mgrwt>
</event>
<event>
 4    1  0.2514307E-008  0.6920008E+03  0.7818608E-02  0.1003216E+00
          1   -1    0    0  501    0  0.00000000000E+00  0.00000000000E+00  0.91093614441E+03  0.91093614442E+03  0.50400000000E-02 0. -1.
         -1   -1    0    0    0  501 -0.00000000000E+00 -0.00000000000E+00 -0.35901449186E+03  0.35901449190E+03  0.50400000000E-02 0.  1.
    8880023    1    1    2    0    0 -0.21200322837E+03  0.10462702885E+02  0.37730489568E+02  0.69302859472E+03  0.65864270000E+03 0.  1.
    8880022    1    1    2    0    0  0.21200322837E+03 -0.10462702885E+02  0.51419116297E+03  0.57692204160E+03  0.15294330000E+03 0.  0.
<mgrwt>
<rscale>  0 0.54262378E+03</rscale>
<asrwt>0</asrwt>
<pdfrwt beam="1">  1        1 0.14014402E+00 0.69200075E+03</pdfrwt>
<pdfrwt beam="2">  1       -1 0.55232999E-01 0.69200075E+03</pdfrwt>
<totfact> 0.60720202E+01</totfact>
</mgrwt>
</event>
<event>
 4    1  0.2514307E-008  0.7849930E+03  0.7818608E-02  0.9744236E-01
         -1   -1    0    0    0  501 -0.00000000000E+00  0.00000000000E+00  0.19836019865E+04  0.19836019865E+04  0.50400000000E-02 0.  1.
          1   -1    0    0  501    0  0.00000000000E+00 -0.00000000000E+00 -0.11511324597E+04  0.11511324598E+04  0.50400000000E-02 0. -1.
    8880023    1    1    2    0    0  0.80072598110E+02  0.41951420180E+03  0.18559981343E+04  0.20151781726E+04  0.65864270000E+03 0.  1.
    8880022    1    1    2    0    0 -0.80072598110E+02 -0.41951420180E+03 -0.10235286075E+04  0.11195562737E+04  0.15294330000E+03 0.  0.
<mgrwt>
<rscale>  0 0.68442963E+03</rscale>
<asrwt>0</asrwt>
<pdfrwt beam="1">  1        1 0.17709730E+00 0.78499299E+03</pdfrwt>
<pdfrwt beam="2">  1       -1 0.30516954E+00 0.78499299E+03</pdfrwt>
<totfact> 0.37546570E-01</totfact>
</mgrwt>
</event>
<event>
 4    1  0.2514307E-008  0.9992062E+03  0.7818608E-02  0.9382597E-01
          1   -1    0    0  501    0  0.00000000000E+00  0.00000000000E+00  0.23386261783E+04  0.23386261783E+04  0.50400000000E-02 0. -1.
         -1   -1    0    0    0  501 -0.00000000000E+00 -0.00000000000E+00 -0.39868073393E+03  0.39868073396E+03  0.50400000000E-02 0.  1.
    8880023    1    1    2    0    0  0.63675858278E+03  0.39892533995E+03  0.52692128810E+03  0.11296278899E+04  0.65864270000E+03 0.  0.
    8880022    1    1    2    0    0 -0.63675858278E+03 -0.39892533995E+03  0.14130241562E+04  0.16076790223E+04  0.15294330000E+03 0.  0.
<mgrwt>
<rscale>  0 0.93521835E+03</rscale>
<asrwt>0</asrwt>
<pdfrwt beam="1">  1        1 0.35978865E+00 0.99920625E+03</pdfrwt>
<pdfrwt beam="2">  1       -1 0.61335497E-01 0.99920625E+03</pdfrwt>
<totfact> 0.47974908E+00</totfact>
</mgrwt>
</event>
<event>
 4    1  0.2514307E-008  0.7709517E+03  0.7818608E-02  0.9777538E-01
          1   -1    0    0  501    0  0.00000000000E+00  0.00000000000E+00  0.79982966707E+03  0.79982966708E+03  0.50400000000E-02 0. -1.
         -1   -1    0    0    0  501 -0.00000000000E+00 -0.00000000000E+00 -0.10418261585E+04  0.10418261585E+04  0.50400000000E-02 0.  1.
    8880023    1    1    2    0    0 -0.39935323936E+03 -0.32761032167E+02 -0.81764883984E+03  0.11237954114E+04  0.65864270000E+03 0.  0.
    8880022    1    1    2    0    0  0.39935323936E+03  0.32761032167E+02  0.57565234844E+03  0.71786041421E+03  0.15294330000E+03 0.  0.
<mgrwt>
<rscale>  0 0.66582062E+03</rscale>
<asrwt>0</asrwt>
<pdfrwt beam="1">  1        1 0.12305072E+00 0.77095169E+03</pdfrwt>
<pdfrwt beam="2">  1       -1 0.16028095E+00 0.77095169E+03</pdfrwt>
<totfact> 0.66293254E+00</totfact>
</mgrwt>
</event>
<event>
 4    1  0.2514307E-008  0.7047080E+03  0.7818608E-02  0.9978204E-01
         -1   -1    0    0    0  501 -0.00000000000E+00  0.00000000000E+00  0.20290066449E+03  0.20290066455E+03  0.50400000000E-02 0.  1.
          1   -1    0    0  501    0  0.00000000000E+00 -0.00000000000E+00 -0.24687276481E+04  0.24687276481E+04  0.50400000000E-02 0. -1.
    8880023    1    1    2    0    0  0.17645675632E+03 -0.17795001491E+03 -0.45878201256E+03  0.84088901525E+03  0.65864270000E+03 0.  1.
    8880022    1    1    2    0    0 -0.17645675632E+03  0.17795001491E+03 -0.18070449711E+04  0.18307392974E+04  0.15294330000E+03 0.  0.
<mgrwt>
<rscale>  0 0.56616377E+03</rscale>
<asrwt>0</asrwt>
<pdfrwt beam="1">  1        1 0.37980423E+00 0.70470803E+03</pdfrwt>
<pdfrwt beam="2">  1       -1 0.31215489E-01 0.70470803E+03</pdfrwt>
<totfact> 0.14329903E+01</totfact>
</mgrwt>
</event>
<event>
 4    1  0.2514307E-008  0.7012948E+03  0.7818608E-02  0.9991872E-01
         -1   -1    0    0    0  501 -0.00000000000E+00  0.00000000000E+00  0.59136548244E+03  0.59136548247E+03  0.50400000000E-02 0.  1.
          1   -1    0    0  501    0  0.00000000000E+00 -0.00000000000E+00 -0.15578723342E+04  0.15578723342E+04  0.50400000000E-02 0. -1.
    8880023    1    1    2    0    0  0.15588290440E+03 -0.18358833827E+03  0.36285477147E+03  0.78960619886E+03  0.65864270000E+03 0.  1.
    8880022    1    1    2    0    0 -0.15588290440E+03  0.18358833827E+03 -0.13293616232E+04  0.13596316178E+04  0.15294330000E+03 0.  0.
<mgrwt>
<rscale>  0 0.56008083E+03</rscale>
<asrwt>0</asrwt>
<pdfrwt beam="1">  1        1 0.23967267E+00 0.70129478E+03</pdfrwt>
<pdfrwt beam="2">  1       -1 0.90979306E-01 0.70129478E+03</pdfrwt>
<totfact> 0.73813390E+00</totfact>
</mgrwt>
</event>
<event>
 4    1  0.2514307E-008  0.8625258E+03  0.7818608E-02  0.9589086E-01
          1   -1    0    0  501    0  0.00000000000E+00  0.00000000000E+00  0.15029313688E+04  0.15029313688E+04  0.50400000000E-02 0. -1.
         -1   -1    0    0    0  501 -0.00000000000E+00 -0.00000000000E+00 -0.73044099022E+03  0.73044099024E+03  0.50400000000E-02 0.  1.
    8880023    1    1    2    0    0  0.15408012405E+03  0.53516346443E+03 -0.38135105650E+03  0.94306916652E+03  0.65864270000E+03 0.  0.
    8880022    1    1    2    0    0 -0.15408012405E+03 -0.53516346443E+03  0.11538414350E+04  0.12903031925E+04  0.15294330000E+03 0.  0.
<mgrwt>
<rscale>  0 0.78022762E+03</rscale>
<asrwt>0</asrwt>
<pdfrwt beam="1">  1        1 0.23122021E+00 0.86252584E+03</pdfrwt>
<pdfrwt beam="2">  1       -1 0.11237554E+00 0.86252584E+03</pdfrwt>
<totfact> 0.48366500E+00</totfact>
</mgrwt>
</event>
<event>
 4    1  0.2514307E-008  0.7679429E+03  0.7818608E-02  0.9784962E-01
         -1   -1    0    0    0  501 -0.00000000000E+00  0.00000000000E+00  0.22999677659E+03  0.22999677665E+03  0.50400000000E-02 0.  1.
          1   -1    0    0  501    0  0.00000000000E+00 -0.00000000000E+00 -0.33851824453E+04  0.33851824453E+04  0.50400000000E-02 0. -1.
    8880023    1    1    2    0    0 -0.21966746399E+03  0.32813455578E+03 -0.47766223805E+03  0.90437685804E+03  0.65864270000E+03 0.  1.
    8880022    1    1    2    0    0  0.21966746399E+03 -0.32813455578E+03 -0.26775234307E+04  0.27108023640E+04  0.15294330000E+03 0.  0.
<mgrwt>
<rscale>  0 0.66175861E+03</rscale>
<asrwt>0</asrwt>
<pdfrwt beam="1">  1        1 0.52079726E+00 0.76794289E+03</pdfrwt>
<pdfrwt beam="2">  1       -1 0.35384122E-01 0.76794289E+03</pdfrwt>
<totfact> 0.25186072E+00</totfact>
</mgrwt>
</event>
<event>
 4    1  0.2514307E-008  0.1373890E+04  0.7818608E-02  0.9004241E-01
         -1   -1    0    0    0  501 -0.00000000000E+00  0.00000000000E+00  0.19979550225E+04  0.19979550225E+04  0.50400000000E-02 0.  1.
          1   -1    0    0  501    0  0.00000000000E+00 -0.00000000000E+00 -0.11120995069E+04  0.11120995070E+04  0.50400000000E-02 0. -1.
    8880023    1    1    2    0    0 -0.11985916531E+04  0.13092126101E+03 -0.30626697741E+03  0.14076121608E+04  0.65864270000E+03 0.  0.
    8880022    1    1    2    0    0  0.11985916531E+04 -0.13092126101E+03  0.11921224930E+04  0.17024423687E+04  0.15294330000E+03 0.  0.
<mgrwt>
<rscale>  0 0.13324229E+04</rscale>
<asrwt>0</asrwt>
<pdfrwt beam="1">  1        1 0.17109223E+00 0.13738896E+04</pdfrwt>
<pdfrwt beam="2">  1       -1 0.30737769E+00 0.13738896E+04</pdfrwt>
<totfact> 0.35386072E-01</totfact>
</mgrwt>
</event>
<event>
 4    1  0.2514307E-008  0.7284985E+03  0.7818608E-02  0.9894813E-01
          1   -1    0    0  501    0  0.00000000000E+00  0.00000000000E+00  0.96654030401E+03  0.96654030402E+03  0.50400000000E-02 0. -1.
         -1   -1    0    0    0  501 -0.00000000000E+00 -0.00000000000E+00 -0.74179308101E+03  0.74179308103E+03  0.50400000000E-02 0.  1.
    8880023    1    1    2    0    0 -0.19891352981E+03 -0.23944379957E+03 -0.51443602310E+03  0.89182652664E+03  0.65864270000E+03 0.  1.
    8880022    1    1    2    0    0  0.19891352981E+03  0.23944379957E+03  0.73918324610E+03  0.81650685841E+03  0.15294330000E+03 0.  0.
<mgrwt>
<rscale>  0 0.60513312E+03</rscale>
<asrwt>0</asrwt>
<pdfrwt beam="1">  1        1 0.14869851E+00 0.72849855E+03</pdfrwt>
<pdfrwt beam="2">  1       -1 0.11412201E+00 0.72849855E+03</pdfrwt>
<totfact> 0.11629740E+01</totfact>
</mgrwt>
</event>
<event>
 4    1  0.2514307E-008  0.8941247E+03  0.7818608E-02  0.9535530E-01
         -1   -1    0    0    0  501 -0.00000000000E+00  0.00000000000E+00  0.30181018258E+03  0.30181018262E+03  0.50400000000E-02 0.  1.
          1   -1    0    0  501    0  0.00000000000E+00 -0.00000000000E+00 -0.33917114250E+04  0.33917114250E+04  0.50400000000E-02 0. -1.
    8880023    1    1    2    0    0 -0.31877068943E+03 -0.51384247241E+03 -0.48946956400E+03  0.10193328697E+04  0.65864270000E+03 0.  0.
    8880022    1    1    2    0    0  0.31877068943E+03  0.51384247241E+03 -0.26004316784E+04  0.26741887379E+04  0.15294330000E+03 0.  0.
<mgrwt>
<rscale>  0 0.81714275E+03</rscale>
<asrwt>0</asrwt>
<pdfrwt beam="1">  1        1 0.52180173E+00 0.89412474E+03</pdfrwt>
<pdfrwt beam="2">  1       -1 0.46432338E-01 0.89412474E+03</pdfrwt>
<totfact> 0.14796208E+00</totfact>
</mgrwt>
</event>
<event>
 4    1  0.2514307E-008  0.7704977E+03  0.7818608E-02  0.9778651E-01
         -1   -1    0    0    0  501 -0.00000000000E+00  0.00000000000E+00  0.71390617959E+03  0.71390617961E+03  0.50400000000E-02 0.  1.
          1   -1    0    0  501    0  0.00000000000E+00 -0.00000000000E+00 -0.54411283343E+03  0.54411283346E+03  0.50400000000E-02 0. -1.
    8880023    1    1    2    0    0  0.37133215413E+03  0.14821912653E+03  0.27343256759E+03  0.81757694038E+03  0.65864270000E+03 0.  1.
    8880022    1    1    2    0    0 -0.37133215413E+03 -0.14821912653E+03 -0.10363922143E+03  0.44044207269E+03  0.15294330000E+03 0.  0.
<mgrwt>
<rscale>  0 0.66520951E+03</rscale>
<asrwt>0</asrwt>
<pdfrwt beam="1">  1        1 0.83709667E-01 0.77049769E+03</pdfrwt>
<pdfrwt beam="2">  1       -1 0.10983172E+00 0.77049769E+03</pdfrwt>
<totfact> 0.30828872E+01</totfact>
</mgrwt>
</event>
<event>
 4    1  0.2514307E-008  0.9304086E+03  0.7818608E-02  0.9478880E-01
          1   -1    0    0  501    0  0.00000000000E+00  0.00000000000E+00  0.21540141790E+04  0.21540141790E+04  0.50400000000E-02 0. -1.
         -1   -1    0    0    0  501 -0.00000000000E+00 -0.00000000000E+00 -0.34123410740E+03  0.34123410744E+03  0.50400000000E-02 0.  1.
    8880023    1    1    2    0    0 -0.42734585431E+03  0.49922495952E+03  0.59903386651E+03  0.11065721029E+04  0.65864270000E+03 0.  0.
    8880022    1    1    2    0    0  0.42734585431E+03 -0.49922495952E+03  0.12137462051E+04  0.13886761835E+04  0.15294330000E+03 0.  0.
<mgrwt>
<rscale>  0 0.85858947E+03</rscale>
<asrwt>0</asrwt>
<pdfrwt beam="1">  1        1 0.33138680E+00 0.93040864E+03</pdfrwt>
<pdfrwt beam="2">  1       -1 0.52497555E-01 0.93040864E+03</pdfrwt>
<totfact> 0.87493523E+00</totfact>
</mgrwt>
</event>
<event>
 4    1  0.2514307E-008  0.7019137E+03  0.7818608E-02  0.9989353E-01
         -1   -1    0    0    0  501 -0.00000000000E+00  0.00000000000E+00  0.78621347214E+03  0.78621347215E+03  0.50400000000E-02 0.  1.
          1   -1    0    0  501    0  0.00000000000E+00 -0.00000000000E+00 -0.59195554666E+03  0.59195554668E+03  0.50400000000E-02 0. -1.
    8880023    1    1    2    0    0  0.18612757729E+03  0.15565726078E+03  0.57088710722E+03  0.90476237395E+03  0.65864270000E+03 0.  1.
    8880022    1    1    2    0    0 -0.18612757729E+03 -0.15565726078E+03 -0.37662918175E+03  0.47340664488E+03  0.15294330000E+03 0. -1.
<mgrwt>
<rscale>  0 0.56119556E+03</rscale>
<asrwt>0</asrwt>
<pdfrwt beam="1">  1        1 0.91070084E-01 0.70191372E+03</pdfrwt>
<pdfrwt beam="2">  1       -1 0.12095592E+00 0.70191372E+03</pdfrwt>
<totfact> 0.21868814E+01</totfact>
</mgrwt>
</event>
<event>
 4    1  0.2514307E-008  0.8035519E+03  0.7818608E-02  0.9703168E-01
          1   -1    0    0  501    0  0.00000000000E+00  0.00000000000E+00  0.15889198520E+04  0.15889198520E+04  0.50400000000E-02 0. -1.
         -1   -1    0    0    0  501 -0.00000000000E+00 -0.00000000000E+00 -0.60821880734E+03  0.60821880736E+03  0.50400000000E-02 0.  1.
    8880023    1    1    2    0    0  0.45807162295E+03  0.45340866756E+02 -0.27635527077E+03  0.84974575486E+03  0.65864270000E+03 0.  1.
    8880022    1    1    2    0    0 -0.45807162295E+03 -0.45340866756E+02  0.12570563155E+04  0.13473929045E+04  0.15294330000E+03 0.  0.
<mgrwt>
<rscale>  0 0.70828474E+03</rscale>
<asrwt>0</asrwt>
<pdfrwt beam="1">  1        1 0.24444920E+00 0.80355187E+03</pdfrwt>
<pdfrwt beam="2">  1       -1 0.93572126E-01 0.80355187E+03</pdfrwt>
<totfact> 0.64999731E+00</totfact>
</mgrwt>
</event>
<event>
 4    1  0.2514307E-008  0.9070170E+03  0.7818608E-02  0.9514860E-01
          1   -1    0    0  501    0  0.00000000000E+00  0.00000000000E+00  0.16072570953E+04  0.16072570953E+04  0.50400000000E-02 0. -1.
         -1   -1    0    0    0  501 -0.00000000000E+00 -0.00000000000E+00 -0.70543023461E+03  0.70543023463E+03  0.50400000000E-02 0.  1.
    8880023    1    1    2    0    0  0.17457894656E+03  0.59865830276E+03 -0.29560615817E+03  0.95397210601E+03  0.65864270000E+03 0.  1.
    8880022    1    1    2    0    0 -0.17457894656E+03 -0.59865830276E+03  0.11974330188E+04  0.13587152239E+04  0.15294330000E+03 0.  0.
<mgrwt>
<rscale>  0 0.83197087E+03</rscale>
<asrwt>0</asrwt>
<pdfrwt beam="1">  1        1 0.24727032E+00 0.90701697E+03</pdfrwt>
<pdfrwt beam="2">  1       -1 0.10852773E+00 0.90701697E+03</pdfrwt>
<totfact> 0.44288746E+00</totfact>
</mgrwt>
</event>
<event>
 4    1  0.2514307E-008  0.8702313E+03  0.7818608E-02  0.9575617E-01
         -1   -1    0    0    0  501 -0.00000000000E+00  0.00000000000E+00  0.38317741603E+03  0.38317741606E+03  0.50400000000E-02 0.  1.
          1   -1    0    0  501    0  0.00000000000E+00 -0.00000000000E+00 -0.18260202591E+04  0.18260202591E+04  0.50400000000E-02 0. -1.
    8880023    1    1    2    0    0  0.44023035729E+03  0.36012439929E+03 -0.29465215073E+03  0.91876136545E+03  0.65864270000E+03 0.  0.
    8880022    1    1    2    0    0 -0.44023035729E+03 -0.36012439929E+03 -0.11481906924E+04  0.12904363097E+04  0.15294330000E+03 0.  0.
<mgrwt>
<rscale>  0 0.78931266E+03</rscale>
<asrwt>0</asrwt>
<pdfrwt beam="1">  1        1 0.28092619E+00 0.87023132E+03</pdfrwt>
<pdfrwt beam="2">  1       -1 0.58950373E-01 0.87023132E+03</pdfrwt>
<totfact> 0.11691565E+01</totfact>
</mgrwt>
</event>
<event>
 4    1  0.2514307E-008  0.7952939E+03  0.7818608E-02  0.9721066E-01
         -1   -1    0    0    0  501 -0.00000000000E+00  0.00000000000E+00  0.58088382058E+03  0.58088382060E+03  0.50400000000E-02 0.  1.
          1   -1    0    0  501    0  0.00000000000E+00 -0.00000000000E+00 -0.83947152456E+03  0.83947152457E+03  0.50400000000E-02 0. -1.
    8880023    1    1    2    0    0 -0.43402341873E+03  0.10151767157E+03  0.13462087308E+03  0.80660718530E+03  0.65864270000E+03 0.  0.
    8880022    1    1    2    0    0  0.43402341873E+03 -0.10151767157E+03 -0.39320857707E+03  0.61374815987E+03  0.15294330000E+03 0.  0.
<mgrwt>
<rscale>  0 0.69776295E+03</rscale>
<asrwt>0</asrwt>
<pdfrwt beam="1">  1        1 0.12914947E+00 0.79529389E+03</pdfrwt>
<pdfrwt beam="2">  1       -1 0.89366742E-01 0.79529389E+03</pdfrwt>
<totfact> 0.25625122E+01</totfact>
</mgrwt>
</event>
<event>
 4    1  0.2514307E-008  0.9581562E+03  0.7818608E-02  0.9438475E-01
         -1   -1    0    0    0  501 -0.00000000000E+00  0.00000000000E+00  0.24643298333E+04  0.24643298333E+04  0.50400000000E-02 0.  1.
          1   -1    0    0  501    0  0.00000000000E+00 -0.00000000000E+00 -0.94784368085E+03  0.94784368086E+03  0.50400000000E-02 0. -1.
    8880023    1    1    2    0    0  0.46830249108E+02 -0.69430547386E+03  0.22156405971E+04  0.24139442050E+04  0.65864270000E+03 0.  1.
    8880022    1    1    2    0    0 -0.46830249108E+02  0.69430547386E+03 -0.69915444460E+03  0.99822930917E+03  0.15294330000E+03 0.  0.
<mgrwt>
<rscale>  0 0.88975870E+03</rscale>
<asrwt>0</asrwt>
<pdfrwt beam="1">  1        1 0.14582211E+00 0.95815623E+03</pdfrwt>
<pdfrwt beam="2">  1       -1 0.37912767E+00 0.95815623E+03</pdfrwt>
<totfact> 0.17026945E-01</totfact>
</mgrwt>
</event>
<event>
 4    1  0.2514307E-008  0.7972038E+03  0.7818608E-02  0.9716875E-01
          1   -1    0    0  501    0  0.00000000000E+00  0.00000000000E+00  0.19793564738E+04  0.19793564738E+04  0.50400000000E-02 0. -1.
         -1   -1    0    0    0  501 -0.00000000000E+00 -0.00000000000E+00 -0.54182717525E+03  0.54182717527E+03  0.50400000000E-02 0.  1.
    8880023    1    1    2    0    0  0.10564270116E+03  0.43653566962E+03 -0.19533273102E+03  0.82078550988E+03  0.65864270000E+03 0.  0.
    8880022    1    1    2    0    0 -0.10564270116E+03 -0.43653566962E+03  0.16328620296E+04  0.17003981392E+04  0.15294330000E+03 0.  0.
<mgrwt>
<rscale>  0 0.70020901E+03</rscale>
<asrwt>0</asrwt>
<pdfrwt beam="1">  1        1 0.30451638E+00 0.79720385E+03</pdfrwt>
<pdfrwt beam="2">  1       -1 0.83358027E-01 0.79720385E+03</pdfrwt>
<totfact> 0.45780185E+00</totfact>
</mgrwt>
</event>
<event>
 4    1  0.2514307E-008  0.1470163E+04  0.7818608E-02  0.8930997E-01
          1   -1    0    0  501    0  0.00000000000E+00  0.00000000000E+00  0.19192619100E+04  0.19192619100E+04  0.50400000000E-02 0. -1.
         -1   -1    0    0    0  501 -0.00000000000E+00 -0.00000000000E+00 -0.15398427827E+04  0.15398427827E+04  0.50400000000E-02 0.  1.
    8880023    1    1    2    0    0 -0.12632951685E+04 -0.36284358311E+03 -0.81115832035E+03  0.16790944510E+04  0.65864270000E+03 0.  1.
    8880022    1    1    2    0    0  0.12632951685E+04  0.36284358311E+03  0.11905774476E+04  0.17800102416E+04  0.15294330000E+03 0.  0.
<mgrwt>
<rscale>  0 0.14319696E+04</rscale>
<asrwt>0</asrwt>
<pdfrwt beam="1">  1        1 0.29527106E+00 0.14701634E+04</pdfrwt>
<pdfrwt beam="2">  1       -1 0.23689889E+00 0.14701634E+04</pdfrwt>
<totfact> 0.27214920E-01</totfact>
</mgrwt>
</event>
<event>
 4    1  0.2514307E-008  0.7465747E+03  0.7818608E-02  0.9841193E-01
          1   -1    0    0  501    0  0.00000000000E+00  0.00000000000E+00  0.26755639772E+04  0.26755639772E+04  0.50400000000E-02 0. -1.
         -1   -1    0    0    0  501 -0.00000000000E+00 -0.00000000000E+00 -0.37754189441E+03  0.37754189444E+03  0.50400000000E-02 0.  1.
    8880023    1    1    2    0    0 -0.10132305744E+03  0.33659642154E+03  0.23960066561E+02  0.74695903771E+03  0.65864270000E+03 0.  1.
    8880022    1    1    2    0    0  0.10132305744E+03 -0.33659642154E+03  0.22740620162E+04  0.23061468339E+04  0.15294330000E+03 0.  0.
<mgrwt>
<rscale>  0 0.63197957E+03</rscale>
<asrwt>0</asrwt>
<pdfrwt beam="1">  1        1 0.41162524E+00 0.74657466E+03</pdfrwt>
<pdfrwt beam="2">  1       -1 0.58083367E-01 0.74657466E+03</pdfrwt>
<totfact> 0.32673549E+00</totfact>
</mgrwt>
</event>
<event>
 4    1  0.2514307E-008  0.9295793E+03  0.7818608E-02  0.9480125E-01
         -1   -1    0    0    0  501 -0.00000000000E+00  0.00000000000E+00  0.29370162178E+03  0.29370162183E+03  0.50400000000E-02 0.  1.
          1   -1    0    0  501    0  0.00000000000E+00 -0.00000000000E+00 -0.27630385132E+04  0.27630385132E+04  0.50400000000E-02 0. -1.
    8880023    1    1    2    0    0 -0.34300051426E+03 -0.55915838453E+03 -0.70041334429E+03  0.11639143057E+04  0.65864270000E+03 0.  0.
    8880022    1    1    2    0    0  0.34300051426E+03  0.55915838453E+03 -0.17689235472E+04  0.18928258294E+04  0.15294330000E+03 0.  0.
<mgrwt>
<rscale>  0 0.85765144E+03</rscale>
<asrwt>0</asrwt>
<pdfrwt beam="1">  1        1 0.42508283E+00 0.92957929E+03</pdfrwt>
<pdfrwt beam="2">  1       -1 0.45184867E-01 0.92957929E+03</pdfrwt>
<totfact> 0.44457321E+00</totfact>
</mgrwt>
</event>
<event>
 4    1  0.2514307E-008  0.1427623E+04  0.7818608E-02  0.8962511E-01
         -1   -1    0    0    0  501 -0.00000000000E+00  0.00000000000E+00  0.81523691677E+03  0.81523691679E+03  0.50400000000E-02 0.  1.
          1   -1    0    0  501    0  0.00000000000E+00 -0.00000000000E+00 -0.28597348395E+04  0.28597348395E+04  0.50400000000E-02 0. -1.
    8880023    1    1    2    0    0  0.11824007672E+04 -0.45412197624E+03 -0.21375820746E+03  0.14435377103E+04  0.65864270000E+03 0.  0.
    8880022    1    1    2    0    0 -0.11824007672E+04  0.45412197624E+03 -0.18307397152E+04  0.22314340460E+04  0.15294330000E+03 0.  0.
<mgrwt>
<rscale>  0 0.13880551E+04</rscale>
<asrwt>0</asrwt>
<pdfrwt beam="1">  1        1 0.43995920E+00 0.14276234E+04</pdfrwt>
<pdfrwt beam="2">  1       -1 0.12542107E+00 0.14276234E+04</pdfrwt>
<totfact> 0.40346763E-01</totfact>
</mgrwt>
</event>
<event>
 4    1  0.2514307E-008  0.9547643E+03  0.7818608E-02  0.9443292E-01
         -1   -1    0    0    0  501 -0.00000000000E+00  0.00000000000E+00  0.52737873451E+03  0.52737873453E+03  0.50400000000E-02 0.  1.
          1   -1    0    0  501    0  0.00000000000E+00 -0.00000000000E+00 -0.20059183786E+04  0.20059183786E+04  0.50400000000E-02 0. -1.
    8880023    1    1    2    0    0 -0.63432803684E+03  0.27457722666E+03 -0.70564145529E+02  0.95736838083E+03  0.65864270000E+03 0.  0.
    8880022    1    1    2    0    0  0.63432803684E+03 -0.27457722666E+03 -0.14079754985E+04  0.15759287323E+04  0.15294330000E+03 0.  0.
<mgrwt>
<rscale>  0 0.88596955E+03</rscale>
<asrwt>0</asrwt>
<pdfrwt beam="1">  1        1 0.30860282E+00 0.95476433E+03</pdfrwt>
<pdfrwt beam="2">  1       -1 0.81135191E-01 0.95476433E+03</pdfrwt>
<totfact> 0.45475510E+00</totfact>
</mgrwt>
</event>
<event>
 4    1  0.2514307E-008  0.1195333E+04  0.7818608E-02  0.9161672E-01
          1   -1    0    0  501    0  0.00000000000E+00  0.00000000000E+00  0.75803915106E+03  0.75803915107E+03  0.50400000000E-02 0. -1.
         -1   -1    0    0    0  501 -0.00000000000E+00 -0.00000000000E+00 -0.28701854993E+04  0.28701854993E+04  0.50400000000E-02 0.  1.
    8880023    1    1    2    0    0 -0.96578560206E+03  0.24953900764E+03  0.97233985732E+02  0.11992815348E+04  0.65864270000E+03 0.  0.
    8880022    1    1    2    0    0  0.96578560206E+03 -0.24953900764E+03 -0.22093803339E+04  0.24289431155E+04  0.15294330000E+03 0.  0.
<mgrwt>
<rscale>  0 0.11457945E+04</rscale>
<asrwt>0</asrwt>
<pdfrwt beam="1">  1        1 0.11662141E+00 0.11953333E+04</pdfrwt>
<pdfrwt beam="2">  1       -1 0.44156699E+00 0.11953333E+04</pdfrwt>
<totfact> 0.88660106E-02</totfact>
</mgrwt>
</event>
<event>
 4    1  0.2514307E-008  0.9995790E+03  0.7818608E-02  0.9382109E-01
         -1   -1    0    0    0  501 -0.00000000000E+00  0.00000000000E+00  0.13747151766E+04  0.13747151767E+04  0.50400000000E-02 0.  1.
          1   -1    0    0  501    0  0.00000000000E+00 -0.00000000000E+00 -0.14687153454E+04  0.14687153455E+04  0.50400000000E-02 0. -1.
    8880023    1    1    2    0    0  0.55797877652E+03  0.50399163396E+03  0.10604207732E+04  0.14572749585E+04  0.65864270000E+03 0.  1.
    8880022    1    1    2    0    0 -0.55797877652E+03 -0.50399163396E+03 -0.11544209420E+04  0.13861555636E+04  0.15294330000E+03 0.  0.
<mgrwt>
<rscale>  0 0.93562804E+03</rscale>
<asrwt>0</asrwt>
<pdfrwt beam="1">  1        1 0.22595621E+00 0.99957896E+03</pdfrwt>
<pdfrwt beam="2">  1       -1 0.21149464E+00 0.99957896E+03</pdfrwt>
<totfact> 0.87044121E-01</totfact>
</mgrwt>
</event>
<event>
 4    1  0.2514307E-008  0.8188218E+03  0.7818608E-02  0.9671486E-01
         -1   -1    0    0    0  501 -0.00000000000E+00  0.00000000000E+00  0.50460268624E+03  0.50460268626E+03  0.50400000000E-02 0.  1.
          1   -1    0    0  501    0  0.00000000000E+00 -0.00000000000E+00 -0.14348932053E+04  0.14348932053E+04  0.50400000000E-02 0. -1.
    8880023    1    1    2    0    0 -0.37814285104E+03  0.30605054535E+03  0.64764546335E+02  0.82137908716E+03  0.65864270000E+03 0.  1.
    8880022    1    1    2    0    0  0.37814285104E+03 -0.30605054535E+03 -0.99505506540E+03  0.11181168044E+04  0.15294330000E+03 0.  0.
<mgrwt>
<rscale>  0 0.72740166E+03</rscale>
<asrwt>0</asrwt>
<pdfrwt beam="1">  1        1 0.22075280E+00 0.81882181E+03</pdfrwt>
<pdfrwt beam="2">  1       -1 0.77631183E-01 0.81882181E+03</pdfrwt>
<totfact> 0.12397877E+01</totfact>
</mgrwt>
</event>
<event>
 4    1  0.2514307E-008  0.9600476E+03  0.7818608E-02  0.9435803E-01
          1   -1    0    0  501    0  0.00000000000E+00  0.00000000000E+00  0.24029809223E+04  0.24029809223E+04  0.50400000000E-02 0. -1.
         -1   -1    0    0    0  501 -0.00000000000E+00 -0.00000000000E+00 -0.16603766269E+04  0.16603766269E+04  0.50400000000E-02 0.  1.
    8880023    1    1    2    0    0 -0.27114779915E+03 -0.64370810481E+03  0.22218311316E+04  0.24203770444E+04  0.65864270000E+03 0.  0.
    8880022    1    1    2    0    0  0.27114779915E+03  0.64370810481E+03 -0.14792268363E+04  0.16429805048E+04  0.15294330000E+03 0.  0.
<mgrwt>
<rscale>  0 0.89186924E+03</rscale>
<asrwt>0</asrwt>
<pdfrwt beam="1">  1        1 0.36968937E+00 0.96004763E+03</pdfrwt>
<pdfrwt beam="2">  1       -1 0.25544256E+00 0.96004763E+03</pdfrwt>
<totfact> 0.10481554E-01</totfact>
</mgrwt>
</event>
<event>
 4    1  0.2514307E-008  0.1127318E+04  0.7818608E-02  0.9231233E-01
          1   -1    0    0  501    0  0.00000000000E+00  0.00000000000E+00  0.23932214184E+04  0.23932214184E+04  0.50400000000E-02 0. -1.
         -1   -1    0    0    0  501 -0.00000000000E+00 -0.00000000000E+00 -0.66792791986E+03  0.66792791988E+03  0.50400000000E-02 0.  1.
    8880023    1    1    2    0    0  0.64630743800E+03 -0.64755151958E+03  0.28872249495E+02  0.11276879391E+04  0.65864270000E+03 0.  0.
    8880022    1    1    2    0    0 -0.64630743800E+03  0.64755151958E+03  0.16964212491E+04  0.19334613992E+04  0.15294330000E+03 0.  0.
<mgrwt>
<rscale>  0 0.10736784E+04</rscale>
<asrwt>0</asrwt>
<pdfrwt beam="1">  1        1 0.36818791E+00 0.11273183E+04</pdfrwt>
<pdfrwt beam="2">  1       -1 0.10275814E+00 0.11273183E+04</pdfrwt>
<totfact> 0.14352321E+00</totfact>
</mgrwt>
</event>
<event>
 4    1  0.2514307E-008  0.6934572E+03  0.7818608E-02  0.1002551E+00
         -1   -1    0    0    0  501 -0.00000000000E+00  0.00000000000E+00  0.12686040415E+04  0.12686040415E+04  0.50400000000E-02 0.  1.
          1   -1    0    0  501    0  0.00000000000E+00 -0.00000000000E+00 -0.29393056718E+03  0.29393056722E+03  0.50400000000E-02 0. -1.
    8880023    1    1    2    0    0  0.17136674082E+03 -0.13306414910E+03  0.10745779385E+04  0.12789060089E+04  0.65864270000E+03 0.  1.
    8880022    1    1    2    0    0 -0.17136674082E+03  0.13306414910E+03 -0.99904464155E+02  0.28362859977E+03  0.15294330000E+03 0.  0.
<mgrwt>
<rscale>  0 0.54545742E+03</rscale>
<asrwt>0</asrwt>
<pdfrwt beam="1">  1        1 0.45220087E-01 0.69345716E+03</pdfrwt>
<pdfrwt beam="2">  1       -1 0.19516985E+00 0.69345716E+03</pdfrwt>
<totfact> 0.15150111E+01</totfact>
</mgrwt>
</event>
<event>
 4    1  0.2514307E-008  0.6614054E+03  0.7818608E-02  0.1022761E+00
          1   -1    0    0  501    0  0.00000000000E+00  0.00000000000E+00  0.18691122026E+04  0.18691122026E+04  0.50400000000E-02 0. -1.
         -1   -1    0    0    0  501 -0.00000000000E+00 -0.00000000000E+00 -0.41535087730E+03  0.41535087733E+03  0.50400000000E-02 0.  1.
    8880023    1    1    2    0    0  0.57622408282E+02  0.18072419673E+02 -0.14512802539E+03  0.67714053512E+03  0.65864270000E+03 0.  1.
    8880022    1    1    2    0    0 -0.57622408282E+02 -0.18072419673E+02  0.15988893507E+04  0.16073225448E+04  0.15294330000E+03 0.  0.
<mgrwt>
<rscale>  0 0.46703439E+03</rscale>
<asrwt>0</asrwt>
<pdfrwt beam="1">  1        1 0.28755573E+00 0.66140544E+03</pdfrwt>
<pdfrwt beam="2">  1       -1 0.63900135E-01 0.66140544E+03</pdfrwt>
<totfact> 0.96248153E+00</totfact>
</mgrwt>
</event>
<event>
 4    1  0.2514307E-008  0.9287868E+03  0.7818608E-02  0.9481316E-01
          1   -1    0    0  501    0  0.00000000000E+00  0.00000000000E+00  0.93018820095E+03  0.93018820096E+03  0.50400000000E-02 0. -1.
         -1   -1    0    0    0  501 -0.00000000000E+00 -0.00000000000E+00 -0.85159626189E+03  0.85159626191E+03  0.50400000000E-02 0.  1.
    8880023    1    1    2    0    0 -0.59683710807E+03  0.26948123321E+03 -0.34069571294E+03  0.98930199823E+03  0.65864270000E+03 0.  0.
    8880022    1    1    2    0    0  0.59683710807E+03 -0.26948123321E+03  0.41928765200E+03  0.79248246464E+03  0.15294330000E+03 0.  0.
<mgrwt>
<rscale>  0 0.85675470E+03</rscale>
<asrwt>0</asrwt>
<pdfrwt beam="1">  1        1 0.14310588E+00 0.92878678E+03</pdfrwt>
<pdfrwt beam="2">  1       -1 0.13101481E+00 0.92878678E+03</pdfrwt>
<totfact> 0.86355391E+00</totfact>
</mgrwt>
</event>
<event>
 4    1  0.2514307E-008  0.1264154E+04  0.7818608E-02  0.9097150E-01
         -1   -1    0    0    0  501 -0.00000000000E+00  0.00000000000E+00  0.13659500382E+04  0.13659500382E+04  0.50400000000E-02 0.  1.
          1   -1    0    0  501    0  0.00000000000E+00 -0.00000000000E+00 -0.13517446784E+04  0.13517446784E+04  0.50400000000E-02 0. -1.
    8880023    1    1    2    0    0 -0.76448634906E+03  0.76146907202E+03  0.68518055081E+03  0.14379002465E+04  0.65864270000E+03 0.  0.
    8880022    1    1    2    0    0  0.76448634906E+03 -0.76146907202E+03 -0.67097519106E+03  0.12797944700E+04  0.15294330000E+03 0.  0.
<mgrwt>
<rscale>  0 0.12181106E+04</rscale>
<asrwt>0</asrwt>
<pdfrwt beam="1">  1        1 0.20796072E+00 0.12641538E+04</pdfrwt>
<pdfrwt beam="2">  1       -1 0.21014616E+00 0.12641538E+04</pdfrwt>
<totfact> 0.10364311E+00</totfact>
</mgrwt>
</event>
<event>
 4    1  0.2514307E-008  0.1085686E+04  0.7818608E-02  0.9277163E-01
         -1   -1    0    0    0  501 -0.00000000000E+00  0.00000000000E+00  0.10724996946E+04  0.10724996946E+04  0.50400000000E-02 0.  1.
          1   -1    0    0  501    0  0.00000000000E+00 -0.00000000000E+00 -0.16798204056E+04  0.16798204056E+04  0.50400000000E-02 0. -1.
    8880023    1    1    2    0    0 -0.45863781141E+03 -0.73113250087E+03  0.61533033908E+03  0.12479362998E+04  0.65864270000E+03 0.  0.
    8880022    1    1    2    0    0  0.45863781141E+03  0.73113250087E+03 -0.12226510500E+04  0.15043838004E+04  0.15294330000E+03 0.  0.
<mgrwt>
<rscale>  0 0.10291273E+04</rscale>
<asrwt>0</asrwt>
<pdfrwt beam="1">  1        1 0.25843391E+00 0.10856858E+04</pdfrwt>
<pdfrwt beam="2">  1       -1 0.16499995E+00 0.10856858E+04</pdfrwt>
<totfact> 0.13122906E+00</totfact>
</mgrwt>
</event>
<event>
 4    1  0.2514307E-008  0.8586864E+03  0.7818608E-02  0.9595904E-01
          1   -1    0    0  501    0  0.00000000000E+00  0.00000000000E+00  0.30789400422E+04  0.30789400422E+04  0.50400000000E-02 0. -1.
         -1   -1    0    0    0  501 -0.00000000000E+00 -0.00000000000E+00 -0.24851282734E+03  0.24851282739E+03  0.50400000000E-02 0.  1.
    8880023    1    1    2    0    0  0.55076821548E+03 -0.13655002664E+02  0.66013693825E+03  0.10831080601E+04  0.65864270000E+03 0. -1.
    8880022    1    1    2    0    0 -0.55076821548E+03  0.13655002664E+02  0.21702902766E+04  0.22443448095E+04  0.15294330000E+03 0.  0.
<mgrwt>
<rscale>  0 0.77567847E+03</rscale>
<asrwt>0</asrwt>
<pdfrwt beam="1">  1        1 0.47368304E+00 0.85868638E+03</pdfrwt>
<pdfrwt beam="2">  1       -1 0.38232746E-01 0.85868638E+03</pdfrwt>
<totfact> 0.36364895E+00</totfact>
</mgrwt>
</event>
<event>
 4    1  0.2514307E-008  0.9335757E+03  0.7818608E-02  0.9474150E-01
          1   -1    0    0  501    0  0.00000000000E+00  0.00000000000E+00  0.50125520515E+03  0.50125520517E+03  0.50400000000E-02 0. -1.
         -1   -1    0    0    0  501 -0.00000000000E+00 -0.00000000000E+00 -0.25100269857E+04  0.25100269857E+04  0.50400000000E-02 0.  1.
    8880023    1    1    2    0    0  0.14126586052E+03 -0.64637247928E+03 -0.21261970500E+04  0.23221278016E+04  0.65864270000E+03 0.  1.
    8880022    1    1    2    0    0 -0.14126586052E+03  0.64637247928E+03  0.11742526945E+03  0.68915438926E+03  0.15294330000E+03 0.  0.
<mgrwt>
<rscale>  0 0.86216792E+03</rscale>
<asrwt>0</asrwt>
<pdfrwt beam="1">  1        1 0.77116187E-01 0.93357572E+03</pdfrwt>
<pdfrwt beam="2">  1       -1 0.38615799E+00 0.93357572E+03</pdfrwt>
<totfact> 0.40661832E-01</totfact>
</mgrwt>
</event>
<event>
 4    1  0.2514307E-008  0.7531184E+03  0.7818608E-02  0.9823260E-01
          1   -1    0    0  501    0  0.00000000000E+00  0.00000000000E+00  0.17086982924E+04  0.17086982924E+04  0.50400000000E-02 0. -1.
         -1   -1    0    0    0  501 -0.00000000000E+00 -0.00000000000E+00 -0.80765527632E+03  0.80765527633E+03  0.50400000000E-02 0.  1.
    8880023    1    1    2    0    0  0.23338314578E+03  0.28090814653E+03 -0.60066845633E+03  0.96332231377E+03  0.65864270000E+03 0.  1.
    8880022    1    1    2    0    0 -0.23338314578E+03 -0.28090814653E+03  0.15017114724E+04  0.15530312550E+04  0.15294330000E+03 0.  0.
<mgrwt>
<rscale>  0 0.64129058E+03</rscale>
<asrwt>0</asrwt>
<pdfrwt beam="1">  1        1 0.26287666E+00 0.75311837E+03</pdfrwt>
<pdfrwt beam="2">  1       -1 0.12425466E+00 0.75311837E+03</pdfrwt>
<totfact> 0.27970692E+00</totfact>
</mgrwt>
</event>
<event>
 4    1  0.2514307E-008  0.8033513E+03  0.7818608E-02  0.9703596E-01
          1   -1    0    0  501    0  0.00000000000E+00  0.00000000000E+00  0.13422641891E+04  0.13422641891E+04  0.50400000000E-02 0. -1.
         -1   -1    0    0    0  501 -0.00000000000E+00 -0.00000000000E+00 -0.74602072797E+03  0.74602072799E+03  0.50400000000E-02 0.  1.
    8880023    1    1    2    0    0  0.17377830703E+03  0.42586879485E+03 -0.46028524891E+03  0.92587031870E+03  0.65864270000E+03 0.  1.
    8880022    1    1    2    0    0 -0.17377830703E+03 -0.42586879485E+03  0.10565287100E+04  0.11624145984E+04  0.15294330000E+03 0.  0.
<mgrwt>
<rscale>  0 0.70803083E+03</rscale>
<asrwt>0</asrwt>
<pdfrwt beam="1">  1        1 0.20650218E+00 0.80335132E+03</pdfrwt>
<pdfrwt beam="2">  1       -1 0.11477242E+00 0.80335132E+03</pdfrwt>
<totfact> 0.59977477E+00</totfact>
</mgrwt>
</event>
<event>
 4    1  0.2514307E-008  0.8551644E+03  0.7818608E-02  0.9602224E-01
          1   -1    0    0  501    0  0.00000000000E+00  0.00000000000E+00  0.14608177692E+04  0.14608177692E+04  0.50400000000E-02 0. -1.
         -1   -1    0    0    0  501 -0.00000000000E+00 -0.00000000000E+00 -0.65901391124E+03  0.65901391126E+03  0.50400000000E-02 0.  1.
    8880023    1    1    2    0    0  0.17851796231E+03 -0.51539034027E+03 -0.27904159118E+03  0.89953892722E+03  0.65864270000E+03 0.  0.
    8880022    1    1    2    0    0 -0.17851796231E+03  0.51539034027E+03  0.10808454492E+04  0.12202927533E+04  0.15294330000E+03 0.  0.
<mgrwt>
<rscale>  0 0.77149177E+03</rscale>
<asrwt>0</asrwt>
<pdfrwt beam="1">  1        1 0.22474120E+00 0.85516435E+03</pdfrwt>
<pdfrwt beam="2">  1       -1 0.10138676E+00 0.85516435E+03</pdfrwt>
<totfact> 0.65853516E+00</totfact>
</mgrwt>
</event>
<event>
 4    1  0.3389645E-008  0.9386523E+03  0.7818608E-02  0.9466632E-01
         -1   -1    0    0    0  501 -0.00000000000E+00  0.00000000000E+00  0.13407048211E+04  0.13407048211E+04  0.50400000000E-02 0.  1.
          1   -1    0    0  501    0  0.00000000000E+00 -0.00000000000E+00 -0.21741596542E+04  0.21741596542E+04  0.50400000000E-02 0. -1.
    8880023    1    1    2    0    0 -0.51738328623E+03  0.42375995289E+03  0.11101193738E+04  0.14537651780E+04  0.65864270000E+03 0.  1.
    8880022    1    1    2    0    0  0.51738328623E+03 -0.42375995289E+03 -0.19435742069E+04  0.20610992973E+04  0.15294330000E+03 0.  0.
<mgrwt>
<rscale>  0 0.86789219E+03</rscale>
<asrwt>0</asrwt>
<pdfrwt beam="1">  1        1 0.33448610E+00 0.93865232E+03</pdfrwt>
<pdfrwt beam="2">  1       -1 0.20626228E+00 0.93865232E+03</pdfrwt>
<totfact> 0.31770486E-01</totfact>
</mgrwt>
</event>
<event>
 4    1  0.2514307E-008  0.6754458E+03  0.7818608E-02  0.1012027E+00
          1   -1    0    0  501    0  0.00000000000E+00  0.00000000000E+00  0.87752918325E+03  0.87752918326E+03  0.50400000000E-02 0. -1.
         -1   -1    0    0    0  501 -0.00000000000E+00 -0.00000000000E+00 -0.57759471788E+03  0.57759471790E+03  0.50400000000E-02 0.  1.
    8880023    1    1    2    0    0  0.12141469383E+03 -0.87609086998E+02 -0.35715246664E+03  0.76405822467E+03  0.65864270000E+03 0.  1.
    8880022    1    1    2    0    0 -0.12141469383E+03  0.87609086998E+02  0.65708693200E+03  0.69106567649E+03  0.15294330000E+03 0.  0.
<mgrwt>
<rscale>  0 0.50677035E+03</rscale>
<asrwt>0</asrwt>
<pdfrwt beam="1">  1        1 0.13500449E+00 0.67544584E+03</pdfrwt>
<pdfrwt beam="2">  1       -1 0.88860726E-01 0.67544584E+03</pdfrwt>
<totfact> 0.24451255E+01</totfact>
</mgrwt>
</event>
<event>
 4    1  0.2514307E-008  0.8945061E+03  0.7818608E-02  0.9534909E-01
         -1   -1    0    0    0  501 -0.00000000000E+00  0.00000000000E+00  0.23523096800E+04  0.23523096800E+04  0.50400000000E-02 0.  1.
          1   -1    0    0  501    0  0.00000000000E+00 -0.00000000000E+00 -0.13784088821E+04  0.13784088821E+04  0.50400000000E-02 0. -1.
    8880023    1    1    2    0    0 -0.37803138331E+03 -0.47267658446E+03  0.21889567995E+04  0.23646718497E+04  0.65864270000E+03 0.  1.
    8880022    1    1    2    0    0  0.37803138331E+03  0.47267658446E+03 -0.12150560016E+04  0.13660467124E+04  0.15294330000E+03 0.  0.
<mgrwt>
<rscale>  0 0.81758310E+03</rscale>
<asrwt>0</asrwt>
<pdfrwt beam="1">  1        1 0.21206291E+00 0.89450606E+03</pdfrwt>
<pdfrwt beam="2">  1       -1 0.36189380E+00 0.89450606E+03</pdfrwt>
<totfact> 0.10781733E-01</totfact>
</mgrwt>
</event>
<event>
 4    1  0.2514307E-008  0.1142482E+04  0.7818608E-02  0.9215169E-01
         -1   -1    0    0    0  501 -0.00000000000E+00  0.00000000000E+00  0.49595424728E+03  0.49595424731E+03  0.50400000000E-02 0.  1.
          1   -1    0    0  501    0  0.00000000000E+00 -0.00000000000E+00 -0.25949881484E+04  0.25949881484E+04  0.50400000000E-02 0. -1.
    8880023    1    1    2    0    0 -0.29931730395E+03 -0.88423097107E+03 -0.53142993916E+03  0.12600330333E+04  0.65864270000E+03 0.  0.
    8880022    1    1    2    0    0  0.29931730395E+03  0.88423097107E+03 -0.15676039620E+04  0.18309093624E+04  0.15294330000E+03 0.  0.
<mgrwt>
<rscale>  0 0.10898222E+04</rscale>
<asrwt>0</asrwt>
<pdfrwt beam="1">  1        1 0.39922894E+00 0.11424822E+04</pdfrwt>
<pdfrwt beam="2">  1       -1 0.76300655E-01 0.11424822E+04</pdfrwt>
<totfact> 0.20070595E+00</totfact>
</mgrwt>
</event>
<event>
 4    1  0.2514307E-008  0.2027097E+04  0.7818608E-02  0.8606336E-01
         -1   -1    0    0    0  501 -0.00000000000E+00  0.00000000000E+00  0.12798415739E+04  0.12798415739E+04  0.50400000000E-02 0.  1.
          1   -1    0    0  501    0  0.00000000000E+00 -0.00000000000E+00 -0.34284924499E+04  0.34284924499E+04  0.50400000000E-02 0. -1.
    8880023    1    1    2    0    0  0.63047539856E+03  0.18104729276E+04 -0.31563714917E+03  0.20515234500E+04  0.65864270000E+03 0.  0.
    8880022    1    1    2    0    0 -0.63047539856E+03 -0.18104729276E+04 -0.18330137268E+04  0.26568105738E+04  0.15294330000E+03 0.  0.
<mgrwt>
<rscale>  0 0.20006083E+04</rscale>
<asrwt>0</asrwt>
<pdfrwt beam="1">  1        1 0.52746037E+00 0.20270969E+04</pdfrwt>
<pdfrwt beam="2">  1       -1 0.19689871E+00 0.20270969E+04</pdfrwt>
<totfact> 0.40123153E-02</totfact>
</mgrwt>
</event>
<event>
 4    1  0.2514307E-008  0.1033350E+04  0.7818608E-02  0.9339170E-01
          1   -1    0    0  501    0  0.00000000000E+00  0.00000000000E+00  0.72470782599E+03  0.72470782600E+03  0.50400000000E-02 0. -1.
         -1   -1    0    0    0  501 -0.00000000000E+00 -0.00000000000E+00 -0.17290271567E+04  0.17290271567E+04  0.50400000000E-02 0.  1.
    8880023    1    1    2    0    0 -0.28284235222E+03 -0.74431354344E+03 -0.12354499249E+04  0.16106362626E+04  0.65864270000E+03 0.  0.
    8880022    1    1    2    0    0  0.28284235222E+03  0.74431354344E+03  0.23113059426E+03  0.84309872006E+03  0.15294330000E+03 0.  0.
<mgrwt>
<rscale>  0 0.97255433E+03</rscale>
<asrwt>0</asrwt>
<pdfrwt beam="1">  1        1 0.11149351E+00 0.10333502E+04</pdfrwt>
<pdfrwt beam="2">  1       -1 0.26600418E+00 0.10333502E+04</pdfrwt>
<totfact> 0.14243889E+00</totfact>
</mgrwt>
</event>
<event>
 4    1  0.2514307E-008  0.7012648E+03  0.7818608E-02  0.9991994E-01
         -1   -1    0    0    0  501 -0.00000000000E+00  0.00000000000E+00  0.11867337531E+04  0.11867337532E+04  0.50400000000E-02 0.  1.
          1   -1    0    0  501    0  0.00000000000E+00 -0.00000000000E+00 -0.12144988268E+04  0.12144988268E+04  0.50400000000E-02 0. -1.
    8880023    1    1    2    0    0  0.43661932081E+02  0.23676085236E+03  0.10631753307E+04  0.12736224149E+04  0.65864270000E+03 0.  1.
    8880022    1    1    2    0    0 -0.43661932081E+02 -0.23676085236E+03 -0.10909404043E+04  0.11276101651E+04  0.15294330000E+03 0.  0.
<mgrwt>
<rscale>  0 0.56002664E+03</rscale>
<asrwt>0</asrwt>
<pdfrwt beam="1">  1        1 0.18684597E+00 0.70126477E+03</pdfrwt>
<pdfrwt beam="2">  1       -1 0.18257442E+00 0.70126477E+03</pdfrwt>
<totfact> 0.21918025E+00</totfact>
</mgrwt>
</event>
<event>
 4    1  0.2514307E-008  0.7301327E+03  0.7818608E-02  0.9889682E-01
          1   -1    0    0  501    0  0.00000000000E+00  0.00000000000E+00  0.31089113947E+04  0.31089113947E+04  0.50400000000E-02 0. -1.
         -1   -1    0    0    0  501 -0.00000000000E+00 -0.00000000000E+00 -0.20612642626E+03  0.20612642632E+03  0.50400000000E-02 0.  1.
    8880023    1    1    2    0    0 -0.94931248476E+02 -0.30045229826E+03  0.49546438622E+03  0.88237106126E+03  0.65864270000E+03 0.  1.
    8880022    1    1    2    0    0  0.94931248476E+02  0.30045229826E+03  0.24073205822E+04  0.24326667597E+04  0.15294330000E+03 0.  0.
<mgrwt>
<rscale>  0 0.60763940E+03</rscale>
<asrwt>0</asrwt>
<pdfrwt beam="1">  1        1 0.47829403E+00 0.73013268E+03</pdfrwt>
<pdfrwt beam="2">  1       -1 0.31711760E-01 0.73013268E+03</pdfrwt>
<totfact> 0.49383962E+00</totfact>
</mgrwt>
</event>
<event>
 4    1  0.2514307E-008  0.1016939E+04  0.7818608E-02  0.9359724E-01
          1   -1    0    0  501    0  0.00000000000E+00  0.00000000000E+00  0.13683179072E+04  0.13683179073E+04  0.50400000000E-02 0. -1.
         -1   -1    0    0    0  501 -0.00000000000E+00 -0.00000000000E+00 -0.15151650106E+04  0.15151650106E+04  0.50400000000E-02 0.  1.
    8880023    1    1    2    0    0  0.44014246000E+03 -0.63767540987E+03 -0.11962524589E+04  0.15700909098E+04  0.65864270000E+03 0.  0.
    8880022    1    1    2    0    0 -0.44014246000E+03  0.63767540987E+03  0.10494053556E+04  0.13133920080E+04  0.15294330000E+03 0.  0.
<mgrwt>
<rscale>  0 0.95465692E+03</rscale>
<asrwt>0</asrwt>
<pdfrwt beam="1">  1        1 0.21051045E+00 0.10169393E+04</pdfrwt>
<pdfrwt beam="2">  1       -1 0.23310231E+00 0.10169393E+04</pdfrwt>
<totfact> 0.73245640E-01</totfact>
</mgrwt>
</event>
<event>
 4    1  0.2514307E-008  0.7566199E+03  0.7818608E-02  0.9813938E-01
         -1   -1    0    0    0  501 -0.00000000000E+00  0.00000000000E+00  0.55548700381E+03  0.55548700384E+03  0.50400000000E-02 0.  1.
          1   -1    0    0  501    0  0.00000000000E+00 -0.00000000000E+00 -0.10137914930E+04  0.10137914930E+04  0.50400000000E-02 0. -1.
    8880023    1    1    2    0    0  0.14194677876E+03  0.34425945537E+03  0.21343773078E+03  0.78614841589E+03  0.65864270000E+03 0.  0.
    8880022    1    1    2    0    0 -0.14194677876E+03 -0.34425945537E+03 -0.67174222001E+03  0.78313008100E+03  0.15294330000E+03 0.  0.
<mgrwt>
<rscale>  0 0.64619882E+03</rscale>
<asrwt>0</asrwt>
<pdfrwt beam="1">  1        1 0.15596792E+00 0.75661990E+03</pdfrwt>
<pdfrwt beam="2">  1       -1 0.85459539E-01 0.75661990E+03</pdfrwt>
<totfact> 0.20538557E+01</totfact>
</mgrwt>
</event>
<event>
 4    1  0.2514307E-008  0.1163547E+04  0.7818608E-02  0.9193398E-01
          1   -1    0    0  501    0  0.00000000000E+00  0.00000000000E+00  0.16106213314E+04  0.16106213314E+04  0.50400000000E-02 0. -1.
         -1   -1    0    0    0  501 -0.00000000000E+00 -0.00000000000E+00 -0.83548550062E+03  0.83548550063E+03  0.50400000000E-02 0.  1.
    8880023    1    1    2    0    0 -0.16166705434E+03 -0.94545994025E+03 -0.60068258847E+02  0.11650961922E+04  0.65864270000E+03 0.  0.
    8880022    1    1    2    0    0  0.16166705434E+03  0.94545994025E+03  0.83520408965E+03  0.12810106399E+04  0.15294330000E+03 0.  0.
<mgrwt>
<rscale>  0 0.11121827E+04</rscale>
<asrwt>0</asrwt>
<pdfrwt beam="1">  1        1 0.24778790E+00 0.11635467E+04</pdfrwt>
<pdfrwt beam="2">  1       -1 0.12853623E+00 0.11635467E+04</pdfrwt>
<totfact> 0.28246175E+00</totfact>
</mgrwt>
</event>
<event>
 4    1  0.2514307E-008  0.1179462E+04  0.7818608E-02  0.9177350E-01
          1   -1    0    0  501    0  0.00000000000E+00  0.00000000000E+00  0.18733622098E+04  0.18733622098E+04  0.50400000000E-02 0. -1.
         -1   -1    0    0    0  501 -0.00000000000E+00 -0.00000000000E+00 -0.17219294583E+04  0.17219294583E+04  0.50400000000E-02 0.  1.
    8880023    1    1    2    0    0  0.77925519196E+03  0.59167654071E+03 -0.13525295239E+04  0.17945657141E+04  0.65864270000E+03 0.  0.
    8880022    1    1    2    0    0 -0.77925519196E+03 -0.59167654071E+03  0.15039622753E+04  0.18007259541E+04  0.15294330000E+03 0.  0.
<mgrwt>
<rscale>  0 0.11290302E+04</rscale>
<asrwt>0</asrwt>
<pdfrwt beam="1">  1        1 0.28820957E+00 0.11794617E+04</pdfrwt>
<pdfrwt beam="2">  1       -1 0.26491222E+00 0.11794617E+04</pdfrwt>
<totfact> 0.19968128E-01</totfact>
</mgrwt>
</event>
<event>
 4    1  0.2514307E-008  0.1037015E+04  0.7818608E-02  0.9334656E-01
          1   -1    0    0  501    0  0.00000000000E+00  0.00000000000E+00  0.17970465911E+04  0.17970465911E+04  0.50400000000E-02 0. -1.
         -1   -1    0    0    0  501 -0.00000000000E+00 -0.00000000000E+00 -0.63957321542E+03  0.63957321544E+03  0.50400000000E-02 0.  1.
    8880023    1    1    2    0    0  0.19288331602E+03 -0.77742301093E+03  0.20213837823E+02  0.10372122816E+04  0.65864270000E+03 0.  1.
    8880022    1    1    2    0    0 -0.19288331602E+03  0.77742301093E+03  0.11372595378E+04  0.13994075249E+04  0.15294330000E+03 0.  0.
<mgrwt>
<rscale>  0 0.97654019E+03</rscale>
<asrwt>0</asrwt>
<pdfrwt beam="1">  1        1 0.27646870E+00 0.10370153E+04</pdfrwt>
<pdfrwt beam="2">  1       -1 0.98395880E-01 0.10370153E+04</pdfrwt>
<totfact> 0.40635076E+00</totfact>
</mgrwt>
</event>
<event>
 4    1  0.2514307E-008  0.1080886E+04  0.7818608E-02  0.9282641E-01
          1   -1    0    0  501    0  0.00000000000E+00  0.00000000000E+00  0.21958367091E+04  0.21958367091E+04  0.50400000000E-02 0. -1.
         -1   -1    0    0    0  501 -0.00000000000E+00 -0.00000000000E+00 -0.48267439634E+03  0.48267439636E+03  0.50400000000E-02 0.  1.
    8880023    1    1    2    0    0 -0.52292494255E+03  0.67901010200E+03  0.13644384221E+04  0.17406917097E+04  0.65864270000E+03 0.  0.
    8880022    1    1    2    0    0  0.52292494255E+03 -0.67901010200E+03  0.34872389065E+03  0.93781939577E+03  0.15294330000E+03 0.  0.
<mgrwt>
<rscale>  0 0.10239678E+04</rscale>
<asrwt>0</asrwt>
<pdfrwt beam="1">  1        1 0.33782104E+00 0.10808864E+04</pdfrwt>
<pdfrwt beam="2">  1       -1 0.74257598E-01 0.10808864E+04</pdfrwt>
<totfact> 0.40175856E+00</totfact>
</mgrwt>
</event>
<event>
 4    1  0.2514307E-008  0.1312581E+04  0.7818608E-02  0.9054771E-01
          1   -1    0    0  501    0  0.00000000000E+00  0.00000000000E+00  0.16975022660E+04  0.16975022660E+04  0.50400000000E-02 0. -1.
         -1   -1    0    0    0  501 -0.00000000000E+00 -0.00000000000E+00 -0.98752847479E+03  0.98752847480E+03  0.50400000000E-02 0.  1.
    8880023    1    1    2    0    0  0.11352112758E+04  0.18795039166E+02 -0.44418494202E+02  0.13133320613E+04  0.65864270000E+03 0. -1.
    8880022    1    1    2    0    0 -0.11352112758E+04 -0.18795039166E+02  0.75439228545E+03  0.13716986796E+04  0.15294330000E+03 0.  0.
<mgrwt>
<rscale>  0 0.12686880E+04</rscale>
<asrwt>0</asrwt>
<pdfrwt beam="1">  1        1 0.26115419E+00 0.13125807E+04</pdfrwt>
<pdfrwt beam="2">  1       -1 0.15192746E+00 0.13125807E+04</pdfrwt>
<totfact> 0.15624880E+00</totfact>
</mgrwt>
</event>
<event>
 4    1  0.2514307E-008  0.7978895E+03  0.7818608E-02  0.9715378E-01
         -1   -1    0    0    0  501 -0.00000000000E+00  0.00000000000E+00  0.10398579267E+04  0.10398579267E+04  0.50400000000E-02 0.  1.
          1   -1    0    0  501    0  0.00000000000E+00 -0.00000000000E+00 -0.70753977285E+03  0.70753977287E+03  0.50400000000E-02 0. -1.
    8880023    1    1    2    0    0 -0.12707282211E+03 -0.43205312396E+03  0.76429923671E+03  0.11048895572E+04  0.65864270000E+03 0.  1.
    8880022    1    1    2    0    0  0.12707282211E+03  0.43205312396E+03 -0.43198108289E+03  0.64250814238E+03  0.15294330000E+03 0.  0.
<mgrwt>
<rscale>  0 0.70108520E+03</rscale>
<asrwt>0</asrwt>
<pdfrwt beam="1">  1        1 0.10885227E+00 0.79788947E+03</pdfrwt>
<pdfrwt beam="2">  1       -1 0.15997814E+00 0.79788947E+03</pdfrwt>
<totfact> 0.80371150E+00</totfact>
</mgrwt>
</event>
<event>
 4    1  0.2514307E-008  0.8753496E+03  0.7818608E-02  0.9566822E-01
          1   -1    0    0  501    0  0.00000000000E+00  0.00000000000E+00  0.14888003261E+04  0.14888003261E+04  0.50400000000E-02 0. -1.
         -1   -1    0    0    0  501 -0.00000000000E+00 -0.00000000000E+00 -0.80142051168E+03  0.80142051170E+03  0.50400000000E-02 0.  1.
    8880023    1    1    2    0    0 -0.57406280340E+03  0.53653098559E+02 -0.46604320063E+03  0.99168201978E+03  0.65864270000E+03 0.  1.
    8880022    1    1    2    0    0  0.57406280340E+03 -0.53653098559E+02  0.11534230150E+04  0.12985388180E+04  0.15294330000E+03 0.  0.
<mgrwt>
<rscale>  0 0.79531599E+03</rscale>
<asrwt>0</asrwt>
<pdfrwt beam="1">  1        1 0.22904620E+00 0.87534962E+03</pdfrwt>
<pdfrwt beam="2">  1       -1 0.12329546E+00 0.87534962E+03</pdfrwt>
<totfact> 0.39429339E+00</totfact>
</mgrwt>
</event>
<event>
 4    1  0.2514307E-008  0.6771766E+03  0.7818608E-02  0.1010968E+00
         -1   -1    0    0    0  501 -0.00000000000E+00  0.00000000000E+00  0.58511029095E+03  0.58511029097E+03  0.50400000000E-02 0.  1.
          1   -1    0    0  501    0  0.00000000000E+00 -0.00000000000E+00 -0.92598825696E+03  0.92598825697E+03  0.50400000000E-02 0. -1.
    8880023    1    1    2    0    0 -0.59263478254E+02  0.14575924605E+03  0.36683156310E+03  0.77015162118E+03  0.65864270000E+03 0.  1.
    8880022    1    1    2    0    0  0.59263478254E+02 -0.14575924605E+03 -0.70770952911E+03  0.74094692676E+03  0.15294330000E+03 0.  0.
<mgrwt>
<rscale>  0 0.51091717E+03</rscale>
<asrwt>0</asrwt>
<pdfrwt beam="1">  1        1 0.14245973E+00 0.67717658E+03</pdfrwt>
<pdfrwt beam="2">  1       -1 0.90016968E-01 0.67717658E+03</pdfrwt>
<totfact> 0.21707316E+01</totfact>
</mgrwt>
</event>
<event>
 4    1  0.2514307E-008  0.1039728E+04  0.7818608E-02  0.9331333E-01
         -1   -1    0    0    0  501 -0.00000000000E+00  0.00000000000E+00  0.49312062072E+03  0.49312062074E+03  0.50400000000E-02 0.  1.
          1   -1    0    0  501    0  0.00000000000E+00 -0.00000000000E+00 -0.25982821467E+04  0.25982821467E+04  0.50400000000E-02 0. -1.
    8880023    1    1    2    0    0  0.71906506027E+03 -0.36078930688E+03 -0.25860430393E+03  0.10714055615E+04  0.65864270000E+03 0.  0.
    8880022    1    1    2    0    0 -0.71906506027E+03  0.36078930688E+03 -0.18465572220E+04  0.20199972060E+04  0.15294330000E+03 0.  0.
<mgrwt>
<rscale>  0 0.97948746E+03</rscale>
<asrwt>0</asrwt>
<pdfrwt beam="1">  1        1 0.39973571E+00 0.10397277E+04</pdfrwt>
<pdfrwt beam="2">  1       -1 0.75864712E-01 0.10397277E+04</pdfrwt>
<totfact> 0.20489767E+00</totfact>
</mgrwt>
</event>
<event>
 4    1  0.2514307E-008  0.7232745E+03  0.7818608E-02  0.9911658E-01
          1   -1    0    0  501    0  0.00000000000E+00  0.00000000000E+00  0.29229178709E+04  0.29229178709E+04  0.50400000000E-02 0. -1.
         -1   -1    0    0    0  501 -0.00000000000E+00 -0.00000000000E+00 -0.74138322807E+03  0.74138322809E+03  0.50400000000E-02 0.  1.
    8880023    1    1    2    0    0 -0.33189727091E+02 -0.29700874028E+03 -0.55223529613E+03  0.90999438369E+03  0.65864270000E+03 0.  1.
    8880022    1    1    2    0    0  0.33189727091E+02  0.29700874028E+03  0.27337699389E+04  0.27543067153E+04  0.15294330000E+03 0.  0.
<mgrwt>
<rscale>  0 0.59699598E+03</rscale>
<asrwt>0</asrwt>
<pdfrwt beam="1">  1        1 0.44967967E+00 0.72327447E+03</pdfrwt>
<pdfrwt beam="2">  1       -1 0.11405896E+00 0.72327447E+03</pdfrwt>
<totfact> 0.51770845E-01</totfact>
</mgrwt>
</event>
<event>
 4    1  0.2514307E-008  0.1040225E+04  0.7818608E-02  0.9330726E-01
         -1   -1    0    0    0  501 -0.00000000000E+00  0.00000000000E+00  0.58654545750E+03  0.58654545752E+03  0.50400000000E-02 0.  1.
          1   -1    0    0  501    0  0.00000000000E+00 -0.00000000000E+00 -0.19655299085E+04  0.19655299085E+04  0.50400000000E-02 0. -1.
    8880023    1    1    2    0    0 -0.80233067790E+03 -0.67253199698E+02 -0.11624714357E+03  0.10467001071E+04  0.65864270000E+03 0.  0.
    8880022    1    1    2    0    0  0.80233067790E+03  0.67253199698E+02 -0.12627373074E+04  0.15053752589E+04  0.15294330000E+03 0.  0.
<mgrwt>
<rscale>  0 0.98002741E+03</rscale>
<asrwt>0</asrwt>
<pdfrwt beam="1">  1        1 0.30238921E+00 0.10402248E+04</pdfrwt>
<pdfrwt beam="2">  1       -1 0.90237764E-01 0.10402248E+04</pdfrwt>
<totfact> 0.37976109E+00</totfact>
</mgrwt>
</event>
<event>
 4    1  0.2514307E-008  0.9404291E+03  0.7818608E-02  0.9464020E-01
         -1   -1    0    0    0  501 -0.00000000000E+00  0.00000000000E+00  0.12702243684E+04  0.12702243684E+04  0.50400000000E-02 0.  1.
          1   -1    0    0  501    0  0.00000000000E+00 -0.00000000000E+00 -0.81520327717E+03  0.81520327719E+03  0.50400000000E-02 0. -1.
    8880023    1    1    2    0    0 -0.59899186171E+03  0.30299414221E+03  0.87035929755E+03  0.12813790281E+04  0.65864270000E+03 0.  1.
    8880022    1    1    2    0    0  0.59899186171E+03 -0.30299414221E+03 -0.41533820633E+03  0.80404861747E+03  0.15294330000E+03 0.  0.
<mgrwt>
<rscale>  0 0.86989234E+03</rscale>
<asrwt>0</asrwt>
<pdfrwt beam="1">  1        1 0.12541589E+00 0.94042911E+03</pdfrwt>
<pdfrwt beam="2">  1       -1 0.19541913E+00 0.94042911E+03</pdfrwt>
<totfact> 0.35113626E+00</totfact>
</mgrwt>
</event>
<event>
 4    1  0.2514307E-008  0.8180857E+03  0.7818608E-02  0.9672975E-01
          1   -1    0    0  501    0  0.00000000000E+00  0.00000000000E+00  0.94627783928E+03  0.94627783930E+03  0.50400000000E-02 0. -1.
         -1   -1    0    0    0  501 -0.00000000000E+00 -0.00000000000E+00 -0.93054727200E+03  0.93054727201E+03  0.50400000000E-02 0.  1.
    8880023    1    1    2    0    0 -0.45529219514E+03  0.16781825323E+03 -0.64580759770E+03  0.10422723294E+04  0.65864270000E+03 0.  1.
    8880022    1    1    2    0    0  0.45529219514E+03 -0.16781825323E+03  0.66153816499E+03  0.83455278193E+03  0.15294330000E+03 0.  0.
<mgrwt>
<rscale>  0 0.72648924E+03</rscale>
<asrwt>0</asrwt>
<pdfrwt beam="1">  1        1 0.14558121E+00 0.81808567E+03</pdfrwt>
<pdfrwt beam="2">  1       -1 0.14316112E+00 0.81808567E+03</pdfrwt>
<totfact> 0.67577935E+00</totfact>
</mgrwt>
</event>
<event>
 4    1  0.2514307E-008  0.9523505E+03  0.7818608E-02  0.9446740E-01
         -1   -1    0    0    0  501 -0.00000000000E+00  0.00000000000E+00  0.58840048731E+03  0.58840048733E+03  0.50400000000E-02 0.  1.
          1   -1    0    0  501    0  0.00000000000E+00 -0.00000000000E+00 -0.41408625527E+04  0.41408625527E+04  0.50400000000E-02 0. -1.
    8880023    1    1    2    0    0  0.24327238501E+03 -0.64341260083E+03  0.14669915763E+03  0.96358293744E+03  0.65864270000E+03 0.  1.
    8880022    1    1    2    0    0 -0.24327238501E+03  0.64341260083E+03 -0.36991612230E+04  0.37656801026E+04  0.15294330000E+03 0.  0.
<mgrwt>
<rscale>  0 0.88326962E+03</rscale>
<asrwt>0</asrwt>
<pdfrwt beam="1">  1        1 0.63705576E+00 0.95235048E+03</pdfrwt>
<pdfrwt beam="2">  1       -1 0.90523155E-01 0.95235048E+03</pdfrwt>
<totfact> 0.91550319E-02</totfact>
</mgrwt>
</event>
<event>
 4    1  0.2514307E-008  0.7927647E+03  0.7818608E-02  0.9726664E-01
         -1   -1    0    0    0  501 -0.00000000000E+00  0.00000000000E+00  0.64065036548E+03  0.64065036550E+03  0.50400000000E-02 0.  1.
          1   -1    0    0  501    0  0.00000000000E+00 -0.00000000000E+00 -0.20783431204E+04  0.20783431204E+04  0.50400000000E-02 0. -1.
    8880023    1    1    2    0    0  0.97750076160E+02 -0.43024478830E+03  0.35344459579E+03  0.86798556659E+03  0.65864270000E+03 0.  1.
    8880022    1    1    2    0    0 -0.97750076160E+02  0.43024478830E+03 -0.17911373507E+04  0.18510079193E+04  0.15294330000E+03 0.  0.
<mgrwt>
<rscale>  0 0.69451168E+03</rscale>
<asrwt>0</asrwt>
<pdfrwt beam="1">  1        1 0.31974509E+00 0.79276469E+03</pdfrwt>
<pdfrwt beam="2">  1       -1 0.98561596E-01 0.79276469E+03</pdfrwt>
<totfact> 0.27168693E+00</totfact>
</mgrwt>
</event>
<event>
 4    1  0.2514307E-008  0.8903306E+03  0.7818608E-02  0.9541736E-01
         -1   -1    0    0    0  501 -0.00000000000E+00  0.00000000000E+00  0.73874661004E+03  0.73874661006E+03  0.50400000000E-02 0.  1.
          1   -1    0    0  501    0  0.00000000000E+00 -0.00000000000E+00 -0.95685921063E+03  0.95685921064E+03  0.50400000000E-02 0. -1.
    8880023    1    1    2    0    0  0.37716775811E+03 -0.46542756425E+03  0.24464062692E+03  0.92332961499E+03  0.65864270000E+03 0.  0.
    8880022    1    1    2    0    0 -0.37716775811E+03  0.46542756425E+03 -0.46275322751E+03  0.77227620571E+03  0.15294330000E+03 0.  0.
<mgrwt>
<rscale>  0 0.81275517E+03</rscale>
<asrwt>0</asrwt>
<pdfrwt beam="1">  1        1 0.14720911E+00 0.89033058E+03</pdfrwt>
<pdfrwt beam="2">  1       -1 0.11365332E+00 0.89033058E+03</pdfrwt>
<totfact> 0.11717428E+01</totfact>
</mgrwt>
</event>
<event>
 4    1  0.2514307E-008  0.8116460E+03  0.7818608E-02  0.9686158E-01
          1   -1    0    0  501    0  0.00000000000E+00  0.00000000000E+00  0.26539764932E+04  0.26539764932E+04  0.50400000000E-02 0. -1.
         -1   -1    0    0    0  501 -0.00000000000E+00 -0.00000000000E+00 -0.61281014837E+03  0.61281014839E+03  0.50400000000E-02 0.  1.
    8880023    1    1    2    0    0 -0.10629080874E+03  0.46223516539E+03 -0.30591441036E+03  0.86738279720E+03  0.65864270000E+03 0.  1.
    8880022    1    1    2    0    0  0.10629080874E+03 -0.46223516539E+03  0.23470807552E+04  0.23994038444E+04  0.15294330000E+03 0.  0.
<mgrwt>
<rscale>  0 0.71846925E+03</rscale>
<asrwt>0</asrwt>
<pdfrwt beam="1">  1        1 0.40830406E+00 0.81164604E+03</pdfrwt>
<pdfrwt beam="2">  1       -1 0.94278487E-01 0.81164604E+03</pdfrwt>
<totfact> 0.12166022E+00</totfact>
</mgrwt>
</event>
<event>
 4    1  0.2514307E-008  0.1285777E+04  0.7818608E-02  0.9077941E-01
         -1   -1    0    0    0  501 -0.00000000000E+00  0.00000000000E+00  0.54353522146E+03  0.54353522148E+03  0.50400000000E-02 0.  1.
          1   -1    0    0  501    0  0.00000000000E+00 -0.00000000000E+00 -0.27507804148E+04  0.27507804148E+04  0.50400000000E-02 0. -1.
    8880023    1    1    2    0    0 -0.87479874917E+03 -0.67389853791E+03 -0.86582102011E+03  0.15501188135E+04  0.65864270000E+03 0.  0.
    8880022    1    1    2    0    0  0.87479874917E+03  0.67389853791E+03 -0.13414241732E+04  0.17441968228E+04  0.15294330000E+03 0.  0.
<mgrwt>
<rscale>  0 0.12407222E+04</rscale>
<asrwt>0</asrwt>
<pdfrwt beam="1">  1        1 0.42319698E+00 0.12857769E+04</pdfrwt>
<pdfrwt beam="2">  1       -1 0.83620805E-01 0.12857769E+04</pdfrwt>
<totfact> 0.12605969E+00</totfact>
</mgrwt>
</event>
<event>
 4    1  0.2514307E-008  0.1045213E+04  0.7818608E-02  0.9324658E-01
         -1   -1    0    0    0  501 -0.00000000000E+00  0.00000000000E+00  0.12192761175E+04  0.12192761175E+04  0.50400000000E-02 0.  1.
          1   -1    0    0  501    0  0.00000000000E+00 -0.00000000000E+00 -0.15176127861E+04  0.15176127861E+04  0.50400000000E-02 0. -1.
    8880023    1    1    2    0    0  0.71698217806E+03 -0.38025886846E+03  0.83274580952E+03  0.13363891799E+04  0.65864270000E+03 0.  0.
    8880022    1    1    2    0    0 -0.71698217806E+03  0.38025886846E+03 -0.11310824781E+04  0.14004997237E+04  0.15294330000E+03 0.  0.
<mgrwt>
<rscale>  0 0.98544143E+03</rscale>
<asrwt>0</asrwt>
<pdfrwt beam="1">  1        1 0.23347889E+00 0.10452131E+04</pdfrwt>
<pdfrwt beam="2">  1       -1 0.18758094E+00 0.10452131E+04</pdfrwt>
<totfact> 0.11689477E+00</totfact>
</mgrwt>
</event>
<event>
 4    1  0.2514307E-008  0.1075566E+04  0.7818608E-02  0.9288761E-01
         -1   -1    0    0    0  501 -0.00000000000E+00  0.00000000000E+00  0.66812343311E+03  0.66812343313E+03  0.50400000000E-02 0.  1.
          1   -1    0    0  501    0  0.00000000000E+00 -0.00000000000E+00 -0.14139456815E+04  0.14139456815E+04  0.50400000000E-02 0. -1.
    8880023    1    1    2    0    0  0.36152697836E+02  0.84954403427E+03 -0.34398915043E+03  0.11292346194E+04  0.65864270000E+03 0.  1.
    8880022    1    1    2    0    0 -0.36152697836E+02 -0.84954403427E+03 -0.40183309795E+03  0.95283449526E+03  0.15294330000E+03 0. -1.
<mgrwt>
<rscale>  0 0.10182420E+04</rscale>
<asrwt>0</asrwt>
<pdfrwt beam="1">  1        1 0.21753010E+00 0.10755660E+04</pdfrwt>
<pdfrwt beam="2">  1       -1 0.10278822E+00 0.10755660E+04</pdfrwt>
<totfact> 0.66958465E+00</totfact>
</mgrwt>
</event>
<event>
 4    1  0.2514307E-008  0.9070520E+03  0.7818608E-02  0.9514804E-01
          1   -1    0    0  501    0  0.00000000000E+00  0.00000000000E+00  0.14290584601E+04  0.14290584601E+04  0.50400000000E-02 0. -1.
         -1   -1    0    0    0  501 -0.00000000000E+00 -0.00000000000E+00 -0.13745588539E+04  0.13745588539E+04  0.50400000000E-02 0.  1.
    8880023    1    1    2    0    0  0.62314391004E+03 -0.24997129895E+02 -0.11343665681E+04  0.14524224269E+04  0.65864270000E+03 0.  0.
    8880022    1    1    2    0    0 -0.62314391004E+03  0.24997129895E+02  0.11888661744E+04  0.13511948871E+04  0.15294330000E+03 0.  0.
<mgrwt>
<rscale>  0 0.83201104E+03</rscale>
<asrwt>0</asrwt>
<pdfrwt beam="1">  1        1 0.21985515E+00 0.90705204E+03</pdfrwt>
<pdfrwt beam="2">  1       -1 0.21147059E+00 0.90705204E+03</pdfrwt>
<totfact> 0.94169277E-01</totfact>
</mgrwt>
</event>
<event>
 4    1  0.2514307E-008  0.1077642E+04  0.7818608E-02  0.9286367E-01
         -1   -1    0    0    0  501 -0.00000000000E+00  0.00000000000E+00  0.16687719464E+04  0.16687719464E+04  0.50400000000E-02 0.  1.
          1   -1    0    0  501    0  0.00000000000E+00 -0.00000000000E+00 -0.17073945881E+04  0.17073945881E+04  0.50400000000E-02 0. -1.
    8880023    1    1    2    0    0 -0.61327737048E+03 -0.59278327586E+03  0.13573433544E+04  0.17331163646E+04  0.65864270000E+03 0.  1.
    8880022    1    1    2    0    0  0.61327737048E+03  0.59278327586E+03 -0.13959659962E+04  0.16430501699E+04  0.15294330000E+03 0.  0.
<mgrwt>
<rscale>  0 0.10204765E+04</rscale>
<asrwt>0</asrwt>
<pdfrwt beam="1">  1        1 0.26267609E+00 0.10776416E+04</pdfrwt>
<pdfrwt beam="2">  1       -1 0.25673415E+00 0.10776416E+04</pdfrwt>
<totfact> 0.29699944E-01</totfact>
</mgrwt>
</event>
<event>
 4    1  0.2514307E-008  0.7213089E+03  0.7818608E-02  0.9918182E-01
          1   -1    0    0  501    0  0.00000000000E+00  0.00000000000E+00  0.82250668486E+03  0.82250668488E+03  0.50400000000E-02 0. -1.
         -1   -1    0    0    0  501 -0.00000000000E+00 -0.00000000000E+00 -0.70628599375E+03  0.70628599377E+03  0.50400000000E-02 0.  1.
    8880023    1    1    2    0    0  0.27347445827E+03  0.10811147640E+03 -0.46606092086E+03  0.85877782858E+03  0.65864270000E+03 0.  1.
    8880022    1    1    2    0    0 -0.27347445827E+03 -0.10811147640E+03  0.58228161197E+03  0.67001485006E+03  0.15294330000E+03 0.  0.
<mgrwt>
<rscale>  0 0.59388164E+03</rscale>
<asrwt>0</asrwt>
<pdfrwt beam="1">  1        1 0.12653949E+00 0.72130893E+03</pdfrwt>
<pdfrwt beam="2">  1       -1 0.10865938E+00 0.72130893E+03</pdfrwt>
<totfact> 0.17139643E+01</totfact>
</mgrwt>
</event>
<event>
 4    1  0.2514307E-008  0.1032370E+04  0.7818608E-02  0.9340382E-01
         -1   -1    0    0    0  501 -0.00000000000E+00  0.00000000000E+00  0.10944297051E+04  0.10944297052E+04  0.50400000000E-02 0.  1.
          1   -1    0    0  501    0  0.00000000000E+00 -0.00000000000E+00 -0.11363703529E+04  0.11363703529E+04  0.50400000000E-02 0. -1.
    8880023    1    1    2    0    0 -0.54931395532E+03 -0.57465747245E+03  0.60316136778E+03  0.11956549979E+04  0.65864270000E+03 0.  1.
    8880022    1    1    2    0    0  0.54931395532E+03  0.57465747245E+03 -0.64510201555E+03  0.10351450602E+04  0.15294330000E+03 0.  0.
<mgrwt>
<rscale>  0 0.97148736E+03</rscale>
<asrwt>0</asrwt>
<pdfrwt beam="1">  1        1 0.17482621E+00 0.10323697E+04</pdfrwt>
<pdfrwt beam="2">  1       -1 0.16837380E+00 0.10323697E+04</pdfrwt>
<totfact> 0.30102742E+00</totfact>
</mgrwt>
</event>
<event>
 4    1  0.2514307E-008  0.8278874E+03  0.7818608E-02  0.9653457E-01
         -1   -1    0    0    0  501 -0.00000000000E+00  0.00000000000E+00  0.70417768845E+03  0.70417768847E+03  0.50400000000E-02 0.  1.
          1   -1    0    0  501    0  0.00000000000E+00 -0.00000000000E+00 -0.12857257737E+04  0.12857257737E+04  0.50400000000E-02 0. -1.
    8880023    1    1    2    0    0  0.49003023174E+03  0.10704071863E+03  0.36736779673E+03  0.90573541821E+03  0.65864270000E+03 0.  1.
    8880022    1    1    2    0    0 -0.49003023174E+03 -0.10704071863E+03 -0.94891588201E+03  0.10841680440E+04  0.15294330000E+03 0.  0.
<mgrwt>
<rscale>  0 0.73856869E+03</rscale>
<asrwt>0</asrwt>
<pdfrwt beam="1">  1        1 0.19780396E+00 0.82788740E+03</pdfrwt>
<pdfrwt beam="2">  1       -1 0.10833503E+00 0.82788740E+03</pdfrwt>
<totfact> 0.75140156E+00</totfact>
</mgrwt>
</event>
<event>
 4    1  0.2514307E-008  0.2111647E+04  0.7818608E-02  0.8567296E-01
          1   -1    0    0  501    0  0.00000000000E+00  0.00000000000E+00  0.35300056764E+04  0.35300056764E+04  0.50400000000E-02 0. -1.
         -1   -1    0    0    0  501 -0.00000000000E+00 -0.00000000000E+00 -0.15790636807E+04  0.15790636807E+04  0.50400000000E-02 0.  1.
    8880023    1    1    2    0    0  0.16343072708E+04  0.11637367128E+04 -0.25069904577E+03  0.21264768068E+04  0.65864270000E+03 0.  0.
    8880022    1    1    2    0    0 -0.16343072708E+04 -0.11637367128E+04  0.22016410415E+04  0.29825925503E+04  0.15294330000E+03 0.  0.
<mgrwt>
<rscale>  0 0.20863136E+04</rscale>
<asrwt>0</asrwt>
<pdfrwt beam="1">  1        1 0.54307780E+00 0.21116471E+04</pdfrwt>
<pdfrwt beam="2">  1       -1 0.24293287E+00 0.21116471E+04</pdfrwt>
<totfact> 0.16125118E-02</totfact>
</mgrwt>
</event>
<event>
 4    1  0.2514307E-008  0.9289249E+03  0.7818608E-02  0.9481108E-01
         -1   -1    0    0    0  501 -0.00000000000E+00  0.00000000000E+00  0.85311708078E+03  0.85311708079E+03  0.50400000000E-02 0.  1.
          1   -1    0    0  501    0  0.00000000000E+00 -0.00000000000E+00 -0.13990913498E+04  0.13990913498E+04  0.50400000000E-02 0. -1.
    8880023    1    1    2    0    0 -0.51780779055E+03 -0.40120618116E+03  0.46428660405E+03  0.10384910037E+04  0.65864270000E+03 0.  1.
    8880022    1    1    2    0    0  0.51780779055E+03  0.40120618116E+03 -0.10102608731E+04  0.12137174270E+04  0.15294330000E+03 0.  0.
<mgrwt>
<rscale>  0 0.85691104E+03</rscale>
<asrwt>0</asrwt>
<pdfrwt beam="1">  1        1 0.21524482E+00 0.92892492E+03</pdfrwt>
<pdfrwt beam="2">  1       -1 0.13124878E+00 0.92892492E+03</pdfrwt>
<totfact> 0.38617976E+00</totfact>
</mgrwt>
</event>
<event>
 4    1  0.2514307E-008  0.7641047E+03  0.7818608E-02  0.9794594E-01
          1   -1    0    0  501    0  0.00000000000E+00  0.00000000000E+00  0.79495174159E+03  0.79495174161E+03  0.50400000000E-02 0. -1.
         -1   -1    0    0    0  501 -0.00000000000E+00 -0.00000000000E+00 -0.12575884343E+04  0.12575884343E+04  0.50400000000E-02 0.  1.
    8880023    1    1    2    0    0 -0.36518889673E+03  0.12916225190E+03 -0.10707868603E+04  0.13154620953E+04  0.65864270000E+03 0.  1.
    8880022    1    1    2    0    0  0.36518889673E+03 -0.12916225190E+03  0.60815016759E+03  0.73707808065E+03  0.15294330000E+03 0.  0.
<mgrwt>
<rscale>  0 0.65653446E+03</rscale>
<asrwt>0</asrwt>
<pdfrwt beam="1">  1        1 0.12230027E+00 0.76410472E+03</pdfrwt>
<pdfrwt beam="2">  1       -1 0.19347514E+00 0.76410472E+03</pdfrwt>
<totfact> 0.38648794E+00</totfact>
</mgrwt>
</event>
<event>
 4    1  0.2514307E-008  0.1100274E+04  0.7818608E-02  0.9260751E-01
          1   -1    0    0  501    0  0.00000000000E+00  0.00000000000E+00  0.10727010054E+04  0.10727010054E+04  0.50400000000E-02 0. -1.
         -1   -1    0    0    0  501 -0.00000000000E+00 -0.00000000000E+00 -0.97236706246E+03  0.97236706247E+03  0.50400000000E-02 0.  1.
    8880023    1    1    2    0    0 -0.21373605126E+03  0.85504919116E+03 -0.16370017323E+03  0.11123849028E+04  0.65864270000E+03 0.  0.
    8880022    1    1    2    0    0  0.21373605126E+03 -0.85504919116E+03  0.26403411612E+03  0.93268316507E+03  0.15294330000E+03 0.  0.
<mgrwt>
<rscale>  0 0.10447787E+04</rscale>
<asrwt>0</asrwt>
<pdfrwt beam="1">  1        1 0.16503092E+00 0.11002738E+04</pdfrwt>
<pdfrwt beam="2">  1       -1 0.14959493E+00 0.11002738E+04</pdfrwt>
<totfact> 0.46348716E+00</totfact>
</mgrwt>
</event>
<event>
 4    1  0.2514307E-008  0.7541786E+03  0.7818608E-02  0.9820418E-01
         -1   -1    0    0    0  501 -0.00000000000E+00  0.00000000000E+00  0.57561922745E+03  0.57561922747E+03  0.50400000000E-02 0.  1.
          1   -1    0    0  501    0  0.00000000000E+00 -0.00000000000E+00 -0.14735464648E+04  0.14735464648E+04  0.50400000000E-02 0. -1.
    8880023    1    1    2    0    0 -0.16147369437E+03  0.33000219156E+03  0.28104420426E+03  0.80484237676E+03  0.65864270000E+03 0.  1.
    8880022    1    1    2    0    0  0.16147369437E+03 -0.33000219156E+03 -0.11789714416E+04  0.12443233156E+04  0.15294330000E+03 0.  0.
<mgrwt>
<rscale>  0 0.64278199E+03</rscale>
<asrwt>0</asrwt>
<pdfrwt beam="1">  1        1 0.22669945E+00 0.75417863E+03</pdfrwt>
<pdfrwt beam="2">  1       -1 0.88556805E-01 0.75417863E+03</pdfrwt>
<totfact> 0.88677257E+00</totfact>
</mgrwt>
</event>
<event>
 4    1  0.2514307E-008  0.9924770E+03  0.7818608E-02  0.9391467E-01
          1   -1    0    0  501    0  0.00000000000E+00  0.00000000000E+00  0.22378631096E+04  0.22378631096E+04  0.50400000000E-02 0. -1.
         -1   -1    0    0    0  501 -0.00000000000E+00 -0.00000000000E+00 -0.39616926334E+03  0.39616926337E+03  0.50400000000E-02 0.  1.
    8880023    1    1    2    0    0  0.57796182074E+03 -0.46600493197E+03  0.54562555291E+03  0.11325713722E+04  0.65864270000E+03 0.  1.
    8880022    1    1    2    0    0 -0.57796182074E+03  0.46600493197E+03  0.12960682934E+04  0.15014610008E+04  0.15294330000E+03 0.  0.
<mgrwt>
<rscale>  0 0.92781269E+03</rscale>
<asrwt>0</asrwt>
<pdfrwt beam="1">  1        1 0.34428663E+00 0.99247704E+03</pdfrwt>
<pdfrwt beam="2">  1       -1 0.60949118E-01 0.99247704E+03</pdfrwt>
<totfact> 0.56915359E+00</totfact>
</mgrwt>
</event>
<event>
 4    1  0.2514307E-008  0.1284808E+04  0.7818608E-02  0.9078792E-01
          1   -1    0    0  501    0  0.00000000000E+00  0.00000000000E+00  0.24321903142E+04  0.24321903142E+04  0.50400000000E-02 0. -1.
         -1   -1    0    0    0  501 -0.00000000000E+00 -0.00000000000E+00 -0.98227188866E+03  0.98227188867E+03  0.50400000000E-02 0.  1.
    8880023    1    1    2    0    0 -0.14581569884E+03  0.10934617566E+04 -0.31931049424E+03  0.13238920761E+04  0.65864270000E+03 0.  0.
    8880022    1    1    2    0    0  0.14581569884E+03 -0.10934617566E+04  0.17692289198E+04  0.20905701268E+04  0.15294330000E+03 0.  0.
<mgrwt>
<rscale>  0 0.12397097E+04</rscale>
<asrwt>0</asrwt>
<pdfrwt beam="1">  1        1 0.37418312E+00 0.12848078E+04</pdfrwt>
<pdfrwt beam="2">  1       -1 0.15111875E+00 0.12848078E+04</pdfrwt>
<totfact> 0.50313272E-01</totfact>
</mgrwt>
</event>
<event>
 4    1  0.2514307E-008  0.7896513E+03  0.7818608E-02  0.9733635E-01
          1   -1    0    0  501    0  0.00000000000E+00  0.00000000000E+00  0.24185115748E+04  0.24185115748E+04  0.50400000000E-02 0. -1.
         -1   -1    0    0    0  501 -0.00000000000E+00 -0.00000000000E+00 -0.30943901669E+03  0.30943901673E+03  0.50400000000E-02 0.  1.
    8880023    1    1    2    0    0  0.50216035620E+02 -0.43268625757E+03  0.27421908059E+03  0.83590989834E+03  0.65864270000E+03 0.  0.
    8880022    1    1    2    0    0 -0.50216035620E+02  0.43268625757E+03  0.18348534776E+04  0.18920406932E+04  0.15294330000E+03 0.  0.
<mgrwt>
<rscale>  0 0.69048983E+03</rscale>
<asrwt>0</asrwt>
<pdfrwt beam="1">  1        1 0.37207872E+00 0.78965135E+03</pdfrwt>
<pdfrwt beam="2">  1       -1 0.47606001E-01 0.78965135E+03</pdfrwt>
<totfact> 0.71219745E+00</totfact>
</mgrwt>
</event>
<event>
 4    1  0.2514307E-008  0.7394984E+03  0.7818608E-02  0.9861411E-01
         -1   -1    0    0    0  501 -0.00000000000E+00  0.00000000000E+00  0.13289746769E+04  0.13289746769E+04  0.50400000000E-02 0.  1.
          1   -1    0    0  501    0  0.00000000000E+00 -0.00000000000E+00 -0.97340280922E+03  0.97340280923E+03  0.50400000000E-02 0. -1.
    8880023    1    1    2    0    0 -0.29765465676E+03  0.15636285939E+03  0.11836412355E+04  0.13956591343E+04  0.65864270000E+03 0.  0.
    8880022    1    1    2    0    0  0.29765465676E+03 -0.15636285939E+03 -0.82806936787E+03  0.90671835181E+03  0.15294330000E+03 0.  0.
<mgrwt>
<rscale>  0 0.62168494E+03</rscale>
<asrwt>0</asrwt>
<pdfrwt beam="1">  1        1 0.14975428E+00 0.73949837E+03</pdfrwt>
<pdfrwt beam="2">  1       -1 0.20445764E+00 0.73949837E+03</pdfrwt>
<totfact> 0.23265030E+00</totfact>
</mgrwt>
</event>
<event>
 4    1  0.2514307E-008  0.8249279E+03  0.7818608E-02  0.9659283E-01
         -1   -1    0    0    0  501 -0.00000000000E+00  0.00000000000E+00  0.45542330314E+03  0.45542330317E+03  0.50400000000E-02 0.  1.
          1   -1    0    0  501    0  0.00000000000E+00 -0.00000000000E+00 -0.33900293443E+04  0.33900293443E+04  0.50400000000E-02 0. -1.
    8880023    1    1    2    0    0 -0.34984958667E+03 -0.35256366647E+03  0.39895351185E+02  0.82589207377E+03  0.65864270000E+03 0.  1.
    8880022    1    1    2    0    0  0.34984958667E+03  0.35256366647E+03 -0.29745013923E+04  0.30195605737E+04  0.15294330000E+03 0.  0.
<mgrwt>
<rscale>  0 0.73493693E+03</rscale>
<asrwt>0</asrwt>
<pdfrwt beam="1">  1        1 0.52154296E+00 0.82492792E+03</pdfrwt>
<pdfrwt beam="2">  1       -1 0.70065126E-01 0.82492792E+03</pdfrwt>
<totfact> 0.67275716E-01</totfact>
</mgrwt>
</event>
<event>
 4    1  0.2514307E-008  0.7429965E+03  0.7818608E-02  0.9851303E-01
         -1   -1    0    0    0  501 -0.00000000000E+00  0.00000000000E+00  0.20335325688E+04  0.20335325688E+04  0.50400000000E-02 0.  1.
          1   -1    0    0  501    0  0.00000000000E+00 -0.00000000000E+00 -0.63638535786E+03  0.63638535788E+03  0.50400000000E-02 0. -1.
    8880023    1    1    2    0    0  0.52953640207E+02  0.33974917122E+03  0.19009974373E+04  0.20410377386E+04  0.65864270000E+03 0.  1.
    8880022    1    1    2    0    0 -0.52953640207E+02 -0.33974917122E+03 -0.50385022638E+03  0.62888018810E+03  0.15294330000E+03 0.  0.
<mgrwt>
<rscale>  0 0.62680530E+03</rscale>
<asrwt>0</asrwt>
<pdfrwt beam="1">  1        1 0.97905439E-01 0.74299650E+03</pdfrwt>
<pdfrwt beam="2">  1       -1 0.31285117E+00 0.74299650E+03</pdfrwt>
<totfact> 0.90771285E-01</totfact>
</mgrwt>
</event>
<event>
 4    1  0.2514307E-008  0.1038069E+04  0.7818608E-02  0.9333363E-01
          1   -1    0    0  501    0  0.00000000000E+00  0.00000000000E+00  0.41143126962E+04  0.41143126962E+04  0.50400000000E-02 0. -1.
         -1   -1    0    0    0  501 -0.00000000000E+00 -0.00000000000E+00 -0.35689832016E+03  0.35689832019E+03  0.50400000000E-02 0.  1.
    8880023    1    1    2    0    0  0.72525548199E+03 -0.34319421791E+03  0.57714020904E+03  0.11877200059E+04  0.65864270000E+03 0.  1.
    8880022    1    1    2    0    0 -0.72525548199E+03  0.34319421791E+03  0.31802741670E+04  0.32834910104E+04  0.15294330000E+03 0.  0.
<mgrwt>
<rscale>  0 0.97768578E+03</rscale>
<asrwt>0</asrwt>
<pdfrwt beam="1">  1        1 0.63297118E+00 0.10380694E+04</pdfrwt>
<pdfrwt beam="2">  1       -1 0.54907434E-01 0.10380694E+04</pdfrwt>
<totfact> 0.26704656E-01</totfact>
</mgrwt>
</event>
<event>
 4    1  0.2514307E-008  0.1636119E+04  0.7818608E-02  0.8819055E-01
         -1   -1    0    0    0  501 -0.00000000000E+00  0.00000000000E+00  0.80716651148E+03  0.80716651149E+03  0.50400000000E-02 0.  1.
          1   -1    0    0  501    0  0.00000000000E+00 -0.00000000000E+00 -0.33151995985E+04  0.33151995985E+04  0.50400000000E-02 0. -1.
    8880023    1    1    2    0    0  0.14844700329E+04 -0.19855416423E+03 -0.72719547496E+03  0.17904464526E+04  0.65864270000E+03 0. -1.
    8880022    1    1    2    0    0 -0.14844700329E+04  0.19855416423E+03 -0.17808376120E+04  0.23319196573E+04  0.15294330000E+03 0.  0.
<mgrwt>
<rscale>  0 0.16024328E+04</rscale>
<asrwt>0</asrwt>
<pdfrwt beam="1">  1        1 0.51003070E+00 0.16361190E+04</pdfrwt>
<pdfrwt beam="2">  1       -1 0.12417947E+00 0.16361190E+04</pdfrwt>
<totfact> 0.18638553E-01</totfact>
</mgrwt>
</event>
<event>
 4    1  0.2514307E-008  0.7896960E+03  0.7818608E-02  0.9733535E-01
         -1   -1    0    0    0  501 -0.00000000000E+00  0.00000000000E+00  0.59453103596E+03  0.59453103598E+03  0.50400000000E-02 0.  1.
          1   -1    0    0  501    0  0.00000000000E+00 -0.00000000000E+00 -0.17678460694E+04  0.17678460694E+04  0.50400000000E-02 0. -1.
    8880023    1    1    2    0    0 -0.24275559455E+03  0.36177251618E+03  0.27969616345E+03  0.83776475353E+03  0.65864270000E+03 0.  1.
    8880022    1    1    2    0    0  0.24275559455E+03 -0.36177251618E+03 -0.14530111969E+04  0.15246123519E+04  0.15294330000E+03 0.  0.
<mgrwt>
<rscale>  0 0.69054772E+03</rscale>
<asrwt>0</asrwt>
<pdfrwt beam="1">  1        1 0.27197632E+00 0.78969604E+03</pdfrwt>
<pdfrwt beam="2">  1       -1 0.91466314E-01 0.78969604E+03</pdfrwt>
<totfact> 0.51878374E+00</totfact>
</mgrwt>
</event>
<event>
 4    1  0.2514307E-008  0.9172466E+03  0.7818608E-02  0.9498894E-01
          1   -1    0    0  501    0  0.00000000000E+00  0.00000000000E+00  0.17894735368E+04  0.17894735368E+04  0.50400000000E-02 0. -1.
         -1   -1    0    0    0  501 -0.00000000000E+00 -0.00000000000E+00 -0.12026143244E+04  0.12026143244E+04  0.50400000000E-02 0.  1.
    8880023    1    1    2    0    0 -0.41709740944E+03 -0.48328130175E+03 -0.95021789259E+03  0.13207025839E+04  0.65864270000E+03 0.  1.
    8880022    1    1    2    0    0  0.41709740944E+03  0.48328130175E+03  0.15370771050E+04  0.16713852773E+04  0.15294330000E+03 0.  0.
<mgrwt>
<rscale>  0 0.84365425E+03</rscale>
<asrwt>0</asrwt>
<pdfrwt beam="1">  1        1 0.27530362E+00 0.91724657E+03</pdfrwt>
<pdfrwt beam="2">  1       -1 0.18501759E+00 0.91724657E+03</pdfrwt>
<totfact> 0.81225127E-01</totfact>
</mgrwt>
</event>
<event>
 4    1  0.2514307E-008  0.1170169E+04  0.7818608E-02  0.9186680E-01
          1   -1    0    0  501    0  0.00000000000E+00  0.00000000000E+00  0.24463127055E+04  0.24463127055E+04  0.50400000000E-02 0. -1.
         -1   -1    0    0    0  501 -0.00000000000E+00 -0.00000000000E+00 -0.65790121082E+03  0.65790121084E+03  0.50400000000E-02 0.  1.
    8880023    1    1    2    0    0 -0.85737642049E+02 -0.96339742802E+03  0.17736455621E+04  0.21248798399E+04  0.65864270000E+03 0.  0.
    8880022    1    1    2    0    0  0.85737642049E+02  0.96339742802E+03  0.14765932559E+02  0.97933407648E+03  0.15294330000E+03 0.  0.
<mgrwt>
<rscale>  0 0.11191978E+04</rscale>
<asrwt>0</asrwt>
<pdfrwt beam="1">  1        1 0.37635580E+00 0.11701691E+04</pdfrwt>
<pdfrwt beam="2">  1       -1 0.10121557E+00 0.11701691E+04</pdfrwt>
<totfact> 0.13591597E+00</totfact>
</mgrwt>
</event>
<event>
 4    1  0.2514307E-008  0.9294024E+03  0.7818608E-02  0.9480390E-01
         -1   -1    0    0    0  501 -0.00000000000E+00  0.00000000000E+00  0.31591625567E+03  0.31591625571E+03  0.50400000000E-02 0.  1.
          1   -1    0    0  501    0  0.00000000000E+00 -0.00000000000E+00 -0.29161392316E+04  0.29161392316E+04  0.50400000000E-02 0. -1.
    8880023    1    1    2    0    0 -0.50380922076E+03 -0.41970817239E+03 -0.56342354102E+03  0.10868463432E+04  0.65864270000E+03 0.  0.
    8880022    1    1    2    0    0  0.50380922076E+03  0.41970817239E+03 -0.20367994349E+04  0.21452091441E+04  0.15294330000E+03 0.  0.
<mgrwt>
<rscale>  0 0.85745136E+03</rscale>
<asrwt>0</asrwt>
<pdfrwt beam="1">  1        1 0.44863679E+00 0.92940244E+03</pdfrwt>
<pdfrwt beam="2">  1       -1 0.48602503E-01 0.92940244E+03</pdfrwt>
<totfact> 0.30211950E+00</totfact>
</mgrwt>
</event>
<event>
 4    1  0.2514307E-008  0.7196082E+03  0.7818608E-02  0.9923914E-01
         -1   -1    0    0    0  501 -0.00000000000E+00  0.00000000000E+00  0.35018354137E+03  0.35018354141E+03  0.50400000000E-02 0.  1.
          1   -1    0    0  501    0  0.00000000000E+00 -0.00000000000E+00 -0.17684438090E+04  0.17684438090E+04  0.50400000000E-02 0. -1.
    8880023    1    1    2    0    0  0.21805774227E+03  0.19098857280E+03 -0.60811616959E+02  0.72217315993E+03  0.65864270000E+03 0.  0.
    8880022    1    1    2    0    0 -0.21805774227E+03 -0.19098857280E+03 -0.13574486506E+04  0.13964541905E+04  0.15294330000E+03 0. -1.
<mgrwt>
<rscale>  0 0.59116193E+03</rscale>
<asrwt>0</asrwt>
<pdfrwt beam="1">  1        1 0.27206827E+00 0.71960824E+03</pdfrwt>
<pdfrwt beam="2">  1       -1 0.53874392E-01 0.71960824E+03</pdfrwt>
<totfact> 0.15545633E+01</totfact>
</mgrwt>
</event>
<event>
 4    1  0.2514307E-008  0.1050202E+04  0.7818608E-02  0.9318639E-01
          1   -1    0    0  501    0  0.00000000000E+00  0.00000000000E+00  0.23995527698E+04  0.23995527698E+04  0.50400000000E-02 0. -1.
         -1   -1    0    0    0  501 -0.00000000000E+00 -0.00000000000E+00 -0.79326910525E+03  0.79326910527E+03  0.50400000000E-02 0.  1.
    8880023    1    1    2    0    0 -0.81410402959E+03 -0.79676797689E+02 -0.31718509678E+03  0.10970553108E+04  0.65864270000E+03 0.  1.
    8880022    1    1    2    0    0  0.81410402959E+03  0.79676797689E+02  0.19234687613E+04  0.20957665643E+04  0.15294330000E+03 0.  0.
<mgrwt>
<rscale>  0 0.99084903E+03</rscale>
<asrwt>0</asrwt>
<pdfrwt beam="1">  1        1 0.36916196E+00 0.10502019E+04</pdfrwt>
<pdfrwt beam="2">  1       -1 0.12204140E+00 0.10502019E+04</pdfrwt>
<totfact> 0.95241821E-01</totfact>
</mgrwt>
</event>
<event>
 4    1  0.2514307E-008  0.1226230E+04  0.7818608E-02  0.9132038E-01
         -1   -1    0    0    0  501 -0.00000000000E+00  0.00000000000E+00  0.64627345889E+03  0.64627345891E+03  0.50400000000E-02 0.  1.
          1   -1    0    0  501    0  0.00000000000E+00 -0.00000000000E+00 -0.24301666320E+04  0.24301666320E+04  0.50400000000E-02 0. -1.
    8880023    1    1    2    0    0  0.80347747962E+03 -0.65134676506E+03 -0.30209275759E+03  0.12628930711E+04  0.65864270000E+03 0.  0.
    8880022    1    1    2    0    0 -0.80347747962E+03  0.65134676506E+03 -0.14818004155E+04  0.18135470198E+04  0.15294330000E+03 0.  0.
<mgrwt>
<rscale>  0 0.11783310E+04</rscale>
<asrwt>0</asrwt>
<pdfrwt beam="1">  1        1 0.37387178E+00 0.12262295E+04</pdfrwt>
<pdfrwt beam="2">  1       -1 0.99426688E-01 0.12262295E+04</pdfrwt>
<totfact> 0.14424313E+00</totfact>
</mgrwt>
</event>
<event>
 4    1  0.2514307E-008  0.1109999E+04  0.7818608E-02  0.9250004E-01
         -1   -1    0    0    0  501 -0.00000000000E+00  0.00000000000E+00  0.63180645713E+03  0.63180645715E+03  0.50400000000E-02 0.  1.
          1   -1    0    0  501    0  0.00000000000E+00 -0.00000000000E+00 -0.18322036208E+04  0.18322036208E+04  0.50400000000E-02 0. -1.
    8880023    1    1    2    0    0  0.70143792516E+03 -0.55341945291E+03 -0.10815441280E+04  0.15497858435E+04  0.65864270000E+03 0.  0.
    8880022    1    1    2    0    0 -0.70143792516E+03  0.55341945291E+03 -0.11885303568E+03  0.91422423443E+03  0.15294330000E+03 0.  0.
<mgrwt>
<rscale>  0 0.10551880E+04</rscale>
<asrwt>0</asrwt>
<pdfrwt beam="1">  1        1 0.28187748E+00 0.11099993E+04</pdfrwt>
<pdfrwt beam="2">  1       -1 0.97200994E-01 0.11099993E+04</pdfrwt>
<totfact> 0.39211368E+00</totfact>
</mgrwt>
</event>
<event>
 4    1  0.2514307E-008  0.7959878E+03  0.7818608E-02  0.9719539E-01
          1   -1    0    0  501    0  0.00000000000E+00  0.00000000000E+00  0.16122942757E+04  0.16122942757E+04  0.50400000000E-02 0. -1.
         -1   -1    0    0    0  501 -0.00000000000E+00 -0.00000000000E+00 -0.25458811174E+03  0.25458811179E+03  0.50400000000E-02 0.  1.
    8880023    1    1    2    0    0  0.44593868214E+03  0.30414502385E+02  0.72043578090E+03  0.10736034048E+04  0.65864270000E+03 0.  1.
    8880022    1    1    2    0    0 -0.44593868214E+03 -0.30414502385E+02  0.63727038302E+03  0.79327898262E+03  0.15294330000E+03 0.  0.
<mgrwt>
<rscale>  0 0.69865251E+03</rscale>
<asrwt>0</asrwt>
<pdfrwt beam="1">  1        1 0.24804527E+00 0.79598779E+03</pdfrwt>
<pdfrwt beam="2">  1       -1 0.39167402E-01 0.79598779E+03</pdfrwt>
<totfact> 0.35551698E+01</totfact>
</mgrwt>
</event>
<event>
 4    1  0.2514307E-008  0.1140110E+04  0.7818608E-02  0.9217660E-01
          1   -1    0    0  501    0  0.00000000000E+00  0.00000000000E+00  0.77212621484E+03  0.77212621486E+03  0.50400000000E-02 0. -1.
         -1   -1    0    0    0  501 -0.00000000000E+00 -0.00000000000E+00 -0.21742655207E+04  0.21742655207E+04  0.50400000000E-02 0.  1.
    8880023    1    1    2    0    0 -0.24208643679E+03 -0.89857329125E+03 -0.16175866090E+04  0.19789988495E+04  0.65864270000E+03 0.  0.
    8880022    1    1    2    0    0  0.24208643679E+03  0.89857329125E+03  0.21544730306E+03  0.96739288608E+03  0.15294330000E+03 0.  0.
<mgrwt>
<rscale>  0 0.10872991E+04</rscale>
<asrwt>0</asrwt>
<pdfrwt beam="1">  1        1 0.11878865E+00 0.11401096E+04</pdfrwt>
<pdfrwt beam="2">  1       -1 0.33450239E+00 0.11401096E+04</pdfrwt>
<totfact> 0.45912385E-01</totfact>
</mgrwt>
</event>
<event>
 4    1  0.2514307E-008  0.9173316E+03  0.7818608E-02  0.9498763E-01
         -1   -1    0    0    0  501 -0.00000000000E+00  0.00000000000E+00  0.14907565071E+04  0.14907565071E+04  0.50400000000E-02 0.  1.
          1   -1    0    0  501    0  0.00000000000E+00 -0.00000000000E+00 -0.79769045469E+03  0.79769045471E+03  0.50400000000E-02 0. -1.
    8880023    1    1    2    0    0 -0.39453104617E+03 -0.50202827128E+03  0.11628502415E+04  0.14811205292E+04  0.65864270000E+03 0.  0.
    8880022    1    1    2    0    0  0.39453104617E+03  0.50202827128E+03 -0.46978418906E+03  0.80732643266E+03  0.15294330000E+03 0.  0.
<mgrwt>
<rscale>  0 0.84375112E+03</rscale>
<asrwt>0</asrwt>
<pdfrwt beam="1">  1        1 0.12272161E+00 0.91733164E+03</pdfrwt>
<pdfrwt beam="2">  1       -1 0.22934715E+00 0.91733164E+03</pdfrwt>
<totfact> 0.21541867E+00</totfact>
</mgrwt>
</event>
<event>
 4    1  0.2514307E-008  0.8765123E+03  0.7818608E-02  0.9564840E-01
          1   -1    0    0  501    0  0.00000000000E+00  0.00000000000E+00  0.14573494350E+04  0.14573494351E+04  0.50400000000E-02 0. -1.
         -1   -1    0    0    0  501 -0.00000000000E+00 -0.00000000000E+00 -0.10800899122E+04  0.10800899122E+04  0.50400000000E-02 0.  1.
    8880023    1    1    2    0    0  0.40295322837E+03 -0.41484004874E+03 -0.81921994221E+03  0.11997479278E+04  0.65864270000E+03 0.  1.
    8880022    1    1    2    0    0 -0.40295322837E+03  0.41484004874E+03  0.11964794651E+04  0.13376914194E+04  0.15294330000E+03 0.  0.
<mgrwt>
<rscale>  0 0.79667635E+03</rscale>
<asrwt>0</asrwt>
<pdfrwt beam="1">  1        1 0.22420760E+00 0.87651228E+03</pdfrwt>
<pdfrwt beam="2">  1       -1 0.16616768E+00 0.87651228E+03</pdfrwt>
<totfact> 0.18843138E+00</totfact>
</mgrwt>
</event>
<event>
 4    1  0.2514307E-008  0.8030388E+03  0.7818608E-02  0.9704264E-01
          1   -1    0    0  501    0  0.00000000000E+00  0.00000000000E+00  0.88117679574E+03  0.88117679576E+03  0.50400000000E-02 0. -1.
         -1   -1    0    0    0  501 -0.00000000000E+00 -0.00000000000E+00 -0.75313219421E+03  0.75313219423E+03  0.50400000000E-02 0.  1.
    8880023    1    1    2    0    0  0.21117849985E+03  0.40800082508E+03  0.56516962436E+03  0.98198164068E+03  0.65864270000E+03 0.  0.
    8880022    1    1    2    0    0 -0.21117849985E+03 -0.40800082508E+03 -0.43712502283E+03  0.65232734931E+03  0.15294330000E+03 0.  1.
<mgrwt>
<rscale>  0 0.70763496E+03</rscale>
<asrwt>0</asrwt>
<pdfrwt beam="1">  1        1 0.13556566E+00 0.80303875E+03</pdfrwt>
<pdfrwt beam="2">  1       -1 0.11586649E+00 0.80303875E+03</pdfrwt>
<totfact> 0.13012445E+01</totfact>
</mgrwt>
</event>
<event>
 4    1  0.2514307E-008  0.8707341E+03  0.7818608E-02  0.9574748E-01
          1   -1    0    0  501    0  0.00000000000E+00  0.00000000000E+00  0.17346961023E+04  0.17346961023E+04  0.50400000000E-02 0. -1.
         -1   -1    0    0    0  501 -0.00000000000E+00 -0.00000000000E+00 -0.36072994926E+03  0.36072994930E+03  0.50400000000E-02 0.  1.
    8880023    1    1    2    0    0  0.44000959732E+03 -0.36160637067E+03  0.40314511051E+03  0.95953311534E+03  0.65864270000E+03 0.  1.
    8880022    1    1    2    0    0 -0.44000959732E+03  0.36160637067E+03  0.97082104255E+03  0.11358929363E+04  0.15294330000E+03 0.  0.
<mgrwt>
<rscale>  0 0.78990342E+03</rscale>
<asrwt>0</asrwt>
<pdfrwt beam="1">  1        1 0.26687632E+00 0.87073407E+03</pdfrwt>
<pdfrwt beam="2">  1       -1 0.55496915E-01 0.87073407E+03</pdfrwt>
<totfact> 0.15155430E+01</totfact>
</mgrwt>
</event>
<event>
 4    1  0.2514307E-008  0.7703063E+03  0.7818608E-02  0.9779121E-01
         -1   -1    0    0    0  501 -0.00000000000E+00  0.00000000000E+00  0.34846762849E+03  0.34846762853E+03  0.50400000000E-02 0.  1.
          1   -1    0    0  501    0  0.00000000000E+00 -0.00000000000E+00 -0.23284236119E+04  0.23284236119E+04  0.50400000000E-02 0. -1.
    8880023    1    1    2    0    0  0.30366631956E+03  0.25951549341E+03 -0.13380881301E+03  0.78184175487E+03  0.65864270000E+03 0.  0.
    8880022    1    1    2    0    0 -0.30366631956E+03 -0.25951549341E+03 -0.18461471704E+04  0.18950494856E+04  0.15294330000E+03 0.  0.
<mgrwt>
<rscale>  0 0.66495164E+03</rscale>
<asrwt>0</asrwt>
<pdfrwt beam="1">  1        1 0.35821901E+00 0.77030626E+03</pdfrwt>
<pdfrwt beam="2">  1       -1 0.53610406E-01 0.77030626E+03</pdfrwt>
<totfact> 0.65618442E+00</totfact>
</mgrwt>
</event>
<event>
 4    1  0.2514307E-008  0.8722506E+03  0.7818608E-02  0.9572133E-01
          1   -1    0    0  501    0  0.00000000000E+00  0.00000000000E+00  0.68452283672E+03  0.68452283674E+03  0.50400000000E-02 0. -1.
         -1   -1    0    0    0  501 -0.00000000000E+00 -0.00000000000E+00 -0.15454825426E+04  0.15454825426E+04  0.50400000000E-02 0.  1.
    8880023    1    1    2    0    0 -0.56500715874E+03 -0.88192340114E+02 -0.12481100690E+04  0.15226949560E+04  0.65864270000E+03 0.  0.
    8880022    1    1    2    0    0  0.56500715874E+03  0.88192340114E+02  0.38715036316E+03  0.70731042336E+03  0.15294330000E+03 0.  0.
<mgrwt>
<rscale>  0 0.79168405E+03</rscale>
<asrwt>0</asrwt>
<pdfrwt beam="1">  1        1 0.10531121E+00 0.87225064E+03</pdfrwt>
<pdfrwt beam="2">  1       -1 0.23776654E+00 0.87225064E+03</pdfrwt>
<totfact> 0.24205090E+00</totfact>
</mgrwt>
</event>
<event>
 4    1  0.2514307E-008  0.1372326E+04  0.7818608E-02  0.9005490E-01
          1   -1    0    0  501    0  0.00000000000E+00  0.00000000000E+00  0.21390160770E+04  0.21390160770E+04  0.50400000000E-02 0. -1.
         -1   -1    0    0    0  501 -0.00000000000E+00 -0.00000000000E+00 -0.10404839974E+04  0.10404839975E+04  0.50400000000E-02 0.  1.
    8880023    1    1    2    0    0 -0.11477501670E+04 -0.36350796830E+03 -0.21733118223E+03  0.13894284933E+04  0.65864270000E+03 0.  0.
    8880022    1    1    2    0    0  0.11477501670E+04  0.36350796830E+03  0.13158632618E+04  0.17900715811E+04  0.15294330000E+03 0.  0.
<mgrwt>
<rscale>  0 0.13308011E+04</rscale>
<asrwt>0</asrwt>
<pdfrwt beam="1">  1        1 0.32907940E+00 0.13723260E+04</pdfrwt>
<pdfrwt beam="2">  1       -1 0.16007446E+00 0.13723260E+04</pdfrwt>
<totfact> 0.67328928E-01</totfact>
</mgrwt>
</event>
<event>
 4    1  0.2514307E-008  0.1526875E+04  0.7818608E-02  0.8890888E-01
         -1   -1    0    0    0  501 -0.00000000000E+00  0.00000000000E+00  0.19062715664E+04  0.19062715664E+04  0.50400000000E-02 0.  1.
          1   -1    0    0  501    0  0.00000000000E+00 -0.00000000000E+00 -0.13256998370E+04  0.13256998370E+04  0.50400000000E-02 0. -1.
    8880023    1    1    2    0    0  0.13279529390E+03 -0.13710957610E+04  0.94912724654E+03  0.17978295003E+04  0.65864270000E+03 0.  1.
    8880022    1    1    2    0    0 -0.13279529390E+03  0.13710957610E+04 -0.36855551718E+03  0.14341419031E+04  0.15294330000E+03 0.  0.
<mgrwt>
<rscale>  0 0.14903615E+04</rscale>
<asrwt>0</asrwt>
<pdfrwt beam="1">  1        1 0.20395382E+00 0.15268754E+04</pdfrwt>
<pdfrwt beam="2">  1       -1 0.29327255E+00 0.15268754E+04</pdfrwt>
<totfact> 0.29899875E-01</totfact>
</mgrwt>
</event>
<event>
 4    1  0.2514307E-008  0.7035180E+03  0.7818608E-02  0.9982909E-01
         -1   -1    0    0    0  501 -0.00000000000E+00  0.00000000000E+00  0.45922711980E+03  0.45922711983E+03  0.50400000000E-02 0.  1.
          1   -1    0    0  501    0  0.00000000000E+00 -0.00000000000E+00 -0.76465352753E+03  0.76465352754E+03  0.50400000000E-02 0. -1.
    8880023    1    1    2    0    0  0.14152740889E+03 -0.20272475943E+03  0.11487036604E+03  0.71283430249E+03  0.65864270000E+03 0.  1.
    8880022    1    1    2    0    0 -0.14152740889E+03  0.20272475943E+03 -0.42029677377E+03  0.51104634488E+03  0.15294330000E+03 0.  0.
<mgrwt>
<rscale>  0 0.56406050E+03</rscale>
<asrwt>0</asrwt>
<pdfrwt beam="1">  1        1 0.11763900E+00 0.70351798E+03</pdfrwt>
<pdfrwt beam="2">  1       -1 0.70650326E-01 0.70351798E+03</pdfrwt>
<totfact> 0.49408901E+01</totfact>
</mgrwt>
</event>
<event>
 4    1  0.2514307E-008  0.1053700E+04  0.7818608E-02  0.9314447E-01
          1   -1    0    0  501    0  0.00000000000E+00  0.00000000000E+00  0.15846233108E+04  0.15846233108E+04  0.50400000000E-02 0. -1.
         -1   -1    0    0    0  501 -0.00000000000E+00 -0.00000000000E+00 -0.14567307353E+04  0.14567307353E+04  0.50400000000E-02 0.  1.
    8880023    1    1    2    0    0  0.77586340083E+03  0.27296286649E+03 -0.11207931125E+04  0.15383303125E+04  0.65864270000E+03 0.  0.
    8880022    1    1    2    0    0 -0.77586340083E+03 -0.27296286649E+03  0.12486856880E+04  0.15030237336E+04  0.15294330000E+03 0.  0.
<mgrwt>
<rscale>  0 0.99463643E+03</rscale>
<asrwt>0</asrwt>
<pdfrwt beam="1">  1        1 0.24378820E+00 0.10536996E+04</pdfrwt>
<pdfrwt beam="2">  1       -1 0.22411242E+00 0.10536996E+04</pdfrwt>
<totfact> 0.59122160E-01</totfact>
</mgrwt>
</event>
<event>
 4    1  0.2514307E-008  0.7154434E+03  0.7818608E-02  0.9938317E-01
         -1   -1    0    0    0  501 -0.00000000000E+00  0.00000000000E+00  0.22802525263E+03  0.22802525268E+03  0.50400000000E-02 0.  1.
          1   -1    0    0  501    0  0.00000000000E+00 -0.00000000000E+00 -0.17458961131E+04  0.17458961131E+04  0.50400000000E-02 0. -1.
    8880023    1    1    2    0    0 -0.27870674193E+03  0.19276647629E+02 -0.41742870271E+03  0.82831513644E+03  0.65864270000E+03 0.  1.
    8880022    1    1    2    0    0  0.27870674193E+03 -0.19276647629E+02 -0.11004421578E+04  0.11456062294E+04  0.15294330000E+03 0.  0.
<mgrwt>
<rscale>  0 0.58439700E+03</rscale>
<asrwt>0</asrwt>
<pdfrwt beam="1">  1        1 0.26859939E+00 0.71544339E+03</pdfrwt>
<pdfrwt beam="2">  1       -1 0.35080809E-01 0.71544339E+03</pdfrwt>
<totfact> 0.35559328E+01</totfact>
</mgrwt>
</event>
<event>
 4    1  0.2514307E-008  0.7606668E+03  0.7818608E-02  0.9803384E-01
          1   -1    0    0  501    0  0.00000000000E+00  0.00000000000E+00  0.10240181579E+04  0.10240181579E+04  0.50400000000E-02 0. -1.
         -1   -1    0    0    0  501 -0.00000000000E+00 -0.00000000000E+00 -0.73488218455E+03  0.73488218456E+03  0.50400000000E-02 0.  1.
    8880023    1    1    2    0    0 -0.21148945271E+03  0.31634786345E+03 -0.47135879156E+03  0.89487042412E+03  0.65864270000E+03 0.  1.
    8880022    1    1    2    0    0  0.21148945271E+03 -0.31634786345E+03  0.76049476487E+03  0.86402991831E+03  0.15294330000E+03 0.  0.
<mgrwt>
<rscale>  0 0.65181239E+03</rscale>
<asrwt>0</asrwt>
<pdfrwt beam="1">  1        1 0.15754126E+00 0.76066679E+03</pdfrwt>
<pdfrwt beam="2">  1       -1 0.11305880E+00 0.76066679E+03</pdfrwt>
<totfact> 0.10683279E+01</totfact>
</mgrwt>
</event>
<event>
 4    1  0.2514307E-008  0.1368114E+04  0.7818608E-02  0.9008863E-01
          1   -1    0    0  501    0  0.00000000000E+00  0.00000000000E+00  0.11186911418E+04  0.11186911418E+04  0.50400000000E-02 0. -1.
         -1   -1    0    0    0  501 -0.00000000000E+00 -0.00000000000E+00 -0.31965474041E+04  0.31965474041E+04  0.50400000000E-02 0.  1.
    8880023    1    1    2    0    0  0.11632939197E+03  0.11934800080E+04 -0.26465839077E+04  0.29792857606E+04  0.65864270000E+03 0.  0.
    8880022    1    1    2    0    0 -0.11632939197E+03 -0.11934800080E+04  0.56872764534E+03  0.13359527853E+04  0.15294330000E+03 0.  0.
<mgrwt>
<rscale>  0 0.13264319E+04</rscale>
<asrwt>0</asrwt>
<pdfrwt beam="1">  1        1 0.17210633E+00 0.13681145E+04</pdfrwt>
<pdfrwt beam="2">  1       -1 0.49177652E+00 0.13681145E+04</pdfrwt>
<totfact> 0.19887280E-02</totfact>
</mgrwt>
</event>
<event>
 4    1  0.2514307E-008  0.8437612E+03  0.7818608E-02  0.9623129E-01
         -1   -1    0    0    0  501 -0.00000000000E+00  0.00000000000E+00  0.76870068682E+03  0.76870068683E+03  0.50400000000E-02 0.  1.
          1   -1    0    0  501    0  0.00000000000E+00 -0.00000000000E+00 -0.14987539696E+04  0.14987539696E+04  0.50400000000E-02 0. -1.
    8880023    1    1    2    0    0 -0.40889566511E+03 -0.33305721675E+03  0.45698405186E+03  0.95956625852E+03  0.65864270000E+03 0.  1.
    8880022    1    1    2    0    0  0.40889566511E+03  0.33305721675E+03 -0.11870373346E+04  0.13078883979E+04  0.15294330000E+03 0.  0.
<mgrwt>
<rscale>  0 0.75784114E+03</rscale>
<asrwt>0</asrwt>
<pdfrwt beam="1">  1        1 0.23057753E+00 0.84376121E+03</pdfrwt>
<pdfrwt beam="2">  1       -1 0.11826164E+00 0.84376121E+03</pdfrwt>
<totfact> 0.43193878E+00</totfact>
</mgrwt>
</event>
<event>
 4    1  0.3173231E-008  0.1098009E+04  0.7818608E-02  0.9263276E-01
         -1   -1    0    0    0  501 -0.00000000000E+00  0.00000000000E+00  0.14972734989E+04  0.14972734989E+04  0.50400000000E-02 0.  1.
          1   -1    0    0  501    0  0.00000000000E+00 -0.00000000000E+00 -0.20622093783E+04  0.20622093783E+04  0.50400000000E-02 0. -1.
    8880023    1    1    2    0    0 -0.82760543974E+03  0.29475998879E+03  0.11726286693E+04  0.16064502536E+04  0.65864270000E+03 0.  0.
    8880022    1    1    2    0    0  0.82760543974E+03 -0.29475998879E+03 -0.17375645487E+04  0.19530326236E+04  0.15294330000E+03 0.  0.
<mgrwt>
<rscale>  0 0.10423521E+04</rscale>
<asrwt>0</asrwt>
<pdfrwt beam="1">  1        1 0.31726298E+00 0.10980093E+04</pdfrwt>
<pdfrwt beam="2">  1       -1 0.23034977E+00 0.10980093E+04</pdfrwt>
<totfact> 0.25347370E-01</totfact>
</mgrwt>
</event>
<event>
 4    1  0.2514307E-008  0.8590523E+03  0.7818608E-02  0.9595251E-01
          1   -1    0    0  501    0  0.00000000000E+00  0.00000000000E+00  0.23057944206E+04  0.23057944206E+04  0.50400000000E-02 0. -1.
         -1   -1    0    0    0  501 -0.00000000000E+00 -0.00000000000E+00 -0.53703128440E+03  0.53703128443E+03  0.50400000000E-02 0.  1.
    8880023    1    1    2    0    0  0.40921485057E+03  0.36973482697E+03 -0.12169887126E+03  0.86762979302E+03  0.65864270000E+03 0.  0.
    8880022    1    1    2    0    0 -0.40921485057E+03 -0.36973482697E+03  0.18904620074E+04  0.19751959120E+04  0.15294330000E+03 0.  0.
<mgrwt>
<rscale>  0 0.77611268E+03</rscale>
<asrwt>0</asrwt>
<pdfrwt beam="1">  1        1 0.35473761E+00 0.85905229E+03</pdfrwt>
<pdfrwt beam="2">  1       -1 0.82620196E-01 0.85905229E+03</pdfrwt>
<totfact> 0.27864670E+00</totfact>
</mgrwt>
</event>
<event>
 4    1  0.2514307E-008  0.7172915E+03  0.7818608E-02  0.9931859E-01
         -1   -1    0    0    0  501 -0.00000000000E+00  0.00000000000E+00  0.29197561694E+03  0.29197561698E+03  0.50400000000E-02 0.  1.
          1   -1    0    0  501    0  0.00000000000E+00 -0.00000000000E+00 -0.19448806284E+04  0.19448806284E+04  0.50400000000E-02 0. -1.
    8880023    1    1    2    0    0  0.13594264381E+03  0.24943247270E+03 -0.19450331611E+03  0.74319493209E+03  0.65864270000E+03 0.  1.
    8880022    1    1    2    0    0 -0.13594264381E+03 -0.24943247270E+03 -0.14584016953E+04  0.14936613133E+04  0.15294330000E+03 0.  0.
<mgrwt>
<rscale>  0 0.58741792E+03</rscale>
<asrwt>0</asrwt>
<pdfrwt beam="1">  1        1 0.29921240E+00 0.71729155E+03</pdfrwt>
<pdfrwt beam="2">  1       -1 0.44919327E-01 0.71729155E+03</pdfrwt>
<totfact> 0.16703701E+01</totfact>
</mgrwt>
</event>
<event>
 4    1  0.2514307E-008  0.1578665E+04  0.7818608E-02  0.8855996E-01
         -1   -1    0    0    0  501 -0.00000000000E+00  0.00000000000E+00  0.13126933074E+04  0.13126933074E+04  0.50400000000E-02 0.  1.
          1   -1    0    0  501    0  0.00000000000E+00 -0.00000000000E+00 -0.25604794622E+04  0.25604794622E+04  0.50400000000E-02 0. -1.
    8880023    1    1    2    0    0  0.13901791091E+04  0.35464947985E+03  0.45343648871E+03  0.16424947685E+04  0.65864270000E+03 0.  0.
    8880022    1    1    2    0    0 -0.13901791091E+04 -0.35464947985E+03 -0.17012226435E+04  0.22306780011E+04  0.15294330000E+03 0.  0.
<mgrwt>
<rscale>  0 0.15435530E+04</rscale>
<asrwt>0</asrwt>
<pdfrwt beam="1">  1        1 0.39391992E+00 0.15786654E+04</pdfrwt>
<pdfrwt beam="2">  1       -1 0.20195282E+00 0.15786654E+04</pdfrwt>
<totfact> 0.16803830E-01</totfact>
</mgrwt>
</event>
<event>
 4    1  0.2514307E-008  0.9869740E+03  0.7818608E-02  0.9398802E-01
          1   -1    0    0  501    0  0.00000000000E+00  0.00000000000E+00  0.33445736904E+04  0.33445736904E+04  0.50400000000E-02 0. -1.
         -1   -1    0    0    0  501 -0.00000000000E+00 -0.00000000000E+00 -0.25650954359E+03  0.25650954364E+03  0.50400000000E-02 0.  1.
    8880023    1    1    2    0    0 -0.25455494838E+03 -0.68957178889E+03  0.11100540567E+04  0.14853745954E+04  0.65864270000E+03 0.  1.
    8880022    1    1    2    0    0  0.25455494838E+03  0.68957178889E+03  0.19780100902E+04  0.21157086386E+04  0.15294330000E+03 0.  0.
<mgrwt>
<rscale>  0 0.92174376E+03</rscale>
<asrwt>0</asrwt>
<pdfrwt beam="1">  1        1 0.51454980E+00 0.98697400E+03</pdfrwt>
<pdfrwt beam="2">  1       -1 0.39463006E-01 0.98697400E+03</pdfrwt>
<totfact> 0.21372143E+00</totfact>
</mgrwt>
</event>
<event>
 4    1  0.2514307E-008  0.1235101E+04  0.7818608E-02  0.9123734E-01
          1   -1    0    0  501    0  0.00000000000E+00  0.00000000000E+00  0.29310183246E+04  0.29310183246E+04  0.50400000000E-02 0. -1.
         -1   -1    0    0    0  501 -0.00000000000E+00 -0.00000000000E+00 -0.66806161987E+03  0.66806161989E+03  0.50400000000E-02 0.  1.
    8880023    1    1    2    0    0  0.69367143953E+03 -0.78133556784E+03  0.15938310634E+03  0.12453427305E+04  0.65864270000E+03 0.  0.
    8880022    1    1    2    0    0 -0.69367143953E+03  0.78133556784E+03  0.21035735984E+04  0.23537372139E+04  0.15294330000E+03 0.  0.
<mgrwt>
<rscale>  0 0.11876517E+04</rscale>
<asrwt>0</asrwt>
<pdfrwt beam="1">  1        1 0.45092589E+00 0.12351014E+04</pdfrwt>
<pdfrwt beam="2">  1       -1 0.10277871E+00 0.12351014E+04</pdfrwt>
<totfact> 0.59435431E-01</totfact>
</mgrwt>
</event>
<event>
 4    1  0.2514307E-008  0.6915422E+03  0.7818608E-02  0.1003428E+00
          1   -1    0    0  501    0  0.00000000000E+00  0.00000000000E+00  0.17633869503E+04  0.17633869503E+04  0.50400000000E-02 0. -1.
         -1   -1    0    0    0  501 -0.00000000000E+00 -0.00000000000E+00 -0.27128610644E+03  0.27128610649E+03  0.50400000000E-02 0.  1.
    8880023    1    1    2    0    0 -0.38449288675E+02 -0.20722474314E+03  0.20470413500E+03  0.72120346028E+03  0.65864270000E+03 0.  1.
    8880022    1    1    2    0    0  0.38449288675E+02  0.20722474314E+03  0.12873967088E+04  0.13134695965E+04  0.15294330000E+03 0.  0.
<mgrwt>
<rscale>  0 0.54172318E+03</rscale>
<asrwt>0</asrwt>
<pdfrwt beam="1">  1        1 0.27129031E+00 0.69154222E+03</pdfrwt>
<pdfrwt beam="2">  1       -1 0.41736323E-01 0.69154222E+03</pdfrwt>
<totfact> 0.25383019E+01</totfact>
</mgrwt>
</event>
<event>
 4    1  0.2514307E-008  0.1044961E+04  0.7818608E-02  0.9324964E-01
          1   -1    0    0  501    0  0.00000000000E+00  0.00000000000E+00  0.18406243181E+04  0.18406243182E+04  0.50400000000E-02 0. -1.
         -1   -1    0    0    0  501 -0.00000000000E+00 -0.00000000000E+00 -0.87201754932E+03  0.87201754933E+03  0.50400000000E-02 0.  1.
    8880023    1    1    2    0    0 -0.96388102153E+02  0.80550759459E+03 -0.39622487600E+03  0.11175587277E+04  0.65864270000E+03 0.  1.
    8880022    1    1    2    0    0  0.96388102153E+02 -0.80550759459E+03  0.13648316448E+04  0.15950831398E+04  0.15294330000E+03 0.  0.
<mgrwt>
<rscale>  0 0.98516789E+03</rscale>
<asrwt>0</asrwt>
<pdfrwt beam="1">  1        1 0.28317297E+00 0.10449609E+04</pdfrwt>
<pdfrwt beam="2">  1       -1 0.13415655E+00 0.10449609E+04</pdfrwt>
<totfact> 0.17940542E+00</totfact>
</mgrwt>
</event>
<event>
 4    1  0.2514307E-008  0.1009507E+04  0.7818608E-02  0.9369224E-01
         -1   -1    0    0    0  501 -0.00000000000E+00  0.00000000000E+00  0.96533233900E+03  0.96533233901E+03  0.50400000000E-02 0.  1.
          1   -1    0    0  501    0  0.00000000000E+00 -0.00000000000E+00 -0.13821643534E+04  0.13821643534E+04  0.50400000000E-02 0. -1.
    8880023    1    1    2    0    0  0.59493943831E+03  0.48097978516E+03  0.51409585788E+03  0.11328721227E+04  0.65864270000E+03 0.  0.
    8880022    1    1    2    0    0 -0.59493943831E+03 -0.48097978516E+03 -0.93092787224E+03  0.12146245697E+04  0.15294330000E+03 0.  0.
<mgrwt>
<rscale>  0 0.94652312E+03</rscale>
<asrwt>0</asrwt>
<pdfrwt beam="1">  1        1 0.21264067E+00 0.10095072E+04</pdfrwt>
<pdfrwt beam="2">  1       -1 0.14851267E+00 0.10095072E+04</pdfrwt>
<totfact> 0.28436981E+00</totfact>
</mgrwt>
</event>
<event>
 4    1  0.2514307E-008  0.9833416E+03  0.7818608E-02  0.9403684E-01
          1   -1    0    0  501    0  0.00000000000E+00  0.00000000000E+00  0.30680922181E+04  0.30680922181E+04  0.50400000000E-02 0. -1.
         -1   -1    0    0    0  501 -0.00000000000E+00 -0.00000000000E+00 -0.40287418742E+03  0.40287418745E+03  0.50400000000E-02 0.  1.
    8880023    1    1    2    0    0  0.13461411700E+03  0.71765564153E+03  0.35856640342E+03  0.10466760016E+04  0.65864270000E+03 0.  0.
    8880022    1    1    2    0    0 -0.13461411700E+03 -0.71765564153E+03  0.23066516272E+04  0.24242904040E+04  0.15294330000E+03 0.  0.
<mgrwt>
<rscale>  0 0.91773140E+03</rscale>
<asrwt>0</asrwt>
<pdfrwt beam="1">  1        1 0.47201418E+00 0.98334164E+03</pdfrwt>
<pdfrwt beam="2">  1       -1 0.61980645E-01 0.98334164E+03</pdfrwt>
<totfact> 0.14522738E+00</totfact>
</mgrwt>
</event>
<event>
 4    1  0.2514307E-008  0.7042666E+03  0.7818608E-02  0.9979942E-01
          1   -1    0    0  501    0  0.00000000000E+00  0.00000000000E+00  0.11381732883E+04  0.11381732883E+04  0.50400000000E-02 0. -1.
         -1   -1    0    0    0  501 -0.00000000000E+00 -0.00000000000E+00 -0.29359578853E+03  0.29359578858E+03  0.50400000000E-02 0.  1.
    8880023    1    1    2    0    0 -0.15302978541E+03 -0.19688357103E+03  0.21305946040E+03  0.73578923320E+03  0.65864270000E+03 0.  0.
    8880022    1    1    2    0    0  0.15302978541E+03  0.19688357103E+03  0.63151803940E+03  0.69597984373E+03  0.15294330000E+03 0.  0.
<mgrwt>
<rscale>  0 0.56538575E+03</rscale>
<asrwt>0</asrwt>
<pdfrwt beam="1">  1        1 0.17510358E+00 0.70426661E+03</pdfrwt>
<pdfrwt beam="2">  1       -1 0.45168584E-01 0.70426661E+03</pdfrwt>
<totfact> 0.59377520E+01</totfact>
</mgrwt>
</event>
<event>
 4    1  0.2514307E-008  0.9440229E+03  0.7818608E-02  0.9458766E-01
          1   -1    0    0  501    0  0.00000000000E+00  0.00000000000E+00  0.99172564209E+03  0.99172564210E+03  0.50400000000E-02 0. -1.
         -1   -1    0    0    0  501 -0.00000000000E+00 -0.00000000000E+00 -0.17829404621E+04  0.17829404621E+04  0.50400000000E-02 0.  1.
    8880023    1    1    2    0    0 -0.82759906644E+02  0.67120775278E+03 -0.15069054590E+04  0.17781854004E+04  0.65864270000E+03 0.  0.
    8880022    1    1    2    0    0  0.82759906644E+02 -0.67120775278E+03  0.71569063892E+03  0.99648070388E+03  0.15294330000E+03 0.  0.
<mgrwt>
<rscale>  0 0.87393276E+03</rscale>
<asrwt>0</asrwt>
<pdfrwt beam="1">  1        1 0.15257318E+00 0.94402291E+03</pdfrwt>
<pdfrwt beam="2">  1       -1 0.27429853E+00 0.94402291E+03</pdfrwt>
<totfact> 0.75896373E-01</totfact>
</mgrwt>
</event>
<event>
 4    1  0.2514307E-008  0.7051608E+03  0.7818608E-02  0.9976430E-01
         -1   -1    0    0    0  501 -0.00000000000E+00  0.00000000000E+00  0.12296333646E+04  0.12296333646E+04  0.50400000000E-02 0.  1.
          1   -1    0    0  501    0  0.00000000000E+00 -0.00000000000E+00 -0.69311592602E+03  0.69311592603E+03  0.50400000000E-02 0. -1.
    8880023    1    1    2    0    0  0.87508949703E+01  0.25172389694E+03  0.10885485550E+04  0.12969925448E+04  0.65864270000E+03 0.  0.
    8880022    1    1    2    0    0 -0.87508949703E+01 -0.25172389694E+03 -0.55203111641E+03  0.62575674583E+03  0.15294330000E+03 0.  0.
<mgrwt>
<rscale>  0 0.56695919E+03</rscale>
<asrwt>0</asrwt>
<pdfrwt beam="1">  1        1 0.10663322E+00 0.70516077E+03</pdfrwt>
<pdfrwt beam="2">  1       -1 0.18917436E+00 0.70516077E+03</pdfrwt>
<totfact> 0.51645874E+00</totfact>
</mgrwt>
</event>
<event>
 4    1  0.2619405E-008  0.6727852E+03  0.7818608E-02  0.1013740E+00
          1   -1    0    0  501    0  0.00000000000E+00  0.00000000000E+00  0.14436210648E+04  0.14436210648E+04  0.50400000000E-02 0. -1.
         -1   -1    0    0    0  501 -0.00000000000E+00 -0.00000000000E+00 -0.10642321804E+04  0.10642321804E+04  0.50400000000E-02 0.  1.
    8880023    1    1    2    0    0 -0.13710884929E+03  0.55568430789E+01 -0.94920925829E+03  0.11634595555E+04  0.65864270000E+03 0.  1.
    8880022    1    1    2    0    0  0.13710884929E+03 -0.55568430789E+01  0.13285981427E+04  0.13443936897E+04  0.15294330000E+03 0.  0.
<mgrwt>
<rscale>  0 0.50014837E+03</rscale>
<asrwt>0</asrwt>
<pdfrwt beam="1">  1        1 0.22209555E+00 0.67278520E+03</pdfrwt>
<pdfrwt beam="2">  1       -1 0.16372803E+00 0.67278520E+03</pdfrwt>
<totfact> 0.20844744E+00</totfact>
</mgrwt>
</event>
<event>
 4    1  0.2514307E-008  0.9177046E+03  0.7818608E-02  0.9498188E-01
         -1   -1    0    0    0  501 -0.00000000000E+00  0.00000000000E+00  0.10757692273E+04  0.10757692273E+04  0.50400000000E-02 0.  1.
          1   -1    0    0  501    0  0.00000000000E+00 -0.00000000000E+00 -0.75876191486E+03  0.75876191487E+03  0.50400000000E-02 0. -1.
    8880023    1    1    2    0    0  0.86647670285E+02 -0.63313802351E+03 -0.26664835058E+03  0.95565847702E+03  0.65864270000E+03 0. -1.
    8880022    1    1    2    0    0 -0.86647670285E+02  0.63313802351E+03  0.58365566302E+03  0.87887266516E+03  0.15294330000E+03 0.  0.
<mgrwt>
<rscale>  0 0.84417580E+03</rscale>
<asrwt>0</asrwt>
<pdfrwt beam="1">  1        1 0.11673260E+00 0.91770463E+03</pdfrwt>
<pdfrwt beam="2">  1       -1 0.16550296E+00 0.91770463E+03</pdfrwt>
<totfact> 0.64650736E+00</totfact>
</mgrwt>
</event>
<event>
 4    1  0.2514307E-008  0.1093398E+04  0.7818608E-02  0.9268443E-01
         -1   -1    0    0    0  501 -0.00000000000E+00  0.00000000000E+00  0.74421839371E+03  0.74421839373E+03  0.50400000000E-02 0.  1.
          1   -1    0    0  501    0  0.00000000000E+00 -0.00000000000E+00 -0.26890086573E+04  0.26890086573E+04  0.50400000000E-02 0. -1.
    8880023    1    1    2    0    0 -0.82758428508E+03 -0.27715047251E+03  0.20097730686E+03  0.11117149893E+04  0.65864270000E+03 0.  1.
    8880022    1    1    2    0    0  0.82758428508E+03  0.27715047251E+03 -0.21457675705E+04  0.23215120618E+04  0.15294330000E+03 0.  0.
<mgrwt>
<rscale>  0 0.10374071E+04</rscale>
<asrwt>0</asrwt>
<pdfrwt beam="1">  1        1 0.41369363E+00 0.10933976E+04</pdfrwt>
<pdfrwt beam="2">  1       -1 0.11449514E+00 0.10933976E+04</pdfrwt>
<totfact> 0.69759245E-01</totfact>
</mgrwt>
</event>
<event>
 4    1  0.2514307E-008  0.8889466E+03  0.7818608E-02  0.9544014E-01
          1   -1    0    0  501    0  0.00000000000E+00  0.00000000000E+00  0.12715396185E+04  0.12715396185E+04  0.50400000000E-02 0. -1.
         -1   -1    0    0    0  501 -0.00000000000E+00 -0.00000000000E+00 -0.14581260367E+04  0.14581260367E+04  0.50400000000E-02 0.  1.
    8880023    1    1    2    0    0 -0.75495738418E+02 -0.59221303062E+03 -0.12301408512E+04  0.15177195394E+04  0.65864270000E+03 0.  1.
    8880022    1    1    2    0    0  0.75495738418E+02  0.59221303062E+03  0.10435544329E+04  0.12119461158E+04  0.15294330000E+03 0.  0.
<mgrwt>
<rscale>  0 0.81115193E+03</rscale>
<asrwt>0</asrwt>
<pdfrwt beam="1">  1        1 0.19562148E+00 0.88894662E+03</pdfrwt>
<pdfrwt beam="2">  1       -1 0.22432708E+00 0.88894662E+03</pdfrwt>
<totfact> 0.10006578E+00</totfact>
</mgrwt>
</event>
<event>
 4    1  0.2514307E-008  0.1008242E+04  0.7818608E-02  0.9370853E-01
          1   -1    0    0  501    0  0.00000000000E+00  0.00000000000E+00  0.39092069526E+04  0.39092069526E+04  0.50400000000E-02 0. -1.
         -1   -1    0    0    0  501 -0.00000000000E+00 -0.00000000000E+00 -0.31696453772E+03  0.31696453776E+03  0.50400000000E-02 0.  1.
    8880023    1    1    2    0    0 -0.16401991972E+03 -0.74554610423E+03  0.31986496400E+04  0.33537905798E+04  0.65864270000E+03 0.  0.
    8880022    1    1    2    0    0  0.16401991972E+03  0.74554610423E+03  0.39359277485E+03  0.87238091051E+03  0.15294330000E+03 0.  0.
<mgrwt>
<rscale>  0 0.94513656E+03</rscale>
<asrwt>0</asrwt>
<pdfrwt beam="1">  1        1 0.60141650E+00 0.10082419E+04</pdfrwt>
<pdfrwt beam="2">  1       -1 0.48763772E-01 0.10082419E+04</pdfrwt>
<totfact> 0.50859966E-01</totfact>
</mgrwt>
</event>
<event>
 4    1  0.2514307E-008  0.1087332E+04  0.7818608E-02  0.9275293E-01
         -1   -1    0    0    0  501 -0.00000000000E+00  0.00000000000E+00  0.43949507195E+03  0.43949507198E+03  0.50400000000E-02 0.  1.
          1   -1    0    0  501    0  0.00000000000E+00 -0.00000000000E+00 -0.37050601677E+04  0.37050601677E+04  0.50400000000E-02 0. -1.
    8880023    1    1    2    0    0 -0.86171175088E+03  0.77024955371E+02 -0.41862168598E+03  0.11651327425E+04  0.65864270000E+03 0.  0.
    8880022    1    1    2    0    0  0.86171175088E+03 -0.77024955371E+02 -0.28469434097E+04  0.29794224972E+04  0.15294330000E+03 0.  0.
<mgrwt>
<rscale>  0 0.10308956E+04</rscale>
<asrwt>0</asrwt>
<pdfrwt beam="1">  1        1 0.57000924E+00 0.10873317E+04</pdfrwt>
<pdfrwt beam="2">  1       -1 0.67614629E-01 0.10873317E+04</pdfrwt>
<totfact> 0.38973322E-01</totfact>
</mgrwt>
</event>
<event>
 4    1  0.2514307E-008  0.9007112E+03  0.7818608E-02  0.9524891E-01
         -1   -1    0    0    0  501 -0.00000000000E+00  0.00000000000E+00  0.53433498051E+03  0.53433498053E+03  0.50400000000E-02 0.  1.
          1   -1    0    0  501    0  0.00000000000E+00 -0.00000000000E+00 -0.16951813954E+04  0.16951813954E+04  0.50400000000E-02 0. -1.
    8880023    1    1    2    0    0  0.53835046528E+03  0.29605627696E+03  0.73916920420E+01  0.90074157557E+03  0.65864270000E+03 0.  0.
    8880022    1    1    2    0    0 -0.53835046528E+03 -0.29605627696E+03 -0.11682381069E+04  0.13287748004E+04  0.15294330000E+03 0.  0.
<mgrwt>
<rscale>  0 0.82473339E+03</rscale>
<asrwt>0</asrwt>
<pdfrwt beam="1">  1        1 0.26079713E+00 0.90071125E+03</pdfrwt>
<pdfrwt beam="2">  1       -1 0.82205383E-01 0.90071125E+03</pdfrwt>
<totfact> 0.72105533E+00</totfact>
</mgrwt>
</event>
<event>
 4    1  0.2514307E-008  0.7416857E+03  0.7818608E-02  0.9855064E-01
         -1   -1    0    0    0  501 -0.00000000000E+00  0.00000000000E+00  0.61708544096E+03  0.61708544098E+03  0.50400000000E-02 0.  1.
          1   -1    0    0  501    0  0.00000000000E+00 -0.00000000000E+00 -0.92584437961E+03  0.92584437962E+03  0.50400000000E-02 0. -1.
    8880023    1    1    2    0    0  0.97744611906E+02  0.32670090404E+03  0.32294795957E+03  0.80894565992E+03  0.65864270000E+03 0.  1.
    8880022    1    1    2    0    0 -0.97744611906E+02 -0.32670090404E+03 -0.63170689821E+03  0.73398416068E+03  0.15294330000E+03 0.  0.
<mgrwt>
<rscale>  0 0.62489404E+03</rscale>
<asrwt>0</asrwt>
<pdfrwt beam="1">  1        1 0.14243760E+00 0.74168571E+03</pdfrwt>
<pdfrwt beam="2">  1       -1 0.94936222E-01 0.74168571E+03</pdfrwt>
<totfact> 0.19141664E+01</totfact>
</mgrwt>
</event>
<event>
 4    1  0.2514307E-008  0.1135315E+04  0.7818608E-02  0.9222720E-01
         -1   -1    0    0    0  501 -0.00000000000E+00  0.00000000000E+00  0.53591814578E+03  0.53591814580E+03  0.50400000000E-02 0.  1.
          1   -1    0    0  501    0  0.00000000000E+00 -0.00000000000E+00 -0.26792635260E+04  0.26792635260E+04  0.50400000000E-02 0. -1.
    8880023    1    1    2    0    0  0.44565311254E+03  0.81026075824E+03 -0.34389620440E+03  0.11862562955E+04  0.65864270000E+03 0.  1.
    8880022    1    1    2    0    0 -0.44565311254E+03 -0.81026075824E+03 -0.17994491758E+04  0.20289253763E+04  0.15294330000E+03 0.  0.
<mgrwt>
<rscale>  0 0.10821967E+04</rscale>
<asrwt>0</asrwt>
<pdfrwt beam="1">  1        1 0.41219438E+00 0.11353147E+04</pdfrwt>
<pdfrwt beam="2">  1       -1 0.82448947E-01 0.11353147E+04</pdfrwt>
<totfact> 0.14874856E+00</totfact>
</mgrwt>
</event>
<event>
 4    1  0.2514307E-008  0.7767106E+03  0.7818608E-02  0.9763621E-01
          1   -1    0    0  501    0  0.00000000000E+00  0.00000000000E+00  0.48367046231E+03  0.48367046234E+03  0.50400000000E-02 0. -1.
         -1   -1    0    0    0  501 -0.00000000000E+00 -0.00000000000E+00 -0.93614164907E+03  0.93614164908E+03  0.50400000000E-02 0.  1.
    8880023    1    1    2    0    0  0.15470449898E+03 -0.38149141288E+03 -0.57208378676E+03  0.96465498778E+03  0.65864270000E+03 0.  0.
    8880022    1    1    2    0    0 -0.15470449898E+03  0.38149141288E+03  0.11961260001E+03  0.45515712364E+03  0.15294330000E+03 0.  0.
<mgrwt>
<rscale>  0 0.67351913E+03</rscale>
<asrwt>0</asrwt>
<pdfrwt beam="1">  1        1 0.74410840E-01 0.77671062E+03</pdfrwt>
<pdfrwt beam="2">  1       -1 0.14402179E+00 0.77671062E+03</pdfrwt>
<totfact> 0.18474930E+01</totfact>
</mgrwt>
</event>
<event>
 4    1  0.2514307E-008  0.1323578E+04  0.7818608E-02  0.9045461E-01
          1   -1    0    0  501    0  0.00000000000E+00  0.00000000000E+00  0.23045411050E+04  0.23045411050E+04  0.50400000000E-02 0. -1.
         -1   -1    0    0    0  501 -0.00000000000E+00 -0.00000000000E+00 -0.11290801955E+04  0.11290801955E+04  0.50400000000E-02 0.  1.
    8880023    1    1    2    0    0  0.23028919246E+03  0.11247293694E+04 -0.48456068014E+03  0.14094887462E+04  0.65864270000E+03 0.  1.
    8880022    1    1    2    0    0 -0.23028919246E+03 -0.11247293694E+04  0.16600215896E+04  0.20241325543E+04  0.15294330000E+03 0.  0.
<mgrwt>
<rscale>  0 0.12801435E+04</rscale>
<asrwt>0</asrwt>
<pdfrwt beam="1">  1        1 0.35454478E+00 0.13235783E+04</pdfrwt>
<pdfrwt beam="2">  1       -1 0.17370465E+00 0.13235783E+04</pdfrwt>
<totfact> 0.41337729E-01</totfact>
</mgrwt>
</event>
<event>
 4    1  0.2514307E-008  0.1154587E+04  0.7818608E-02  0.9202583E-01
          1   -1    0    0  501    0  0.00000000000E+00  0.00000000000E+00  0.96520589931E+03  0.96520589933E+03  0.50400000000E-02 0. -1.
         -1   -1    0    0    0  501 -0.00000000000E+00 -0.00000000000E+00 -0.14291705551E+04  0.14291705551E+04  0.50400000000E-02 0.  1.
    8880023    1    1    2    0    0 -0.68473508535E+03  0.65604811823E+03 -0.76820383565E+03  0.13867979701E+04  0.65864270000E+03 0.  0.
    8880022    1    1    2    0    0  0.68473508535E+03 -0.65604811823E+03  0.30423917984E+03  0.10075784843E+04  0.15294330000E+03 0.  0.
<mgrwt>
<rscale>  0 0.11026809E+04</rscale>
<asrwt>0</asrwt>
<pdfrwt beam="1">  1        1 0.14849322E+00 0.11545871E+04</pdfrwt>
<pdfrwt beam="2">  1       -1 0.21987239E+00 0.11545871E+04</pdfrwt>
<totfact> 0.17533665E+00</totfact>
</mgrwt>
</event>
<event>
 4    1  0.2514307E-008  0.7385424E+03  0.7818608E-02  0.9864214E-01
         -1   -1    0    0    0  501 -0.00000000000E+00  0.00000000000E+00  0.34033197252E+03  0.34033197256E+03  0.50400000000E-02 0.  1.
          1   -1    0    0  501    0  0.00000000000E+00 -0.00000000000E+00 -0.15254879312E+04  0.15254879312E+04  0.50400000000E-02 0. -1.
    8880023    1    1    2    0    0  0.24799999056E+03  0.22389875754E+03 -0.13180069009E+03  0.75021082178E+03  0.65864270000E+03 0.  0.
    8880022    1    1    2    0    0 -0.24799999056E+03 -0.22389875754E+03 -0.10533552686E+04  0.11156090820E+04  0.15294330000E+03 0.  0.
<mgrwt>
<rscale>  0 0.62027441E+03</rscale>
<asrwt>0</asrwt>
<pdfrwt beam="1">  1        1 0.23469045E+00 0.73854239E+03</pdfrwt>
<pdfrwt beam="2">  1       -1 0.52358766E-01 0.73854239E+03</pdfrwt>
<totfact> 0.23894499E+01</totfact>
</mgrwt>
</event>
<event>
 4    1  0.2514307E-008  0.9222748E+03  0.7818608E-02  0.9491180E-01
         -1   -1    0    0    0  501 -0.00000000000E+00  0.00000000000E+00  0.25669958023E+03  0.25669958028E+03  0.50400000000E-02 0.  1.
          1   -1    0    0  501    0  0.00000000000E+00 -0.00000000000E+00 -0.36953310663E+04  0.36953310663E+04  0.50400000000E-02 0. -1.
    8880023    1    1    2    0    0 -0.63446252528E+03 -0.11932275616E+03 -0.76784797504E+03  0.12000755539E+04  0.65864270000E+03 0.  0.
    8880022    1    1    2    0    0  0.63446252528E+03  0.11932275616E+03 -0.26707835110E+04  0.27519550926E+04  0.15294330000E+03 0.  0.
<mgrwt>
<rscale>  0 0.84937230E+03</rscale>
<asrwt>0</asrwt>
<pdfrwt beam="1">  1        1 0.56851243E+00 0.92227481E+03</pdfrwt>
<pdfrwt beam="2">  1       -1 0.39492246E-01 0.92227481E+03</pdfrwt>
<totfact> 0.11482795E+00</totfact>
</mgrwt>
</event>
<event>
 4    1  0.2514307E-008  0.7165939E+03  0.7818608E-02  0.9934284E-01
          1   -1    0    0  501    0  0.00000000000E+00  0.00000000000E+00  0.94490078898E+03  0.94490078899E+03  0.50400000000E-02 0. -1.
         -1   -1    0    0    0  501 -0.00000000000E+00 -0.00000000000E+00 -0.83774681327E+03  0.83774681329E+03  0.50400000000E-02 0.  1.
    8880023    1    1    2    0    0  0.25123631573E+03 -0.12875152800E+03 -0.64544606124E+03  0.96442079330E+03  0.65864270000E+03 0.  1.
    8880022    1    1    2    0    0 -0.25123631573E+03  0.12875152800E+03  0.75260003695E+03  0.81822680898E+03  0.15294330000E+03 0.  0.
<mgrwt>
<rscale>  0 0.58628126E+03</rscale>
<asrwt>0</asrwt>
<pdfrwt beam="1">  1        1 0.14536935E+00 0.71659392E+03</pdfrwt>
<pdfrwt beam="2">  1       -1 0.12888412E+00 0.71659392E+03</pdfrwt>
<totfact> 0.89984276E+00</totfact>
</mgrwt>
</event>
<event>
 4    1  0.2514307E-008  0.7742174E+03  0.7818608E-02  0.9769600E-01
         -1   -1    0    0    0  501 -0.00000000000E+00  0.00000000000E+00  0.10462377822E+04  0.10462377822E+04  0.50400000000E-02 0.  1.
          1   -1    0    0  501    0  0.00000000000E+00 -0.00000000000E+00 -0.53730074830E+03  0.53730074833E+03  0.50400000000E-02 0. -1.
    8880023    1    1    2    0    0 -0.33712510822E+03 -0.22792316418E+03  0.75717323418E+03  0.10829237370E+04  0.65864270000E+03 0.  1.
    8880022    1    1    2    0    0  0.33712510822E+03  0.22792316418E+03 -0.24823620028E+03  0.50061479353E+03  0.15294330000E+03 0.  0.
<mgrwt>
<rscale>  0 0.67019806E+03</rscale>
<asrwt>0</asrwt>
<pdfrwt beam="1">  1        1 0.82661654E-01 0.77421736E+03</pdfrwt>
<pdfrwt beam="2">  1       -1 0.16095966E+00 0.77421736E+03</pdfrwt>
<totfact> 0.11826131E+01</totfact>
</mgrwt>
</event>
<event>
 4    1  0.2514307E-008  0.7525951E+03  0.7818608E-02  0.9824670E-01
         -1   -1    0    0    0  501 -0.00000000000E+00  0.00000000000E+00  0.13437807971E+04  0.13437807971E+04  0.50400000000E-02 0.  1.
          1   -1    0    0  501    0  0.00000000000E+00 -0.00000000000E+00 -0.43483030715E+03  0.43483030718E+03  0.50400000000E-02 0. -1.
    8880023    1    1    2    0    0 -0.28662026370E+03 -0.22458392817E+03 -0.37020784558E+02  0.75350505048E+03  0.65864270000E+03 0. -1.
    8880022    1    1    2    0    0  0.28662026370E+03  0.22458392817E+03  0.94597127454E+03  0.10251060538E+04  0.15294330000E+03 0.  0.
<mgrwt>
<rscale>  0 0.64055276E+03</rscale>
<asrwt>0</asrwt>
<pdfrwt beam="1">  1        1 0.66896972E-01 0.75259506E+03</pdfrwt>
<pdfrwt beam="2">  1       -1 0.20673550E+00 0.75259506E+03</pdfrwt>
<totfact> 0.74994413E+00</totfact>
</mgrwt>
</event>
<event>
 4    1  0.2514307E-008  0.1216941E+04  0.7818608E-02  0.9140828E-01
          1   -1    0    0  501    0  0.00000000000E+00  0.00000000000E+00  0.15511330935E+04  0.15511330935E+04  0.50400000000E-02 0. -1.
         -1   -1    0    0    0  501 -0.00000000000E+00 -0.00000000000E+00 -0.92107900018E+03  0.92107900019E+03  0.50400000000E-02 0.  1.
    8880023    1    1    2    0    0 -0.13725521029E+02  0.10232041762E+04 -0.76458707748E+02  0.12193405252E+04  0.65864270000E+03 0.  0.
    8880022    1    1    2    0    0  0.13725521029E+02 -0.10232041762E+04  0.70651280110E+03  0.12528715685E+04  0.15294330000E+03 0.  0.
<mgrwt>
<rscale>  0 0.11685622E+04</rscale>
<asrwt>0</asrwt>
<pdfrwt beam="1">  1        1 0.23863586E+00 0.12169410E+04</pdfrwt>
<pdfrwt beam="2">  1       -1 0.14170446E+00 0.12169410E+04</pdfrwt>
<totfact> 0.23986077E+00</totfact>
</mgrwt>
</event>
<event>
 4    1  0.2514307E-008  0.1180690E+04  0.7818608E-02  0.9176125E-01
          1   -1    0    0  501    0  0.00000000000E+00  0.00000000000E+00  0.11851979886E+04  0.11851979886E+04  0.50400000000E-02 0. -1.
         -1   -1    0    0    0  501 -0.00000000000E+00 -0.00000000000E+00 -0.20458066112E+04  0.20458066112E+04  0.50400000000E-02 0.  1.
    8880023    1    1    2    0    0  0.89835155791E+03  0.39138736872E+03 -0.16038990119E+04  0.19916128742E+04  0.65864270000E+03 0.  1.
    8880022    1    1    2    0    0 -0.89835155791E+03 -0.39138736872E+03  0.74329038924E+03  0.12393917257E+04  0.15294330000E+03 0.  0.
<mgrwt>
<rscale>  0 0.11303292E+04</rscale>
<asrwt>0</asrwt>
<pdfrwt beam="1">  1        1 0.18233815E+00 0.11806904E+04</pdfrwt>
<pdfrwt beam="2">  1       -1 0.31473948E+00 0.11806904E+04</pdfrwt>
<totfact> 0.28679213E-01</totfact>
</mgrwt>
</event>
<event>
 4    1  0.2514307E-008  0.1826210E+04  0.7818608E-02  0.8708175E-01
          1   -1    0    0  501    0  0.00000000000E+00  0.00000000000E+00  0.19078848285E+04  0.19078848286E+04  0.50400000000E-02 0. -1.
         -1   -1    0    0    0  501 -0.00000000000E+00 -0.00000000000E+00 -0.18871557649E+04  0.18871557649E+04  0.50400000000E-02 0.  1.
    8880023    1    1    2    0    0  0.70695638450E+02  0.17018324274E+04 -0.67751271852E+03  0.19478360234E+04  0.65864270000E+03 0.  0.
    8880022    1    1    2    0    0 -0.70695638450E+02 -0.17018324274E+04  0.69824178217E+03  0.18472045700E+04  0.15294330000E+03 0.  0.
<mgrwt>
<rscale>  0 0.17964772E+04</rscale>
<asrwt>0</asrwt>
<pdfrwt beam="1">  1        1 0.29352074E+00 0.18262097E+04</pdfrwt>
<pdfrwt beam="2">  1       -1 0.29033166E+00 0.18262097E+04</pdfrwt>
<totfact> 0.11936378E-01</totfact>
</mgrwt>
</event>
<event>
 4    1  0.2514307E-008  0.7411287E+03  0.7818608E-02  0.9856671E-01
          1   -1    0    0  501    0  0.00000000000E+00  0.00000000000E+00  0.18736916423E+04  0.18736916423E+04  0.50400000000E-02 0. -1.
         -1   -1    0    0    0  501 -0.00000000000E+00 -0.00000000000E+00 -0.90683833533E+03  0.90683833535E+03  0.50400000000E-02 0.  1.
    8880023    1    1    2    0    0 -0.11259187284E+03  0.32060046643E+03 -0.73176816920E+03  0.10415164178E+04  0.65864270000E+03 0.  1.
    8880022    1    1    2    0    0  0.11259187284E+03 -0.32060046643E+03  0.16986214762E+04  0.17390135598E+04  0.15294330000E+03 0.  0.
<mgrwt>
<rscale>  0 0.62407925E+03</rscale>
<asrwt>0</asrwt>
<pdfrwt beam="1">  1        1 0.28826025E+00 0.74112873E+03</pdfrwt>
<pdfrwt beam="2">  1       -1 0.13951359E+00 0.74112873E+03</pdfrwt>
<totfact> 0.16209116E+00</totfact>
</mgrwt>
</event>
<event>
 4    1  0.2514307E-008  0.1421918E+04  0.7818608E-02  0.8966836E-01
         -1   -1    0    0    0  501 -0.00000000000E+00  0.00000000000E+00  0.13083608613E+04  0.13083608613E+04  0.50400000000E-02 0.  1.
          1   -1    0    0  501    0  0.00000000000E+00 -0.00000000000E+00 -0.19201988666E+04  0.19201988666E+04  0.50400000000E-02 0. -1.
    8880023    1    1    2    0    0  0.10715658877E+04  0.66316522702E+03  0.53360323708E+03  0.15187442809E+04  0.65864270000E+03 0.  0.
    8880022    1    1    2    0    0 -0.10715658877E+04 -0.66316522702E+03 -0.11454412424E+04  0.17098154470E+04  0.15294330000E+03 0.  0.
<mgrwt>
<rscale>  0 0.13821575E+04</rscale>
<asrwt>0</asrwt>
<pdfrwt beam="1">  1        1 0.29541521E+00 0.14219183E+04</pdfrwt>
<pdfrwt beam="2">  1       -1 0.20128629E+00 0.14219183E+04</pdfrwt>
<totfact> 0.47489852E-01</totfact>
</mgrwt>
</event>
<event>
 4    1  0.2514307E-008  0.6774503E+03  0.7818608E-02  0.1010804E+00
          1   -1    0    0  501    0  0.00000000000E+00  0.00000000000E+00  0.27344638714E+03  0.27344638718E+03  0.50400000000E-02 0. -1.
         -1   -1    0    0    0  501 -0.00000000000E+00 -0.00000000000E+00 -0.11381116391E+04  0.11381116392E+04  0.50400000000E-02 0.  1.
    8880023    1    1    2    0    0  0.84352879749E+02  0.13421363488E+03 -0.95716734893E+03  0.11726500962E+04  0.65864270000E+03 0.  1.
    8880022    1    1    2    0    0 -0.84352879749E+02 -0.13421363488E+03  0.92502096924E+02  0.23890793009E+03  0.15294330000E+03 0.  0.
<mgrwt>
<rscale>  0 0.51156236E+03</rscale>
<asrwt>0</asrwt>
<pdfrwt beam="1">  1        1 0.42068676E-01 0.67745030E+03</pdfrwt>
<pdfrwt beam="2">  1       -1 0.17509410E+00 0.67745030E+03</pdfrwt>
<totfact> 0.23071374E+01</totfact>
</mgrwt>
</event>
<event>
 4    1  0.2514307E-008  0.8648730E+03  0.7818608E-02  0.9584953E-01
         -1   -1    0    0    0  501 -0.00000000000E+00  0.00000000000E+00  0.94227860582E+03  0.94227860583E+03  0.50400000000E-02 0.  1.
          1   -1    0    0  501    0  0.00000000000E+00 -0.00000000000E+00 -0.10446782201E+04  0.10446782201E+04  0.50400000000E-02 0. -1.
    8880023    1    1    2    0    0 -0.24251627593E+03  0.50535239042E+03  0.61687348889E+03  0.10623268283E+04  0.65864270000E+03 0.  1.
    8880022    1    1    2    0    0  0.24251627593E+03 -0.50535239042E+03 -0.71927310320E+03  0.92462999767E+03  0.15294330000E+03 0.  0.
<mgrwt>
<rscale>  0 0.78300126E+03</rscale>
<asrwt>0</asrwt>
<pdfrwt beam="1">  1        1 0.16071973E+00 0.86487305E+03</pdfrwt>
<pdfrwt beam="2">  1       -1 0.14496594E+00 0.86487305E+03</pdfrwt>
<totfact> 0.54446393E+00</totfact>
</mgrwt>
</event>
<event>
 4    1  0.2514307E-008  0.1121789E+04  0.7818608E-02  0.9237175E-01
         -1   -1    0    0    0  501 -0.00000000000E+00  0.00000000000E+00  0.15453613547E+04  0.15453613548E+04  0.50400000000E-02 0.  1.
          1   -1    0    0  501    0  0.00000000000E+00 -0.00000000000E+00 -0.14720330726E+04  0.14720330726E+04  0.50400000000E-02 0. -1.
    8880023    1    1    2    0    0 -0.78979889676E+03  0.44812851559E+03 -0.10693703580E+04  0.15498272912E+04  0.65864270000E+03 0.  0.
    8880022    1    1    2    0    0  0.78979889676E+03 -0.44812851559E+03  0.11426986402E+04  0.14675671361E+04  0.15294330000E+03 0.  0.
<mgrwt>
<rscale>  0 0.10677819E+04</rscale>
<asrwt>0</asrwt>
<pdfrwt beam="1">  1        1 0.22646663E+00 0.11217895E+04</pdfrwt>
<pdfrwt beam="2">  1       -1 0.23774790E+00 0.11217895E+04</pdfrwt>
<totfact> 0.56884993E-01</totfact>
</mgrwt>
</event>
<event>
 4    1  0.2514307E-008  0.9804023E+03  0.7818608E-02  0.9407659E-01
         -1   -1    0    0    0  501 -0.00000000000E+00  0.00000000000E+00  0.66475915431E+03  0.66475915433E+03  0.50400000000E-02 0.  1.
          1   -1    0    0  501    0  0.00000000000E+00 -0.00000000000E+00 -0.15395805443E+04  0.15395805444E+04  0.50400000000E-02 0. -1.
    8880023    1    1    2    0    0 -0.65991564479E+03  0.30313328446E+03  0.92917141393E+02  0.98479553605E+03  0.65864270000E+03 0.  0.
    8880022    1    1    2    0    0  0.65991564479E+03 -0.30313328446E+03 -0.96773853143E+03  0.12195441626E+04  0.15294330000E+03 0.  0.
<mgrwt>
<rscale>  0 0.91448068E+03</rscale>
<asrwt>0</asrwt>
<pdfrwt beam="1">  1        1 0.23685854E+00 0.98040229E+03</pdfrwt>
<pdfrwt beam="2">  1       -1 0.10227064E+00 0.98040229E+03</pdfrwt>
<totfact> 0.56051292E+00</totfact>
</mgrwt>
</event>
<event>
 4    1  0.2514307E-008  0.1014563E+04  0.7818608E-02  0.9362748E-01
          1   -1    0    0  501    0  0.00000000000E+00  0.00000000000E+00  0.56757923584E+03  0.56757923587E+03  0.50400000000E-02 0. -1.
         -1   -1    0    0    0  501 -0.00000000000E+00 -0.00000000000E+00 -0.20970817495E+04  0.20970817495E+04  0.50400000000E-02 0.  1.
    8880023    1    1    2    0    0  0.62314594978E+03  0.45521029802E+03 -0.15784888383E+04  0.18764233288E+04  0.65864270000E+03 0.  0.
    8880022    1    1    2    0    0 -0.62314594978E+03 -0.45521029802E+03  0.48986324641E+02  0.78823765652E+03  0.15294330000E+03 0.  0.
<mgrwt>
<rscale>  0 0.95205797E+03</rscale>
<asrwt>0</asrwt>
<pdfrwt beam="1">  1        1 0.87319884E-01 0.10145627E+04</pdfrwt>
<pdfrwt beam="2">  1       -1 0.32262796E+00 0.10145627E+04</pdfrwt>
<totfact> 0.88587966E-01</totfact>
</mgrwt>
</event>
<event>
 4    1  0.2514307E-008  0.1366849E+04  0.7818608E-02  0.9009879E-01
          1   -1    0    0  501    0  0.00000000000E+00  0.00000000000E+00  0.13017907138E+04  0.13017907138E+04  0.50400000000E-02 0. -1.
         -1   -1    0    0    0  501 -0.00000000000E+00 -0.00000000000E+00 -0.20105817987E+04  0.20105817987E+04  0.50400000000E-02 0.  1.
    8880023    1    1    2    0    0  0.10080577602E+04 -0.64675054551E+03 -0.13704345029E+04  0.19355535769E+04  0.65864270000E+03 0.  0.
    8880022    1    1    2    0    0 -0.10080577602E+04  0.64675054551E+03  0.66164341800E+03  0.13768189357E+04  0.15294330000E+03 0.  0.
<mgrwt>
<rscale>  0 0.13251190E+04</rscale>
<asrwt>0</asrwt>
<pdfrwt beam="1">  1        1 0.20027549E+00 0.13668493E+04</pdfrwt>
<pdfrwt beam="2">  1       -1 0.30932028E+00 0.13668493E+04</pdfrwt>
<totfact> 0.24948902E-01</totfact>
</mgrwt>
</event>
<event>
 4    1  0.2514307E-008  0.8920900E+03  0.7818608E-02  0.9538851E-01
          1   -1    0    0  501    0  0.00000000000E+00  0.00000000000E+00  0.99508555553E+03  0.99508555554E+03  0.50400000000E-02 0. -1.
         -1   -1    0    0    0  501 -0.00000000000E+00 -0.00000000000E+00 -0.11843425948E+04  0.11843425948E+04  0.50400000000E-02 0.  1.
    8880023    1    1    2    0    0 -0.56741678424E+03 -0.20013137245E+03 -0.87835063504E+03  0.12519282797E+04  0.65864270000E+03 0.  1.
    8880022    1    1    2    0    0  0.56741678424E+03  0.20013137245E+03  0.68909359576E+03  0.92749987062E+03  0.15294330000E+03 0.  0.
<mgrwt>
<rscale>  0 0.81479118E+03</rscale>
<asrwt>0</asrwt>
<pdfrwt beam="1">  1        1 0.15309009E+00 0.89209001E+03</pdfrwt>
<pdfrwt beam="2">  1       -1 0.18220655E+00 0.89209001E+03</pdfrwt>
<totfact> 0.31174502E+00</totfact>
</mgrwt>
</event>
<event>
 4    1  0.2514307E-008  0.9607203E+03  0.7818608E-02  0.9434855E-01
         -1   -1    0    0    0  501 -0.00000000000E+00  0.00000000000E+00  0.11940924063E+04  0.11940924063E+04  0.50400000000E-02 0.  1.
          1   -1    0    0  501    0  0.00000000000E+00 -0.00000000000E+00 -0.14979958957E+04  0.14979958957E+04  0.50400000000E-02 0. -1.
    8880023    1    1    2    0    0  0.13568809342E+03 -0.68612101816E+03  0.88372524349E+03  0.13053558222E+04  0.65864270000E+03 0.  1.
    8880022    1    1    2    0    0 -0.13568809342E+03  0.68612101816E+03 -0.11876287329E+04  0.13867324798E+04  0.15294330000E+03 0.  0.
<mgrwt>
<rscale>  0 0.89261945E+03</rscale>
<asrwt>0</asrwt>
<pdfrwt beam="1">  1        1 0.23046091E+00 0.96072031E+03</pdfrwt>
<pdfrwt beam="2">  1       -1 0.18370652E+00 0.96072031E+03</pdfrwt>
<totfact> 0.13007448E+00</totfact>
</mgrwt>
</event>
<event>
 4    1  0.2514307E-008  0.7393816E+03  0.7818608E-02  0.9861752E-01
          1   -1    0    0  501    0  0.00000000000E+00  0.00000000000E+00  0.83930232845E+03  0.83930232847E+03  0.50400000000E-02 0. -1.
         -1   -1    0    0    0  501 -0.00000000000E+00 -0.00000000000E+00 -0.10871626643E+04  0.10871626643E+04  0.50400000000E-02 0.  1.
    8880023    1    1    2    0    0  0.20734092383E+03  0.26435718207E+03 -0.90749253475E+03  0.11705673348E+04  0.65864270000E+03 0.  1.
    8880022    1    1    2    0    0 -0.20734092383E+03 -0.26435718207E+03  0.65963219893E+03  0.75589765795E+03  0.15294330000E+03 0.  0.
<mgrwt>
<rscale>  0 0.62151295E+03</rscale>
<asrwt>0</asrwt>
<pdfrwt beam="1">  1        1 0.12912344E+00 0.73938162E+03</pdfrwt>
<pdfrwt beam="2">  1       -1 0.16725579E+00 0.73938162E+03</pdfrwt>
<totfact> 0.54672243E+00</totfact>
</mgrwt>
</event>
<event>
 4    1  0.2514307E-008  0.7955591E+03  0.7818608E-02  0.9720482E-01
         -1   -1    0    0    0  501 -0.00000000000E+00  0.00000000000E+00  0.23516015081E+04  0.23516015081E+04  0.50400000000E-02 0.  1.
          1   -1    0    0  501    0  0.00000000000E+00 -0.00000000000E+00 -0.15576505360E+04  0.15576505360E+04  0.50400000000E-02 0. -1.
    8880023    1    1    2    0    0 -0.85179811602E+01  0.44612940669E+03  0.22458805938E+04  0.23826233129E+04  0.65864270000E+03 0.  1.
    8880022    1    1    2    0    0  0.85179811602E+01 -0.44612940669E+03 -0.14519296216E+04  0.15266287311E+04  0.15294330000E+03 0.  0.
<mgrwt>
<rscale>  0 0.69810301E+03</rscale>
<asrwt>0</asrwt>
<pdfrwt beam="1">  1        1 0.23963854E+00 0.79555905E+03</pdfrwt>
<pdfrwt beam="2">  1       -1 0.36178485E+00 0.79555905E+03</pdfrwt>
<totfact> 0.83168223E-02</totfact>
</mgrwt>
</event>
<event>
 4    1  0.2514307E-008  0.8369402E+03  0.7818608E-02  0.9635977E-01
         -1   -1    0    0    0  501 -0.00000000000E+00  0.00000000000E+00  0.53273582906E+03  0.53273582908E+03  0.50400000000E-02 0.  1.
          1   -1    0    0  501    0  0.00000000000E+00 -0.00000000000E+00 -0.17294256866E+04  0.17294256866E+04  0.50400000000E-02 0. -1.
    8880023    1    1    2    0    0 -0.18022670810E+03 -0.48391832220E+03  0.11444203427E+03  0.84472823698E+03  0.65864270000E+03 0.  1.
    8880022    1    1    2    0    0  0.18022670810E+03  0.48391832220E+03 -0.13111318918E+04  0.14174332787E+04  0.15294330000E+03 0.  0.
<mgrwt>
<rscale>  0 0.74960066E+03</rscale>
<asrwt>0</asrwt>
<pdfrwt beam="1">  1        1 0.26606549E+00 0.83694015E+03</pdfrwt>
<pdfrwt beam="2">  1       -1 0.81959359E-01 0.83694015E+03</pdfrwt>
<totfact> 0.69415803E+00</totfact>
</mgrwt>
</event>
<event>
 4    1  0.2514307E-008  0.7416624E+03  0.7818608E-02  0.9855131E-01
          1   -1    0    0  501    0  0.00000000000E+00  0.00000000000E+00  0.15708847107E+04  0.15708847107E+04  0.50400000000E-02 0. -1.
         -1   -1    0    0    0  501 -0.00000000000E+00 -0.00000000000E+00 -0.95802145494E+03  0.95802145496E+03  0.50400000000E-02 0.  1.
    8880023    1    1    2    0    0  0.32727990530E+03  0.95607307153E+02 -0.78618547731E+03  0.10808102075E+04  0.65864270000E+03 0.  1.
    8880022    1    1    2    0    0 -0.32727990530E+03 -0.95607307153E+02  0.13990487331E+04  0.14480959582E+04  0.15294330000E+03 0.  0.
<mgrwt>
<rscale>  0 0.62485995E+03</rscale>
<asrwt>0</asrwt>
<pdfrwt beam="1">  1        1 0.24167457E+00 0.74166239E+03</pdfrwt>
<pdfrwt beam="2">  1       -1 0.14738792E+00 0.74166239E+03</pdfrwt>
<totfact> 0.22422467E+00</totfact>
</mgrwt>
</event>
<event>
 4    1  0.2514307E-008  0.1183803E+04  0.7818608E-02  0.9173030E-01
         -1   -1    0    0    0  501 -0.00000000000E+00  0.00000000000E+00  0.74212556221E+03  0.74212556223E+03  0.50400000000E-02 0.  1.
          1   -1    0    0  501    0  0.00000000000E+00 -0.00000000000E+00 -0.21027516743E+04  0.21027516744E+04  0.50400000000E-02 0. -1.
    8880023    1    1    2    0    0  0.91968673950E+03 -0.34893471940E+03 -0.14186775927E+04  0.18477108690E+04  0.65864270000E+03 0.  0.
    8880022    1    1    2    0    0 -0.91968673950E+03  0.34893471940E+03  0.58051480534E+02  0.99716636758E+03  0.15294330000E+03 0.  0.
<mgrwt>
<rscale>  0 0.11336191E+04</rscale>
<asrwt>0</asrwt>
<pdfrwt beam="1">  1        1 0.32350026E+00 0.11838029E+04</pdfrwt>
<pdfrwt beam="2">  1       -1 0.11417316E+00 0.11838029E+04</pdfrwt>
<totfact> 0.17503569E+00</totfact>
</mgrwt>
</event>
<event>
 4    1  0.2514307E-008  0.1428124E+04  0.7818608E-02  0.8962132E-01
         -1   -1    0    0    0  501 -0.00000000000E+00  0.00000000000E+00  0.79827405918E+03  0.79827405920E+03  0.50400000000E-02 0.  1.
          1   -1    0    0  501    0  0.00000000000E+00 -0.00000000000E+00 -0.26684136082E+04  0.26684136082E+04  0.50400000000E-02 0. -1.
    8880023    1    1    2    0    0  0.12562460759E+04  0.16604947993E+03 -0.32881545650E+03  0.14654884659E+04  0.65864270000E+03 0.  0.
    8880022    1    1    2    0    0 -0.12562460759E+04 -0.16604947993E+03 -0.15413240925E+04  0.20011992015E+04  0.15294330000E+03 0.  0.
<mgrwt>
<rscale>  0 0.13885720E+04</rscale>
<asrwt>0</asrwt>
<pdfrwt beam="1">  1        1 0.41052517E+00 0.14281235E+04</pdfrwt>
<pdfrwt beam="2">  1       -1 0.12281140E+00 0.14281235E+04</pdfrwt>
<totfact> 0.58095646E-01</totfact>
</mgrwt>
</event>
<event>
 4    1  0.2514307E-008  0.6626161E+03  0.7818608E-02  0.1021623E+00
         -1   -1    0    0    0  501 -0.00000000000E+00  0.00000000000E+00  0.53708425616E+03  0.53708425618E+03  0.50400000000E-02 0.  1.
          1   -1    0    0  501    0  0.00000000000E+00 -0.00000000000E+00 -0.34760115016E+03  0.34760115020E+03  0.50400000000E-02 0. -1.
    8880023    1    1    2    0    0  0.60854394601E+02 -0.39327789734E+02  0.24517345326E+03  0.70651975261E+03  0.65864270000E+03 0.  1.
    8880022    1    1    2    0    0 -0.60854394601E+02  0.39327789734E+02 -0.55690347262E+02  0.17816565376E+03  0.15294330000E+03 0.  0.
<mgrwt>
<rscale>  0 0.47105448E+03</rscale>
<asrwt>0</asrwt>
<pdfrwt beam="1">  1        1 0.53477100E-01 0.66261613E+03</pdfrwt>
<pdfrwt beam="2">  1       -1 0.82628347E-01 0.66261613E+03</pdfrwt>
<totfact> 0.10754527E+02</totfact>
</mgrwt>
</event>
<event>
 4    1  0.2514307E-008  0.1219733E+04  0.7818608E-02  0.9138176E-01
         -1   -1    0    0    0  501 -0.00000000000E+00  0.00000000000E+00  0.94322342497E+03  0.94322342498E+03  0.50400000000E-02 0.  1.
          1   -1    0    0  501    0  0.00000000000E+00 -0.00000000000E+00 -0.35713776283E+04  0.35713776283E+04  0.50400000000E-02 0. -1.
    8880023    1    1    2    0    0  0.10203851139E+04  0.11292312891E+03  0.42357732785E+03  0.12911875823E+04  0.65864270000E+03 0.  0.
    8880022    1    1    2    0    0 -0.10203851139E+04 -0.11292312891E+03 -0.30517315312E+04  0.32234134710E+04  0.15294330000E+03 0.  0.
<mgrwt>
<rscale>  0 0.11714993E+04</rscale>
<asrwt>0</asrwt>
<pdfrwt beam="1">  1        1 0.54944270E+00 0.12197326E+04</pdfrwt>
<pdfrwt beam="2">  1       -1 0.14511130E+00 0.12197326E+04</pdfrwt>
<totfact> 0.83544183E-02</totfact>
</mgrwt>
</event>
<event>
 4    1  0.2514307E-008  0.7588939E+03  0.7818608E-02  0.9807980E-01
         -1   -1    0    0    0  501 -0.00000000000E+00  0.00000000000E+00  0.11678662091E+03  0.11678662102E+03  0.50400000000E-02 0.  1.
          1   -1    0    0  501    0  0.00000000000E+00 -0.00000000000E+00 -0.39306941941E+04  0.39306941942E+04  0.50400000000E-02 0. -1.
    8880023    1    1    2    0    0  0.34131408583E+03 -0.16004491418E+03 -0.13368084461E+04  0.15371976800E+04  0.65864270000E+03 0.  0.
    8880022    1    1    2    0    0 -0.34131408583E+03  0.16004491418E+03 -0.24770991272E+04  0.25102831351E+04  0.15294330000E+03 0.  0.
<mgrwt>
<rscale>  0 0.64936065E+03</rscale>
<asrwt>0</asrwt>
<pdfrwt beam="1">  1        1 0.60472208E+00 0.75889386E+03</pdfrwt>
<pdfrwt beam="2">  1       -1 0.17967175E-01 0.75889386E+03</pdfrwt>
<totfact> 0.29477380E+00</totfact>
</mgrwt>
</event>
<event>
 4    1  0.2514307E-008  0.7370905E+03  0.7818608E-02  0.9868505E-01
         -1   -1    0    0    0  501 -0.00000000000E+00  0.00000000000E+00  0.77046673568E+03  0.77046673570E+03  0.50400000000E-02 0.  1.
          1   -1    0    0  501    0  0.00000000000E+00 -0.00000000000E+00 -0.14108566161E+04  0.14108566161E+04  0.50400000000E-02 0. -1.
    8880023    1    1    2    0    0 -0.31872818217E+03 -0.88907142961E+02  0.56071281198E+03  0.92612158919E+03  0.65864270000E+03 0.  0.
    8880022    1    1    2    0    0  0.31872818217E+03  0.88907142961E+02 -0.12011026924E+04  0.12552017626E+04  0.15294330000E+03 0.  0.
<mgrwt>
<rscale>  0 0.61812255E+03</rscale>
<asrwt>0</asrwt>
<pdfrwt beam="1">  1        1 0.21705486E+00 0.73709046E+03</pdfrwt>
<pdfrwt beam="2">  1       -1 0.11853334E+00 0.73709046E+03</pdfrwt>
<totfact> 0.50230503E+00</totfact>
</mgrwt>
</event>
<event>
 4    1  0.2514307E-008  0.1056609E+04  0.7818608E-02  0.9310979E-01
          1   -1    0    0  501    0  0.00000000000E+00  0.00000000000E+00  0.10148378394E+04  0.10148378394E+04  0.50400000000E-02 0. -1.
         -1   -1    0    0    0  501 -0.00000000000E+00 -0.00000000000E+00 -0.22705381291E+04  0.22705381291E+04  0.50400000000E-02 0.  1.
    8880023    1    1    2    0    0  0.82008815924E+03  0.10033366697E+03 -0.19351340894E+04  0.22048051125E+04  0.65864270000E+03 0.  0.
    8880022    1    1    2    0    0 -0.82008815924E+03 -0.10033366697E+03  0.67943379969E+03  0.10805708560E+04  0.15294330000E+03 0.  0.
<mgrwt>
<rscale>  0 0.99778373E+03</rscale>
<asrwt>0</asrwt>
<pdfrwt beam="1">  1        1 0.15612890E+00 0.10566086E+04</pdfrwt>
<pdfrwt beam="2">  1       -1 0.34931356E+00 0.10566086E+04</pdfrwt>
<totfact> 0.23382950E-01</totfact>
</mgrwt>
</event>
<event>
 4    1  0.2514307E-008  0.6670182E+03  0.7818608E-02  0.1017897E+00
         -1   -1    0    0    0  501 -0.00000000000E+00  0.00000000000E+00  0.82207677433E+03  0.82207677434E+03  0.50400000000E-02 0.  1.
          1   -1    0    0  501    0  0.00000000000E+00 -0.00000000000E+00 -0.12011511811E+04  0.12011511812E+04  0.50400000000E-02 0. -1.
    8880023    1    1    2    0    0  0.52733460635E+02 -0.91226698230E+02  0.67732739076E+03  0.95062386299E+03  0.65864270000E+03 0.  1.
    8880022    1    1    2    0    0 -0.52733460635E+02  0.91226698230E+02 -0.10564017976E+04  0.10726040925E+04  0.15294330000E+03 0.  0.
<mgrwt>
<rscale>  0 0.48453199E+03</rscale>
<asrwt>0</asrwt>
<pdfrwt beam="1">  1        1 0.18479249E+00 0.66701824E+03</pdfrwt>
<pdfrwt beam="2">  1       -1 0.12647335E+00 0.66701824E+03</pdfrwt>
<totfact> 0.60954014E+00</totfact>
</mgrwt>
</event>
<event>
 4    1  0.2514307E-008  0.7475931E+03  0.7818608E-02  0.9838357E-01
         -1   -1    0    0    0  501 -0.00000000000E+00  0.00000000000E+00  0.45075766174E+03  0.45075766176E+03  0.50400000000E-02 0.  1.
          1   -1    0    0  501    0  0.00000000000E+00 -0.00000000000E+00 -0.12856620416E+04  0.12856620416E+04  0.50400000000E-02 0. -1.
    8880023    1    1    2    0    0 -0.35331250455E+03 -0.15983305629E+02  0.71998366859E+02  0.75105203749E+03  0.65864270000E+03 0.  1.
    8880022    1    1    2    0    0  0.35331250455E+03  0.15983305629E+02 -0.90690274670E+03  0.98536766586E+03  0.15294330000E+03 0.  0.
<mgrwt>
<rscale>  0 0.63344118E+03</rscale>
<asrwt>0</asrwt>
<pdfrwt beam="1">  1        1 0.19779416E+00 0.74759307E+03</pdfrwt>
<pdfrwt beam="2">  1       -1 0.69347333E-01 0.74759307E+03</pdfrwt>
<totfact> 0.20111941E+01</totfact>
</mgrwt>
</event>
<event>
 4    1  0.2514307E-008  0.1435734E+04  0.7818608E-02  0.8956402E-01
          1   -1    0    0  501    0  0.00000000000E+00  0.00000000000E+00  0.87441910392E+03  0.87441910394E+03  0.50400000000E-02 0. -1.
         -1   -1    0    0    0  501 -0.00000000000E+00 -0.00000000000E+00 -0.28605629580E+04  0.28605629580E+04  0.50400000000E-02 0.  1.
    8880023    1    1    2    0    0  0.20212972133E+03 -0.12596295309E+04 -0.82251678009E+02  0.14380884966E+04  0.65864270000E+03 0.  0.
    8880022    1    1    2    0    0 -0.20212972133E+03  0.12596295309E+04 -0.19038921761E+04  0.22968935653E+04  0.15294330000E+03 0.  0.
<mgrwt>
<rscale>  0 0.13964364E+04</rscale>
<asrwt>0</asrwt>
<pdfrwt beam="1">  1        1 0.13452602E+00 0.14357344E+04</pdfrwt>
<pdfrwt beam="2">  1       -1 0.44008660E+00 0.14357344E+04</pdfrwt>
<totfact> 0.69583285E-02</totfact>
</mgrwt>
</event>
<event>
 4    1  0.2514307E-008  0.8977313E+03  0.7818608E-02  0.9529684E-01
         -1   -1    0    0    0  501 -0.00000000000E+00  0.00000000000E+00  0.55907122791E+03  0.55907122794E+03  0.50400000000E-02 0.  1.
          1   -1    0    0  501    0  0.00000000000E+00 -0.00000000000E+00 -0.17322525243E+04  0.17322525244E+04  0.50400000000E-02 0. -1.
    8880023    1    1    2    0    0 -0.56420508386E+03  0.23191343489E+03  0.67593141486E+02  0.90027232378E+03  0.65864270000E+03 0.  1.
    8880022    1    1    2    0    0  0.56420508386E+03 -0.23191343489E+03 -0.12407744379E+04  0.13910514285E+04  0.15294330000E+03 0.  0.
<mgrwt>
<rscale>  0 0.82130311E+03</rscale>
<asrwt>0</asrwt>
<pdfrwt beam="1">  1        1 0.26650039E+00 0.89773127E+03</pdfrwt>
<pdfrwt beam="2">  1       -1 0.86010959E-01 0.89773127E+03</pdfrwt>
<totfact> 0.61745756E+00</totfact>
</mgrwt>
</event>
<event>
 4    1  0.2514307E-008  0.8301237E+03  0.7818608E-02  0.9649092E-01
         -1   -1    0    0    0  501 -0.00000000000E+00  0.00000000000E+00  0.13789008560E+04  0.13789008560E+04  0.50400000000E-02 0.  1.
          1   -1    0    0  501    0  0.00000000000E+00 -0.00000000000E+00 -0.82702802472E+03  0.82702802473E+03  0.50400000000E-02 0. -1.
    8880023    1    1    2    0    0  0.50363711586E+03  0.40556671037E+02  0.11434815425E+04  0.14130305844E+04  0.65864270000E+03 0.  1.
    8880022    1    1    2    0    0 -0.50363711586E+03 -0.40556671037E+02 -0.59160871128E+03  0.79289829633E+03  0.15294330000E+03 0.  0.
<mgrwt>
<rscale>  0 0.74130457E+03</rscale>
<asrwt>0</asrwt>
<pdfrwt beam="1">  1        1 0.12723508E+00 0.83012372E+03</pdfrwt>
<pdfrwt beam="2">  1       -1 0.21213859E+00 0.83012372E+03</pdfrwt>
<totfact> 0.26785215E+00</totfact>
</mgrwt>
</event>
<event>
 4    1  0.2514307E-008  0.1082011E+04  0.7818608E-02  0.9281354E-01
          1   -1    0    0  501    0  0.00000000000E+00  0.00000000000E+00  0.13347118966E+04  0.13347118967E+04  0.50400000000E-02 0. -1.
         -1   -1    0    0    0  501 -0.00000000000E+00 -0.00000000000E+00 -0.12236989321E+04  0.12236989321E+04  0.50400000000E-02 0.  1.
    8880023    1    1    2    0    0  0.17274927136E+03  0.84088898439E+03 -0.76287362574E+03  0.13239044414E+04  0.65864270000E+03 0.  0.
    8880022    1    1    2    0    0 -0.17274927136E+03 -0.84088898439E+03  0.87388659027E+03  0.12345063874E+04  0.15294330000E+03 0.  0.
<mgrwt>
<rscale>  0 0.10251768E+04</rscale>
<asrwt>0</asrwt>
<pdfrwt beam="1">  1        1 0.20534029E+00 0.10820105E+04</pdfrwt>
<pdfrwt beam="2">  1       -1 0.18826137E+00 0.10820105E+04</pdfrwt>
<totfact> 0.15439596E+00</totfact>
</mgrwt>
</event>
<event>
 4    1  0.2514307E-008  0.7287716E+03  0.7818608E-02  0.9893951E-01
         -1   -1    0    0    0  501 -0.00000000000E+00  0.00000000000E+00  0.89123591661E+03  0.89123591662E+03  0.50400000000E-02 0.  1.
          1   -1    0    0  501    0  0.00000000000E+00 -0.00000000000E+00 -0.18281154630E+04  0.18281154630E+04  0.50400000000E-02 0. -1.
    8880023    1    1    2    0    0  0.31163778033E+03  0.13407855540E+02  0.72118192885E+03  0.10252860369E+04  0.65864270000E+03 0.  1.
    8880022    1    1    2    0    0 -0.31163778033E+03 -0.13407855540E+02 -0.16580614752E+04  0.16940653427E+04  0.15294330000E+03 0.  0.
<mgrwt>
<rscale>  0 0.60555318E+03</rscale>
<asrwt>0</asrwt>
<pdfrwt beam="1">  1        1 0.28124853E+00 0.72877163E+03</pdfrwt>
<pdfrwt beam="2">  1       -1 0.13711322E+00 0.72877163E+03</pdfrwt>
<totfact> 0.18232210E+00</totfact>
</mgrwt>
</event>
<event>
 4    1  0.2514307E-008  0.9423042E+03  0.7818608E-02  0.9461274E-01
         -1   -1    0    0    0  501 -0.00000000000E+00  0.00000000000E+00  0.20267675925E+04  0.20267675925E+04  0.50400000000E-02 0.  1.
          1   -1    0    0  501    0  0.00000000000E+00 -0.00000000000E+00 -0.72297685518E+03  0.72297685520E+03  0.50400000000E-02 0. -1.
    8880023    1    1    2    0    0 -0.38968414408E+03  0.54979390373E+03  0.17069037223E+04  0.19497326976E+04  0.65864270000E+03 0.  1.
    8880022    1    1    2    0    0  0.38968414408E+03 -0.54979390373E+03 -0.40311298492E+03  0.80001175014E+03  0.15294330000E+03 0.  0.
<mgrwt>
<rscale>  0 0.87200135E+03</rscale>
<asrwt>0</asrwt>
<pdfrwt beam="1">  1        1 0.11122721E+00 0.94230424E+03</pdfrwt>
<pdfrwt beam="2">  1       -1 0.31181040E+00 0.94230424E+03</pdfrwt>
<totfact> 0.73511797E-01</totfact>
</mgrwt>
</event>
<event>
 4    1  0.2514307E-008  0.1171957E+04  0.7818608E-02  0.9184876E-01
          1   -1    0    0  501    0  0.00000000000E+00  0.00000000000E+00  0.17990492179E+04  0.17990492179E+04  0.50400000000E-02 0. -1.
         -1   -1    0    0    0  501 -0.00000000000E+00 -0.00000000000E+00 -0.67159027583E+03  0.67159027585E+03  0.50400000000E-02 0.  1.
    8880023    1    1    2    0    0 -0.94747214026E+03 -0.20486189356E+03  0.85952270843E+03  0.14533620831E+04  0.65864270000E+03 0.  0.
    8880022    1    1    2    0    0  0.94747214026E+03  0.20486189356E+03  0.26793623367E+03  0.10172774107E+04  0.15294330000E+03 0.  0.
<mgrwt>
<rscale>  0 0.11210900E+04</rscale>
<asrwt>0</asrwt>
<pdfrwt beam="1">  1        1 0.27677680E+00 0.11719565E+04</pdfrwt>
<pdfrwt beam="2">  1       -1 0.10332158E+00 0.11719565E+04</pdfrwt>
<totfact> 0.35628321E+00</totfact>
</mgrwt>
</event>
<event>
 4    1  0.2514307E-008  0.1361635E+04  0.7818608E-02  0.9014081E-01
         -1   -1    0    0    0  501 -0.00000000000E+00  0.00000000000E+00  0.15159662854E+04  0.15159662854E+04  0.50400000000E-02 0.  1.
          1   -1    0    0  501    0  0.00000000000E+00 -0.00000000000E+00 -0.24178003922E+04  0.24178003922E+04  0.50400000000E-02 0. -1.
    8880023    1    1    2    0    0 -0.72832927002E+03  0.94327980177E+03  0.99637592239E+03  0.16872508690E+04  0.65864270000E+03 0.  0.
    8880022    1    1    2    0    0  0.72832927002E+03 -0.94327980177E+03 -0.18982100293E+04  0.22465158086E+04  0.15294330000E+03 0.  0.
<mgrwt>
<rscale>  0 0.13197074E+04</rscale>
<asrwt>0</asrwt>
<pdfrwt beam="1">  1        1 0.37196929E+00 0.13616352E+04</pdfrwt>
<pdfrwt beam="2">  1       -1 0.23322558E+00 0.13616352E+04</pdfrwt>
<totfact> 0.13344831E-01</totfact>
</mgrwt>
</event>
<event>
 4    1  0.2514307E-008  0.9722049E+03  0.7818608E-02  0.9418861E-01
         -1   -1    0    0    0  501 -0.00000000000E+00  0.00000000000E+00  0.79012527762E+03  0.79012527763E+03  0.50400000000E-02 0.  1.
          1   -1    0    0  501    0  0.00000000000E+00 -0.00000000000E+00 -0.25199131075E+04  0.25199131075E+04  0.50400000000E-02 0. -1.
    8880023    1    1    2    0    0 -0.42237534782E+03  0.57703661971E+03  0.40521404214E+03  0.10532714850E+04  0.65864270000E+03 0.  1.
    8880022    1    1    2    0    0  0.42237534782E+03 -0.57703661971E+03 -0.21350018720E+04  0.22567669001E+04  0.15294330000E+03 0.  0.
<mgrwt>
<rscale>  0 0.90539609E+03</rscale>
<asrwt>0</asrwt>
<pdfrwt beam="1">  1        1 0.38767893E+00 0.97220492E+03</pdfrwt>
<pdfrwt beam="2">  1       -1 0.12155774E+00 0.97220492E+03</pdfrwt>
<totfact> 0.80555907E-01</totfact>
</mgrwt>
</event>
<event>
 4    1  0.2514307E-008  0.7138658E+03  0.7818608E-02  0.9943916E-01
          1   -1    0    0  501    0  0.00000000000E+00  0.00000000000E+00  0.28368741260E+04  0.28368741260E+04  0.50400000000E-02 0. -1.
         -1   -1    0    0    0  501 -0.00000000000E+00 -0.00000000000E+00 -0.93788754950E+02  0.93788755085E+02  0.50400000000E-02 0.  1.
    8880023    1    1    2    0    0  0.17551779681E+03 -0.21210303011E+03  0.20004792942E+04  0.21240343230E+04  0.65864270000E+03 0. -1.
    8880022    1    1    2    0    0 -0.17551779681E+03  0.21210303011E+03  0.74260607685E+03  0.80662855812E+03  0.15294330000E+03 0. -1.
<mgrwt>
<rscale>  0 0.58179321E+03</rscale>
<asrwt>0</asrwt>
<pdfrwt beam="1">  1        1 0.43644214E+00 0.71386581E+03</pdfrwt>
<pdfrwt beam="2">  1       -1 0.14429040E-01 0.71386581E+03</pdfrwt>
<totfact> 0.29089971E+01</totfact>
</mgrwt>
</event>
<event>
 4    1  0.2514307E-008  0.8813960E+03  0.7818608E-02  0.9556582E-01
          1   -1    0    0  501    0  0.00000000000E+00  0.00000000000E+00  0.15477469465E+04  0.15477469465E+04  0.50400000000E-02 0. -1.
         -1   -1    0    0    0  501 -0.00000000000E+00 -0.00000000000E+00 -0.39854933499E+03  0.39854933502E+03  0.50400000000E-02 0.  1.
    8880023    1    1    2    0    0 -0.76652729418E+02 -0.58066610820E+03  0.36098209734E+03  0.95245317523E+03  0.65864270000E+03 0. -1.
    8880022    1    1    2    0    0  0.76652729418E+02  0.58066610820E+03  0.78821551413E+03  0.99384310626E+03  0.15294330000E+03 0.  0.
<mgrwt>
<rscale>  0 0.80237750E+03</rscale>
<asrwt>0</asrwt>
<pdfrwt beam="1">  1        1 0.23811491E+00 0.88139604E+03</pdfrwt>
<pdfrwt beam="2">  1       -1 0.61315283E-01 0.88139604E+03</pdfrwt>
<totfact> 0.16668406E+01</totfact>
</mgrwt>
</event>
<event>
 4    1  0.2514307E-008  0.1704191E+04  0.7818608E-02  0.8777472E-01
         -1   -1    0    0    0  501 -0.00000000000E+00  0.00000000000E+00  0.14483215061E+04  0.14483215061E+04  0.50400000000E-02 0.  1.
          1   -1    0    0  501    0  0.00000000000E+00 -0.00000000000E+00 -0.21128711628E+04  0.21128711628E+04  0.50400000000E-02 0. -1.
    8880023    1    1    2    0    0 -0.11879991650E+04 -0.10291322383E+04  0.27111794842E+03  0.17256217222E+04  0.65864270000E+03 0.  0.
    8880022    1    1    2    0    0  0.11879991650E+04  0.10291322383E+04 -0.93566760511E+03  0.18355709467E+04  0.15294330000E+03 0.  0.
<mgrwt>
<rscale>  0 0.16720426E+04</rscale>
<asrwt>0</asrwt>
<pdfrwt beam="1">  1        1 0.32505710E+00 0.17041905E+04</pdfrwt>
<pdfrwt beam="2">  1       -1 0.22281869E+00 0.17041905E+04</pdfrwt>
<totfact> 0.24293500E-01</totfact>
</mgrwt>
</event>
<event>
 4    1  0.2514307E-008  0.9946804E+03  0.7818608E-02  0.9388551E-01
          1   -1    0    0  501    0  0.00000000000E+00  0.00000000000E+00  0.14731509782E+04  0.14731509782E+04  0.50400000000E-02 0. -1.
         -1   -1    0    0    0  501 -0.00000000000E+00 -0.00000000000E+00 -0.11936442895E+04  0.11936442895E+04  0.50400000000E-02 0.  1.
    8880023    1    1    2    0    0 -0.68746911657E+03 -0.28803666977E+03 -0.84763853221E+03  0.13068589047E+04  0.65864270000E+03 0.  1.
    8880022    1    1    2    0    0  0.68746911657E+03  0.28803666977E+03  0.11271452209E+04  0.13599363630E+04  0.15294330000E+03 0.  0.
<mgrwt>
<rscale>  0 0.93023941E+03</rscale>
<asrwt>0</asrwt>
<pdfrwt beam="1">  1        1 0.22663861E+00 0.99468041E+03</pdfrwt>
<pdfrwt beam="2">  1       -1 0.18363758E+00 0.99468041E+03</pdfrwt>
<totfact> 0.13478170E+00</totfact>
</mgrwt>
</event>
<event>
 4    1  0.2514307E-008  0.1336003E+04  0.7818608E-02  0.9035076E-01
         -1   -1    0    0    0  501 -0.00000000000E+00  0.00000000000E+00  0.12962779348E+04  0.12962779348E+04  0.50400000000E-02 0.  1.
          1   -1    0    0  501    0  0.00000000000E+00 -0.00000000000E+00 -0.25800963740E+04  0.25800963740E+04  0.50400000000E-02 0. -1.
    8880023    1    1    2    0    0  0.44469025680E+03 -0.10739393014E+04  0.74757841266E+03  0.15309404746E+04  0.65864270000E+03 0.  0.
    8880022    1    1    2    0    0 -0.44469025680E+03  0.10739393014E+04 -0.20313968519E+04  0.23454338342E+04  0.15294330000E+03 0.  0.
<mgrwt>
<rscale>  0 0.12930736E+04</rscale>
<asrwt>0</asrwt>
<pdfrwt beam="1">  1        1 0.39693790E+00 0.13360035E+04</pdfrwt>
<pdfrwt beam="2">  1       -1 0.19942737E+00 0.13360035E+04</pdfrwt>
<totfact> 0.17491690E-01</totfact>
</mgrwt>
</event>
<event>
 4    1  0.2514307E-008  0.7280520E+03  0.7818608E-02  0.9896226E-01
         -1   -1    0    0    0  501 -0.00000000000E+00  0.00000000000E+00  0.34858725974E+03  0.34858725978E+03  0.50400000000E-02 0.  1.
          1   -1    0    0  501    0  0.00000000000E+00 -0.00000000000E+00 -0.38306172738E+04  0.38306172738E+04  0.50400000000E-02 0. -1.
    8880023    1    1    2    0    0  0.29095360515E+03  0.10768269436E+03 -0.49976756532E+02  0.72976533589E+03  0.65864270000E+03 0.  1.
    8880022    1    1    2    0    0 -0.29095360515E+03 -0.10768269436E+03 -0.34320532576E+04  0.34494391977E+04  0.15294330000E+03 0.  0.
<mgrwt>
<rscale>  0 0.60444518E+03</rscale>
<asrwt>0</asrwt>
<pdfrwt beam="1">  1        1 0.58932570E+00 0.72805204E+03</pdfrwt>
<pdfrwt beam="2">  1       -1 0.53628812E-01 0.72805204E+03</pdfrwt>
<totfact> 0.52377561E-01</totfact>
</mgrwt>
</event>
<event>
 4    1  0.2514307E-008  0.8285031E+03  0.7818608E-02  0.9652252E-01
          1   -1    0    0  501    0  0.00000000000E+00  0.00000000000E+00  0.56806450396E+03  0.56806450398E+03  0.50400000000E-02 0. -1.
         -1   -1    0    0    0  501 -0.00000000000E+00 -0.00000000000E+00 -0.15118203524E+04  0.15118203524E+04  0.50400000000E-02 0.  1.
    8880023    1    1    2    0    0  0.49807069243E+03  0.67325844789E+02 -0.12289280863E+04  0.14821206535E+04  0.65864270000E+03 0.  1.
    8880022    1    1    2    0    0 -0.49807069243E+03 -0.67325844789E+02  0.28517223782E+03  0.59776420291E+03  0.15294330000E+03 0.  0.
<mgrwt>
<rscale>  0 0.73932265E+03</rscale>
<asrwt>0</asrwt>
<pdfrwt beam="1">  1        1 0.87394540E-01 0.82850310E+03</pdfrwt>
<pdfrwt beam="2">  1       -1 0.23258774E+00 0.82850310E+03</pdfrwt>
<totfact> 0.34582210E+00</totfact>
</mgrwt>
</event>
<event>
 4    1  0.2514307E-008  0.8295847E+03  0.7818608E-02  0.9650141E-01
          1   -1    0    0  501    0  0.00000000000E+00  0.00000000000E+00  0.11109438025E+04  0.11109438025E+04  0.50400000000E-02 0. -1.
         -1   -1    0    0    0  501 -0.00000000000E+00 -0.00000000000E+00 -0.42467440272E+03  0.42467440275E+03  0.50400000000E-02 0.  1.
    8880023    1    1    2    0    0  0.90444136590E+02 -0.49620597037E+03  0.53554384876E+03  0.98742996060E+03  0.65864270000E+03 0. -1.
    8880022    1    1    2    0    0 -0.90444136590E+02  0.49620597037E+03  0.15072555105E+03  0.54818824471E+03  0.15294330000E+03 0.  1.
<mgrwt>
<rscale>  0 0.74064575E+03</rscale>
<asrwt>0</asrwt>
<pdfrwt beam="1">  1        1 0.17091443E+00 0.82958466E+03</pdfrwt>
<pdfrwt beam="2">  1       -1 0.65334524E-01 0.82958466E+03</pdfrwt>
<totfact> 0.30112849E+01</totfact>
</mgrwt>
</event>
<event>
 4    1  0.2514307E-008  0.7770562E+03  0.7818608E-02  0.9762798E-01
         -1   -1    0    0    0  501 -0.00000000000E+00  0.00000000000E+00  0.18715881736E+04  0.18715881736E+04  0.50400000000E-02 0.  1.
          1   -1    0    0  501    0  0.00000000000E+00 -0.00000000000E+00 -0.80876043491E+03  0.80876043493E+03  0.50400000000E-02 0. -1.
    8880023    1    1    2    0    0  0.27233762779E+03  0.30957761771E+03  0.17212756188E+04  0.18885460140E+04  0.65864270000E+03 0.  0.
    8880022    1    1    2    0    0 -0.27233762779E+03 -0.30957761771E+03 -0.65844788010E+03  0.79180259454E+03  0.15294330000E+03 0. -1.
<mgrwt>
<rscale>  0 0.67397802E+03</rscale>
<asrwt>0</asrwt>
<pdfrwt beam="1">  1        1 0.12442468E+00 0.77705617E+03</pdfrwt>
<pdfrwt beam="2">  1       -1 0.28793664E+00 0.77705617E+03</pdfrwt>
<totfact> 0.90234612E-01</totfact>
</mgrwt>
</event>
<event>
 4    1  0.2514307E-008  0.1073223E+04  0.7818608E-02  0.9291472E-01
         -1   -1    0    0    0  501 -0.00000000000E+00  0.00000000000E+00  0.16919068612E+04  0.16919068612E+04  0.50400000000E-02 0.  1.
          1   -1    0    0  501    0  0.00000000000E+00 -0.00000000000E+00 -0.55643790963E+03  0.55643790965E+03  0.50400000000E-02 0. -1.
    8880023    1    1    2    0    0 -0.63656884511E+02 -0.84495240396E+03  0.71954941658E+03  0.12921139010E+04  0.65864270000E+03 0.  0.
    8880022    1    1    2    0    0  0.63656884511E+02  0.84495240396E+03  0.41591953495E+03  0.95623086985E+03  0.15294330000E+03 0.  0.
<mgrwt>
<rscale>  0 0.10157179E+04</rscale>
<asrwt>0</asrwt>
<pdfrwt beam="1">  1        1 0.85605833E-01 0.10732227E+04</pdfrwt>
<pdfrwt beam="2">  1       -1 0.26029336E+00 0.10732227E+04</pdfrwt>
<totfact> 0.22811930E+00</totfact>
</mgrwt>
</event>
<event>
 4    1  0.2514307E-008  0.7373121E+03  0.7818608E-02  0.9867847E-01
         -1   -1    0    0    0  501 -0.00000000000E+00  0.00000000000E+00  0.40822859421E+03  0.40822859424E+03  0.50400000000E-02 0.  1.
          1   -1    0    0  501    0  0.00000000000E+00 -0.00000000000E+00 -0.16891893825E+04  0.16891893825E+04  0.50400000000E-02 0. -1.
    8880023    1    1    2    0    0 -0.20717574609E+03 -0.25864491588E+03  0.28680667676E+02  0.73786975086E+03  0.65864270000E+03 0.  1.
    8880022    1    1    2    0    0  0.20717574609E+03  0.25864491588E+03 -0.13096414560E+04  0.13595482259E+04  0.15294330000E+03 0.  0.
<mgrwt>
<rscale>  0 0.61845186E+03</rscale>
<asrwt>0</asrwt>
<pdfrwt beam="1">  1        1 0.25987529E+00 0.73731214E+03</pdfrwt>
<pdfrwt beam="2">  1       -1 0.62804400E-01 0.73731214E+03</pdfrwt>
<totfact> 0.12984408E+01</totfact>
</mgrwt>
</event>
<event>
 4    1  0.2514307E-008  0.1015996E+04  0.7818608E-02  0.9360922E-01
          1   -1    0    0  501    0  0.00000000000E+00  0.00000000000E+00  0.18575105127E+04  0.18575105127E+04  0.50400000000E-02 0. -1.
         -1   -1    0    0    0  501 -0.00000000000E+00 -0.00000000000E+00 -0.10220118176E+04  0.10220118176E+04  0.50400000000E-02 0.  1.
    8880023    1    1    2    0    0  0.63429564530E+03  0.44284044236E+03 -0.64406160468E+03  0.12029398073E+04  0.65864270000E+03 0.  0.
    8880022    1    1    2    0    0 -0.63429564530E+03 -0.44284044236E+03  0.14795602997E+04  0.16765825231E+04  0.15294330000E+03 0.  0.
<mgrwt>
<rscale>  0 0.95362611E+03</rscale>
<asrwt>0</asrwt>
<pdfrwt beam="1">  1        1 0.28577085E+00 0.10159965E+04</pdfrwt>
<pdfrwt beam="2">  1       -1 0.15723259E+00 0.10159965E+04</pdfrwt>
<totfact> 0.11501516E+00</totfact>
</mgrwt>
</event>
<event>
 4    1  0.2514307E-008  0.1406438E+04  0.7818608E-02  0.8978696E-01
         -1   -1    0    0    0  501 -0.00000000000E+00  0.00000000000E+00  0.20228346810E+04  0.20228346810E+04  0.50400000000E-02 0.  1.
          1   -1    0    0  501    0  0.00000000000E+00 -0.00000000000E+00 -0.10039896383E+04  0.10039896383E+04  0.50400000000E-02 0. -1.
    8880023    1    1    2    0    0  0.19091273484E+03  0.12279291006E+04  0.10800136713E+04  0.17732730429E+04  0.65864270000E+03 0.  0.
    8880022    1    1    2    0    0 -0.19091273484E+03 -0.12279291006E+04 -0.61168628530E+02  0.12535512764E+04  0.15294330000E+03 0.  0.
<mgrwt>
<rscale>  0 0.13661442E+04</rscale>
<asrwt>0</asrwt>
<pdfrwt beam="1">  1        1 0.15445994E+00 0.14064380E+04</pdfrwt>
<pdfrwt beam="2">  1       -1 0.31120533E+00 0.14064380E+04</pdfrwt>
<totfact> 0.40338879E-01</totfact>
</mgrwt>
</event>
<event>
 4    1  0.2514307E-008  0.1410008E+04  0.7818608E-02  0.8975945E-01
          1   -1    0    0  501    0  0.00000000000E+00  0.00000000000E+00  0.42781564822E+04  0.42781564822E+04  0.50400000000E-02 0. -1.
         -1   -1    0    0    0  501 -0.00000000000E+00 -0.00000000000E+00 -0.80091431770E+03  0.80091431772E+03  0.50400000000E-02 0.  1.
    8880023    1    1    2    0    0  0.10695370779E+04 -0.64062620171E+03  0.30222510354E+02  0.14103315559E+04  0.65864270000E+03 0.  0.
    8880022    1    1    2    0    0 -0.10695370779E+04  0.64062620171E+03  0.34470196541E+04  0.36687392440E+04  0.15294330000E+03 0.  0.
<mgrwt>
<rscale>  0 0.13698382E+04</rscale>
<asrwt>0</asrwt>
<pdfrwt beam="1">  1        1 0.65817791E+00 0.14100077E+04</pdfrwt>
<pdfrwt beam="2">  1       -1 0.12321759E+00 0.14100077E+04</pdfrwt>
<totfact> 0.30470409E-02</totfact>
</mgrwt>
</event>
<event>
 4    1  0.2514307E-008  0.1264267E+04  0.7818608E-02  0.9097049E-01
          1   -1    0    0  501    0  0.00000000000E+00  0.00000000000E+00  0.77601222926E+03  0.77601222928E+03  0.50400000000E-02 0. -1.
         -1   -1    0    0    0  501 -0.00000000000E+00 -0.00000000000E+00 -0.24670912142E+04  0.24670912142E+04  0.50400000000E-02 0.  1.
    8880023    1    1    2    0    0  0.10559865250E+04 -0.22237947563E+03 -0.17414826888E+04  0.21520065832E+04  0.65864270000E+03 0.  0.
    8880022    1    1    2    0    0 -0.10559865250E+04  0.22237947563E+03  0.50403703893E+02  0.10910968603E+04  0.15294330000E+03 0.  0.
<mgrwt>
<rscale>  0 0.12182289E+04</rscale>
<asrwt>0</asrwt>
<pdfrwt beam="1">  1        1 0.11938650E+00 0.12642667E+04</pdfrwt>
<pdfrwt beam="2">  1       -1 0.37955249E+00 0.12642667E+04</pdfrwt>
<totfact> 0.22510682E-01</totfact>
</mgrwt>
</event>
<event>
 4    1  0.2514307E-008  0.9934437E+03  0.7818608E-02  0.9390186E-01
         -1   -1    0    0    0  501 -0.00000000000E+00  0.00000000000E+00  0.31019705416E+04  0.31019705416E+04  0.50400000000E-02 0.  1.
          1   -1    0    0  501    0  0.00000000000E+00 -0.00000000000E+00 -0.86933795958E+03  0.86933795960E+03  0.50400000000E-02 0. -1.
    8880023    1    1    2    0    0 -0.27664616123E+03 -0.69035288833E+03  0.28337732071E+04  0.30028654656E+04  0.65864270000E+03 0.  0.
    8880022    1    1    2    0    0  0.27664616123E+03  0.69035288833E+03 -0.60114062512E+03  0.96844303557E+03  0.15294330000E+03 0.  0.
<mgrwt>
<rscale>  0 0.92887758E+03</rscale>
<asrwt>0</asrwt>
<pdfrwt beam="1">  1        1 0.13374430E+00 0.99344372E+03</pdfrwt>
<pdfrwt beam="2">  1       -1 0.47722623E+00 0.99344372E+03</pdfrwt>
<totfact> 0.41683831E-02</totfact>
</mgrwt>
</event>
<event>
 4    1  0.2514307E-008  0.1134306E+04  0.7818608E-02  0.9223789E-01
          1   -1    0    0  501    0  0.00000000000E+00  0.00000000000E+00  0.18088740733E+04  0.18088740733E+04  0.50400000000E-02 0. -1.
         -1   -1    0    0    0  501 -0.00000000000E+00 -0.00000000000E+00 -0.10866968738E+04  0.10866968738E+04  0.50400000000E-02 0.  1.
    8880023    1    1    2    0    0  0.62905692181E+03  0.67611201704E+03  0.13539081158E+04  0.17662721939E+04  0.65864270000E+03 0. -1.
    8880022    1    1    2    0    0 -0.62905692181E+03 -0.67611201704E+03 -0.63173091630E+03  0.11292987532E+04  0.15294330000E+03 0.  0.
<mgrwt>
<rscale>  0 0.10811229E+04</rscale>
<asrwt>0</asrwt>
<pdfrwt beam="1">  1        1 0.27828832E+00 0.11343061E+04</pdfrwt>
<pdfrwt beam="2">  1       -1 0.16718414E+00 0.11343061E+04</pdfrwt>
<totfact> 0.10264817E+00</totfact>
</mgrwt>
</event>
<event>
 4    1  0.2514307E-008  0.1061208E+04  0.7818608E-02  0.9305527E-01
          1   -1    0    0  501    0  0.00000000000E+00  0.00000000000E+00  0.12005044973E+04  0.12005044973E+04  0.50400000000E-02 0. -1.
         -1   -1    0    0    0  501 -0.00000000000E+00 -0.00000000000E+00 -0.17093870130E+04  0.17093870130E+04  0.50400000000E-02 0.  1.
    8880023    1    1    2    0    0  0.13142859695E+03 -0.82163200065E+03 -0.13498225271E+04  0.17170275715E+04  0.65864270000E+03 0.  1.
    8880022    1    1    2    0    0 -0.13142859695E+03  0.82163200065E+03  0.84094001135E+03  0.11928639387E+04  0.15294330000E+03 0.  0.
<mgrwt>
<rscale>  0 0.10027558E+04</rscale>
<asrwt>0</asrwt>
<pdfrwt beam="1">  1        1 0.18469300E+00 0.10612082E+04</pdfrwt>
<pdfrwt beam="2">  1       -1 0.26298262E+00 0.10612082E+04</pdfrwt>
<totfact> 0.61325233E-01</totfact>
</mgrwt>
</event>
<event>
 4    1  0.2514307E-008  0.9654399E+03  0.7818608E-02  0.9428239E-01
          1   -1    0    0  501    0  0.00000000000E+00  0.00000000000E+00  0.10424706256E+04  0.10424706256E+04  0.50400000000E-02 0. -1.
         -1   -1    0    0    0  501 -0.00000000000E+00 -0.00000000000E+00 -0.71475262079E+03  0.71475262080E+03  0.50400000000E-02 0.  1.
    8880023    1    1    2    0    0 -0.59057100464E+03  0.38663922422E+03  0.32856480811E+01  0.96544549457E+03  0.65864270000E+03 0.  0.
    8880022    1    1    2    0    0  0.59057100464E+03 -0.38663922422E+03  0.32443235676E+03  0.79177775187E+03  0.15294330000E+03 0.  1.
<mgrwt>
<rscale>  0 0.89787716E+03</rscale>
<asrwt>0</asrwt>
<pdfrwt beam="1">  1        1 0.16038010E+00 0.96543990E+03</pdfrwt>
<pdfrwt beam="2">  1       -1 0.10996194E+00 0.96543990E+03</pdfrwt>
<totfact> 0.10779902E+01</totfact>
</mgrwt>
</event>
<event>
 4    1  0.2514307E-008  0.1015085E+04  0.7818608E-02  0.9362083E-01
         -1   -1    0    0    0  501 -0.00000000000E+00  0.00000000000E+00  0.13039603908E+04  0.13039603908E+04  0.50400000000E-02 0.  1.
          1   -1    0    0  501    0  0.00000000000E+00 -0.00000000000E+00 -0.15675425025E+04  0.15675425025E+04  0.50400000000E-02 0. -1.
    8880023    1    1    2    0    0 -0.15634441023E+02  0.77223235563E+03  0.97261824486E+03  0.14058391456E+04  0.65864270000E+03 0.  1.
    8880022    1    1    2    0    0  0.15634441023E+02 -0.77223235563E+03 -0.12362003566E+04  0.14656637477E+04  0.15294330000E+03 0.  0.
<mgrwt>
<rscale>  0 0.95262923E+03</rscale>
<asrwt>0</asrwt>
<pdfrwt beam="1">  1        1 0.24116039E+00 0.10150849E+04</pdfrwt>
<pdfrwt beam="2">  1       -1 0.20060929E+00 0.10150849E+04</pdfrwt>
<totfact> 0.88047867E-01</totfact>
</mgrwt>
</event>
<event>
 4    1  0.2514307E-008  0.7782547E+03  0.7818608E-02  0.9759953E-01
          1   -1    0    0  501    0  0.00000000000E+00  0.00000000000E+00  0.78124763951E+03  0.78124763952E+03  0.50400000000E-02 0. -1.
         -1   -1    0    0    0  501 -0.00000000000E+00 -0.00000000000E+00 -0.48644002352E+03  0.48644002355E+03  0.50400000000E-02 0.  1.
    8880023    1    1    2    0    0 -0.40736948405E+03 -0.76943140883E+02  0.99585742732E+02  0.78460032493E+03  0.65864270000E+03 0.  0.
    8880022    1    1    2    0    0  0.40736948405E+03  0.76943140883E+02  0.19522187325E+03  0.48308733814E+03  0.15294330000E+03 0.  0.
<mgrwt>
<rscale>  0 0.67556706E+03</rscale>
<asrwt>0</asrwt>
<pdfrwt beam="1">  1        1 0.12019194E+00 0.77825468E+03</pdfrwt>
<pdfrwt beam="2">  1       -1 0.74836928E-01 0.77825468E+03</pdfrwt>
<totfact> 0.42110553E+01</totfact>
</mgrwt>
</event>
<event>
 4    1  0.2514307E-008  0.7802550E+03  0.7818608E-02  0.9755238E-01
         -1   -1    0    0    0  501 -0.00000000000E+00  0.00000000000E+00  0.78146095834E+03  0.78146095836E+03  0.50400000000E-02 0.  1.
          1   -1    0    0  501    0  0.00000000000E+00 -0.00000000000E+00 -0.15734637997E+04  0.15734637997E+04  0.50400000000E-02 0. -1.
    8880023    1    1    2    0    0  0.12006459523E+03  0.40071454781E+03  0.54101137307E+03  0.94946888728E+03  0.65864270000E+03 0.  1.
    8880022    1    1    2    0    0 -0.12006459523E+03 -0.40071454781E+03 -0.13330142144E+04  0.14054558708E+04  0.15294330000E+03 0.  0.
<mgrwt>
<rscale>  0 0.67821043E+03</rscale>
<asrwt>0</asrwt>
<pdfrwt beam="1">  1        1 0.24207135E+00 0.78025500E+03</pdfrwt>
<pdfrwt beam="2">  1       -1 0.12022476E+00 0.78025500E+03</pdfrwt>
<totfact> 0.37265291E+00</totfact>
</mgrwt>
</event>
<event>
 4    1  0.2514307E-008  0.8977928E+03  0.7818608E-02  0.9529584E-01
          1   -1    0    0  501    0  0.00000000000E+00  0.00000000000E+00  0.16789544622E+04  0.16789544622E+04  0.50400000000E-02 0. -1.
         -1   -1    0    0    0  501 -0.00000000000E+00 -0.00000000000E+00 -0.53373167790E+03  0.53373167792E+03  0.50400000000E-02 0.  1.
    8880023    1    1    2    0    0 -0.30673674269E+02  0.60932822582E+03 -0.94204643472E+01  0.89784225367E+03  0.65864270000E+03 0.  0.
    8880022    1    1    2    0    0  0.30673674269E+02 -0.60932822582E+03  0.11546432486E+04  0.13148438864E+04  0.15294330000E+03 0.  0.
<mgrwt>
<rscale>  0 0.82137405E+03</rscale>
<asrwt>0</asrwt>
<pdfrwt beam="1">  1        1 0.25830069E+00 0.89779283E+03</pdfrwt>
<pdfrwt beam="2">  1       -1 0.82112566E-01 0.89779283E+03</pdfrwt>
<totfact> 0.74160203E+00</totfact>
</mgrwt>
</event>
<event>
 4    1  0.2514307E-008  0.7533318E+03  0.7818608E-02  0.9822687E-01
          1   -1    0    0  501    0  0.00000000000E+00  0.00000000000E+00  0.91908473315E+03  0.91908473316E+03  0.50400000000E-02 0. -1.
         -1   -1    0    0    0  501 -0.00000000000E+00 -0.00000000000E+00 -0.35555527375E+04  0.35555527375E+04  0.50400000000E-02 0.  1.
    8880023    1    1    2    0    0  0.25540510936E+03 -0.26166168895E+03 -0.34704464779E+04  0.35512684454E+04  0.65864270000E+03 0.  1.
    8880022    1    1    2    0    0 -0.25540510936E+03  0.26166168895E+03  0.83397847356E+03  0.92336902522E+03  0.15294330000E+03 0.  0.
<mgrwt>
<rscale>  0 0.64159118E+03</rscale>
<asrwt>0</asrwt>
<pdfrwt beam="1">  1        1 0.14139765E+00 0.75333181E+03</pdfrwt>
<pdfrwt beam="2">  1       -1 0.54700811E+00 0.75333181E+03</pdfrwt>
<totfact> 0.14437508E-02</totfact>
</mgrwt>
</event>
<event>
 4    1  0.2514307E-008  0.1191108E+04  0.7818608E-02  0.9165815E-01
         -1   -1    0    0    0  501 -0.00000000000E+00  0.00000000000E+00  0.28680416549E+04  0.28680416549E+04  0.50400000000E-02 0.  1.
          1   -1    0    0  501    0  0.00000000000E+00 -0.00000000000E+00 -0.97202398452E+03  0.97202398453E+03  0.50400000000E-02 0. -1.
    8880023    1    1    2    0    0 -0.97996783714E+03  0.15681748766E+03  0.24274684509E+04  0.27039493288E+04  0.65864270000E+03 0.  0.
    8880022    1    1    2    0    0  0.97996783714E+03 -0.15681748766E+03 -0.53145078049E+03  0.11361163107E+04  0.15294330000E+03 0.  0.
<mgrwt>
<rscale>  0 0.11413353E+04</rscale>
<asrwt>0</asrwt>
<pdfrwt beam="1">  1        1 0.14954215E+00 0.11911083E+04</pdfrwt>
<pdfrwt beam="2">  1       -1 0.44123718E+00 0.11911083E+04</pdfrwt>
<totfact> 0.58832233E-02</totfact>
</mgrwt>
</event>
<event>
 4    1  0.2514307E-008  0.1090387E+04  0.7818608E-02  0.9271835E-01
         -1   -1    0    0    0  501 -0.00000000000E+00  0.00000000000E+00  0.11005812617E+04  0.11005812617E+04  0.50400000000E-02 0.  1.
          1   -1    0    0  501    0  0.00000000000E+00 -0.00000000000E+00 -0.14778302086E+04  0.14778302086E+04  0.50400000000E-02 0. -1.
    8880023    1    1    2    0    0 -0.71318867426E+03 -0.49648258996E+03  0.61397770391E+03  0.12513640055E+04  0.65864270000E+03 0.  1.
    8880022    1    1    2    0    0  0.71318867426E+03  0.49648258996E+03 -0.99122665081E+03  0.13270474647E+04  0.15294330000E+03 0.  0.
<mgrwt>
<rscale>  0 0.10341760E+04</rscale>
<asrwt>0</asrwt>
<pdfrwt beam="1">  1        1 0.22735849E+00 0.10903867E+04</pdfrwt>
<pdfrwt beam="2">  1       -1 0.16932019E+00 0.10903867E+04</pdfrwt>
<totfact> 0.16762319E+00</totfact>
</mgrwt>
</event>
<event>
 4    1  0.2514307E-008  0.9458530E+03  0.7818608E-02  0.9456106E-01
          1   -1    0    0  501    0  0.00000000000E+00  0.00000000000E+00  0.19095811673E+04  0.19095811673E+04  0.50400000000E-02 0. -1.
         -1   -1    0    0    0  501 -0.00000000000E+00 -0.00000000000E+00 -0.75422394154E+03  0.75422394155E+03  0.50400000000E-02 0.  1.
    8880023    1    1    2    0    0 -0.12341675972E+03 -0.66752976230E+03 -0.34749808023E+03  0.10076670096E+04  0.65864270000E+03 0.  0.
    8880022    1    1    2    0    0  0.12341675972E+03  0.66752976230E+03  0.15028553060E+04  0.16561380993E+04  0.15294330000E+03 0.  0.
<mgrwt>
<rscale>  0 0.87598768E+03</rscale>
<asrwt>0</asrwt>
<pdfrwt beam="1">  1        1 0.29378172E+00 0.94585299E+03</pdfrwt>
<pdfrwt beam="2">  1       -1 0.11603445E+00 0.94585299E+03</pdfrwt>
<totfact> 0.23468193E+00</totfact>
</mgrwt>
</event>
<event>
 4    1  0.2514307E-008  0.7242757E+03  0.7818608E-02  0.9908375E-01
          1   -1    0    0  501    0  0.00000000000E+00  0.00000000000E+00  0.84430889022E+03  0.84430889024E+03  0.50400000000E-02 0. -1.
         -1   -1    0    0    0  501 -0.00000000000E+00 -0.00000000000E+00 -0.72659482988E+03  0.72659482989E+03  0.50400000000E-02 0.  1.
    8880023    1    1    2    0    0 -0.24320752487E+03 -0.17780673071E+03 -0.49078353202E+03  0.87489645970E+03  0.65864270000E+03 0.  1.
    8880022    1    1    2    0    0  0.24320752487E+03  0.17780673071E+03  0.60849759236E+03  0.69600726043E+03  0.15294330000E+03 0.  0.
<mgrwt>
<rscale>  0 0.59857100E+03</rscale>
<asrwt>0</asrwt>
<pdfrwt beam="1">  1        1 0.12989367E+00 0.72427573E+03</pdfrwt>
<pdfrwt beam="2">  1       -1 0.11178382E+00 0.72427573E+03</pdfrwt>
<totfact> 0.15359660E+01</totfact>
</mgrwt>
</event>
<event>
 4    1  0.2514307E-008  0.7065128E+03  0.7818608E-02  0.9971185E-01
          1   -1    0    0  501    0  0.00000000000E+00  0.00000000000E+00  0.69653775008E+03  0.69653775010E+03  0.50400000000E-02 0. -1.
         -1   -1    0    0    0  501 -0.00000000000E+00 -0.00000000000E+00 -0.16385406864E+04  0.16385406864E+04  0.50400000000E-02 0.  1.
    8880023    1    1    2    0    0 -0.24253217966E+03  0.80798082096E+02 -0.15248176750E+04  0.16805443572E+04  0.65864270000E+03 0.  1.
    8880022    1    1    2    0    0  0.24253217966E+03 -0.80798082096E+02  0.58281473872E+03  0.65453407927E+03  0.15294330000E+03 0.  0.
<mgrwt>
<rscale>  0 0.56931955E+03</rscale>
<asrwt>0</asrwt>
<pdfrwt beam="1">  1        1 0.10715965E+00 0.70651284E+03</pdfrwt>
<pdfrwt beam="2">  1       -1 0.25208318E+00 0.70651284E+03</pdfrwt>
<totfact> 0.19562446E+00</totfact>
</mgrwt>
</event>
<event>
 4    1  0.2514307E-008  0.1151083E+04  0.7818608E-02  0.9206205E-01
         -1   -1    0    0    0  501 -0.00000000000E+00  0.00000000000E+00  0.82663375482E+03  0.82663375483E+03  0.50400000000E-02 0.  1.
          1   -1    0    0  501    0  0.00000000000E+00 -0.00000000000E+00 -0.28128470079E+04  0.28128470079E+04  0.50400000000E-02 0. -1.
    8880023    1    1    2    0    0  0.92321883415E+03  0.19710107129E+03  0.27575841154E+03  0.11836531400E+04  0.65864270000E+03 0.  0.
    8880022    1    1    2    0    0 -0.92321883415E+03 -0.19710107129E+03 -0.22619716646E+04  0.24558276227E+04  0.15294330000E+03 0.  0.
<mgrwt>
<rscale>  0 0.10989611E+04</rscale>
<asrwt>0</asrwt>
<pdfrwt beam="1">  1        1 0.43274569E+00 0.11510830E+04</pdfrwt>
<pdfrwt beam="2">  1       -1 0.12717443E+00 0.11510830E+04</pdfrwt>
<totfact> 0.43689771E-01</totfact>
</mgrwt>
</event>
<event>
 4    1  0.2514307E-008  0.9630992E+03  0.7818608E-02  0.9431513E-01
          1   -1    0    0  501    0  0.00000000000E+00  0.00000000000E+00  0.89754165861E+03  0.89754165863E+03  0.50400000000E-02 0. -1.
         -1   -1    0    0    0  501 -0.00000000000E+00 -0.00000000000E+00 -0.16237339837E+04  0.16237339837E+04  0.50400000000E-02 0.  1.
    8880023    1    1    2    0    0  0.13298860727E+03 -0.68997379707E+03 -0.12883194208E+04  0.16085170023E+04  0.65864270000E+03 0.  0.
    8880022    1    1    2    0    0 -0.13298860727E+03  0.68997379707E+03  0.56212709570E+03  0.91275864008E+03  0.15294330000E+03 0.  0.
<mgrwt>
<rscale>  0 0.89527082E+03</rscale>
<asrwt>0</asrwt>
<pdfrwt beam="1">  1        1 0.13808333E+00 0.96309917E+03</pdfrwt>
<pdfrwt beam="2">  1       -1 0.24980523E+00 0.96309917E+03</pdfrwt>
<totfact> 0.12953532E+00</totfact>
</mgrwt>
</event>
<event>
 4    1  0.2514307E-008  0.7693963E+03  0.7818608E-02  0.9781362E-01
         -1   -1    0    0    0  501 -0.00000000000E+00  0.00000000000E+00  0.65434996242E+03  0.65434996244E+03  0.50400000000E-02 0.  1.
          1   -1    0    0  501    0  0.00000000000E+00 -0.00000000000E+00 -0.70086574813E+03  0.70086574814E+03  0.50400000000E-02 0. -1.
    8880023    1    1    2    0    0  0.39763370796E+03  0.69151731482E+01  0.27962565516E+03  0.81863367791E+03  0.65864270000E+03 0.  0.
    8880022    1    1    2    0    0 -0.39763370796E+03 -0.69151731482E+01 -0.32614144086E+03  0.53658203267E+03  0.15294330000E+03 0.  1.
<mgrwt>
<rscale>  0 0.66372426E+03</rscale>
<asrwt>0</asrwt>
<pdfrwt beam="1">  1        1 0.10782550E+00 0.76939625E+03</pdfrwt>
<pdfrwt beam="2">  1       -1 0.10066922E+00 0.76939625E+03</pdfrwt>
<totfact> 0.26124014E+01</totfact>
</mgrwt>
</event>
<event>
 4    1  0.2514307E-008  0.7483847E+03  0.7818608E-02  0.9836163E-01
         -1   -1    0    0    0  501 -0.00000000000E+00  0.00000000000E+00  0.48494707826E+03  0.48494707828E+03  0.50400000000E-02 0.  1.
          1   -1    0    0  501    0  0.00000000000E+00 -0.00000000000E+00 -0.29678426877E+04  0.29678426877E+04  0.50400000000E-02 0. -1.
    8880023    1    1    2    0    0  0.32787249779E+03 -0.13700028884E+03  0.17361437597E+03  0.76825881821E+03  0.65864270000E+03 0.  0.
    8880022    1    1    2    0    0 -0.32787249779E+03  0.13700028884E+03 -0.26565099854E+04  0.26845309478E+04  0.15294330000E+03 0.  0.
<mgrwt>
<rscale>  0 0.63457403E+03</rscale>
<asrwt>0</asrwt>
<pdfrwt beam="1">  1        1 0.45659117E+00 0.74838470E+03</pdfrwt>
<pdfrwt beam="2">  1       -1 0.74607245E-01 0.74838470E+03</pdfrwt>
<totfact> 0.12285461E+00</totfact>
</mgrwt>
</event>
<event>
 4    1  0.2514307E-008  0.9318520E+03  0.7818608E-02  0.9476720E-01
          1   -1    0    0  501    0  0.00000000000E+00  0.00000000000E+00  0.16780922442E+04  0.16780922442E+04  0.50400000000E-02 0. -1.
         -1   -1    0    0    0  501 -0.00000000000E+00 -0.00000000000E+00 -0.98723850445E+03  0.98723850446E+03  0.50400000000E-02 0.  1.
    8880023    1    1    2    0    0  0.39231923734E+03  0.52973919682E+03 -0.66850978714E+03  0.11468450385E+04  0.65864270000E+03 0.  1.
    8880022    1    1    2    0    0 -0.39231923734E+03 -0.52973919682E+03  0.13593635269E+04  0.15184857101E+04  0.15294330000E+03 0.  0.
<mgrwt>
<rscale>  0 0.86022104E+03</rscale>
<asrwt>0</asrwt>
<pdfrwt beam="1">  1        1 0.25816804E+00 0.93185203E+03</pdfrwt>
<pdfrwt beam="2">  1       -1 0.15188285E+00 0.93185203E+03</pdfrwt>
<totfact> 0.16933312E+00</totfact>
</mgrwt>
</event>
<event>
 4    1  0.2514307E-008  0.9274154E+03  0.7818608E-02  0.9483381E-01
          1   -1    0    0  501    0  0.00000000000E+00  0.00000000000E+00  0.76154148662E+03  0.76154148664E+03  0.50400000000E-02 0. -1.
         -1   -1    0    0    0  501 -0.00000000000E+00 -0.00000000000E+00 -0.87761936864E+03  0.87761936866E+03  0.50400000000E-02 0.  1.
    8880023    1    1    2    0    0 -0.35803859101E+03  0.54598308787E+03  0.10437690445E+03  0.93327054456E+03  0.65864270000E+03 0.  0.
    8880022    1    1    2    0    0  0.35803859101E+03 -0.54598308787E+03 -0.22045478647E+03  0.70589031074E+03  0.15294330000E+03 0.  0.
<mgrwt>
<rscale>  0 0.85520215E+03</rscale>
<asrwt>0</asrwt>
<pdfrwt beam="1">  1        1 0.11716023E+00 0.92741543E+03</pdfrwt>
<pdfrwt beam="2">  1       -1 0.13501836E+00 0.92741543E+03</pdfrwt>
<totfact> 0.11115642E+01</totfact>
</mgrwt>
</event>
<event>
 4    1  0.2514307E-008  0.7896462E+03  0.7818608E-02  0.9733647E-01
          1   -1    0    0  501    0  0.00000000000E+00  0.00000000000E+00  0.79673383034E+03  0.79673383036E+03  0.50400000000E-02 0. -1.
         -1   -1    0    0    0  501 -0.00000000000E+00 -0.00000000000E+00 -0.73593361343E+03  0.73593361345E+03  0.50400000000E-02 0.  1.
    8880023    1    1    2    0    0  0.42269632102E+03 -0.10516072185E+03 -0.39585783361E+03  0.88331454642E+03  0.65864270000E+03 0.  1.
    8880022    1    1    2    0    0 -0.42269632102E+03  0.10516072185E+03  0.45665805052E+03  0.64935289739E+03  0.15294330000E+03 0.  0.
<mgrwt>
<rscale>  0 0.69048320E+03</rscale>
<asrwt>0</asrwt>
<pdfrwt beam="1">  1        1 0.12257443E+00 0.78964623E+03</pdfrwt>
<pdfrwt beam="2">  1       -1 0.11322056E+00 0.78964623E+03</pdfrwt>
<totfact> 0.16234918E+01</totfact>
</mgrwt>
</event>
<event>
 4    1  0.2514307E-008  0.8267582E+03  0.7818608E-02  0.9655673E-01
          1   -1    0    0  501    0  0.00000000000E+00  0.00000000000E+00  0.78185501036E+03  0.78185501038E+03  0.50400000000E-02 0. -1.
         -1   -1    0    0    0  501 -0.00000000000E+00 -0.00000000000E+00 -0.80343737819E+03  0.80343737821E+03  0.50400000000E-02 0.  1.
    8880023    1    1    2    0    0 -0.48462513478E+03  0.12189061686E+03 -0.42077181436E+03  0.92767341762E+03  0.65864270000E+03 0.  1.
    8880022    1    1    2    0    0  0.48462513478E+03 -0.12189061686E+03  0.39918944653E+03  0.65761897097E+03  0.15294330000E+03 0.  0.
<mgrwt>
<rscale>  0 0.73718445E+03</rscale>
<asrwt>0</asrwt>
<pdfrwt beam="1">  1        1 0.12028539E+00 0.82675816E+03</pdfrwt>
<pdfrwt beam="2">  1       -1 0.12360575E+00 0.82675816E+03</pdfrwt>
<totfact> 0.13463931E+01</totfact>
</mgrwt>
</event>
<event>
 4    1  0.2514307E-008  0.1426075E+04  0.7818608E-02  0.8963682E-01
          1   -1    0    0  501    0  0.00000000000E+00  0.00000000000E+00  0.25524261622E+04  0.25524261622E+04  0.50400000000E-02 0. -1.
         -1   -1    0    0    0  501 -0.00000000000E+00 -0.00000000000E+00 -0.10431424013E+04  0.10431424013E+04  0.50400000000E-02 0.  1.
    8880023    1    1    2    0    0 -0.23082419714E+03 -0.12436239075E+04 -0.22486906763E+03  0.14436954448E+04  0.65864270000E+03 0.  0.
    8880022    1    1    2    0    0  0.23082419714E+03  0.12436239075E+04  0.17341528286E+04  0.21518731188E+04  0.15294330000E+03 0.  0.
<mgrwt>
<rscale>  0 0.13864548E+04</rscale>
<asrwt>0</asrwt>
<pdfrwt beam="1">  1        1 0.39268095E+00 0.14260752E+04</pdfrwt>
<pdfrwt beam="2">  1       -1 0.16048345E+00 0.14260752E+04</pdfrwt>
<totfact> 0.34558658E-01</totfact>
</mgrwt>
</event>
<event>
 4    1  0.2514307E-008  0.1026259E+04  0.7818608E-02  0.9347981E-01
          1   -1    0    0  501    0  0.00000000000E+00  0.00000000000E+00  0.22674499620E+04  0.22674499620E+04  0.50400000000E-02 0. -1.
         -1   -1    0    0    0  501 -0.00000000000E+00 -0.00000000000E+00 -0.93323465674E+03  0.93323465675E+03  0.50400000000E-02 0.  1.
    8880023    1    1    2    0    0 -0.34811038431E+03  0.70584434702E+03 -0.54182495584E+03  0.11605091861E+04  0.65864270000E+03 0.  0.
    8880022    1    1    2    0    0  0.34811038431E+03 -0.70584434702E+03  0.18760402611E+04  0.20401754327E+04  0.15294330000E+03 0.  0.
<mgrwt>
<rscale>  0 0.96483095E+03</rscale>
<asrwt>0</asrwt>
<pdfrwt beam="1">  1        1 0.34883845E+00 0.10262589E+04</pdfrwt>
<pdfrwt beam="2">  1       -1 0.14357456E+00 0.10262589E+04</pdfrwt>
<totfact> 0.77646525E-01</totfact>
</mgrwt>
</event>
<event>
 4    1  0.2514307E-008  0.1257650E+04  0.7818608E-02  0.9103022E-01
         -1   -1    0    0    0  501 -0.00000000000E+00  0.00000000000E+00  0.10259694847E+04  0.10259694847E+04  0.50400000000E-02 0.  1.
          1   -1    0    0  501    0  0.00000000000E+00 -0.00000000000E+00 -0.15762249882E+04  0.15762249882E+04  0.50400000000E-02 0. -1.
    8880023    1    1    2    0    0  0.51154602587E+03 -0.94137931438E+03 -0.80127241401E+03  0.14912149536E+04  0.65864270000E+03 0.  0.
    8880022    1    1    2    0    0 -0.51154602587E+03  0.94137931438E+03  0.25101691051E+03  0.11109795194E+04  0.15294330000E+03 0.  0.
<mgrwt>
<rscale>  0 0.12113005E+04</rscale>
<asrwt>0</asrwt>
<pdfrwt beam="1">  1        1 0.24249615E+00 0.12576504E+04</pdfrwt>
<pdfrwt beam="2">  1       -1 0.15784146E+00 0.12576504E+04</pdfrwt>
<totfact> 0.17134788E+00</totfact>
</mgrwt>
</event>
<event>
 4    1  0.2514307E-008  0.2073437E+04  0.7818608E-02  0.8584686E-01
          1   -1    0    0  501    0  0.00000000000E+00  0.00000000000E+00  0.30390884067E+04  0.30390884067E+04  0.50400000000E-02 0. -1.
         -1   -1    0    0    0  501 -0.00000000000E+00 -0.00000000000E+00 -0.17059281850E+04  0.17059281850E+04  0.50400000000E-02 0.  1.
    8880023    1    1    2    0    0  0.17660424686E+04  0.86395764622E+03 -0.40935802117E+03  0.21134599620E+04  0.65864270000E+03 0.  0.
    8880022    1    1    2    0    0 -0.17660424686E+04 -0.86395764622E+03  0.17425182428E+04  0.26315566296E+04  0.15294330000E+03 0.  0.
<mgrwt>
<rscale>  0 0.20475942E+04</rscale>
<asrwt>0</asrwt>
<pdfrwt beam="1">  1        1 0.46755206E+00 0.20734365E+04</pdfrwt>
<pdfrwt beam="2">  1       -1 0.26245049E+00 0.20734365E+04</pdfrwt>
<totfact> 0.28528372E-02</totfact>
</mgrwt>
</event>
<event>
 4    1  0.2514307E-008  0.7362971E+03  0.7818608E-02  0.9870868E-01
          1   -1    0    0  501    0  0.00000000000E+00  0.00000000000E+00  0.12414246779E+04  0.12414246779E+04  0.50400000000E-02 0. -1.
         -1   -1    0    0    0  501 -0.00000000000E+00 -0.00000000000E+00 -0.27153438591E+03  0.27153438595E+03  0.50400000000E-02 0.  1.
    8880023    1    1    2    0    0 -0.28941814692E+03 -0.15671734442E+03  0.40168562497E+03  0.83873997006E+03  0.65864270000E+03 0. -1.
    8880022    1    1    2    0    0  0.28941814692E+03  0.15671734442E+03  0.56820466704E+03  0.67421909381E+03  0.15294330000E+03 0.  0.
<mgrwt>
<rscale>  0 0.61694173E+03</rscale>
<asrwt>0</asrwt>
<pdfrwt beam="1">  1        1 0.19098841E+00 0.73629708E+03</pdfrwt>
<pdfrwt beam="2">  1       -1 0.41774521E-01 0.73629708E+03</pdfrwt>
<totfact> 0.57524108E+01</totfact>
</mgrwt>
</event>
<event>
 4    1  0.2514307E-008  0.7438661E+03  0.7818608E-02  0.9848825E-01
         -1   -1    0    0    0  501 -0.00000000000E+00  0.00000000000E+00  0.53439893836E+03  0.53439893839E+03  0.50400000000E-02 0.  1.
          1   -1    0    0  501    0  0.00000000000E+00 -0.00000000000E+00 -0.14767011342E+04  0.14767011342E+04  0.50400000000E-02 0. -1.
    8880023    1    1    2    0    0  0.23769429829E+01  0.34571802283E+03  0.23059070160E+03  0.77878679951E+03  0.65864270000E+03 0.  1.
    8880022    1    1    2    0    0 -0.23769429829E+01 -0.34571802283E+03 -0.11728928975E+04  0.12323132731E+04  0.15294330000E+03 0.  0.
<mgrwt>
<rscale>  0 0.62806855E+03</rscale>
<asrwt>0</asrwt>
<pdfrwt beam="1">  1        1 0.22718479E+00 0.74386612E+03</pdfrwt>
<pdfrwt beam="2">  1       -1 0.82215222E-01 0.74386612E+03</pdfrwt>
<totfact> 0.10378596E+01</totfact>
</mgrwt>
</event>
<event>
 4    1  0.2514307E-008  0.1608092E+04  0.7818608E-02  0.8836854E-01
          1   -1    0    0  501    0  0.00000000000E+00  0.00000000000E+00  0.24302641209E+04  0.24302641209E+04  0.50400000000E-02 0. -1.
         -1   -1    0    0    0  501 -0.00000000000E+00 -0.00000000000E+00 -0.10897086029E+04  0.10897086029E+04  0.50400000000E-02 0.  1.
    8880023    1    1    2    0    0 -0.10710312276E+04 -0.10025169880E+04  0.13271697074E+03  0.16135588624E+04  0.65864270000E+03 0.  1.
    8880022    1    1    2    0    0  0.10710312276E+04  0.10025169880E+04  0.12078385472E+04  0.19064138614E+04  0.15294330000E+03 0.  0.
<mgrwt>
<rscale>  0 0.15737254E+04</rscale>
<asrwt>0</asrwt>
<pdfrwt beam="1">  1        1 0.37388678E+00 0.16080915E+04</pdfrwt>
<pdfrwt beam="2">  1       -1 0.16764748E+00 0.16080915E+04</pdfrwt>
<totfact> 0.36323810E-01</totfact>
</mgrwt>
</event>
<event>
 4    1  0.2514307E-008  0.8447850E+03  0.7818608E-02  0.9621223E-01
         -1   -1    0    0    0  501 -0.00000000000E+00  0.00000000000E+00  0.11208276906E+04  0.11208276906E+04  0.50400000000E-02 0.  1.
          1   -1    0    0  501    0  0.00000000000E+00 -0.00000000000E+00 -0.18042090668E+04  0.18042090668E+04  0.50400000000E-02 0. -1.
    8880023    1    1    2    0    0  0.33188758061E+03  0.41194912977E+03  0.90851268876E+03  0.12405873462E+04  0.65864270000E+03 0.  0.
    8880022    1    1    2    0    0 -0.33188758061E+03 -0.41194912977E+03 -0.15918940650E+04  0.16844494112E+04  0.15294330000E+03 0.  0.
<mgrwt>
<rscale>  0 0.75907293E+03</rscale>
<asrwt>0</asrwt>
<pdfrwt beam="1">  1        1 0.27757062E+00 0.84478498E+03</pdfrwt>
<pdfrwt beam="2">  1       -1 0.17243503E+00 0.84478498E+03</pdfrwt>
<totfact> 0.99031718E-01</totfact>
</mgrwt>
</event>
<event>
 4    1  0.2514307E-008  0.7387983E+03  0.7818608E-02  0.9863461E-01
          1   -1    0    0  501    0  0.00000000000E+00  0.00000000000E+00  0.19832851217E+04  0.19832851217E+04  0.50400000000E-02 0. -1.
         -1   -1    0    0    0  501 -0.00000000000E+00 -0.00000000000E+00 -0.40204138766E+03  0.40204138770E+03  0.50400000000E-02 0.  1.
    8880023    1    1    2    0    0  0.15176532380E+03  0.29829520513E+03 -0.23263965579E+02  0.73916450217E+03  0.65864270000E+03 0.  0.
    8880022    1    1    2    0    0 -0.15176532380E+03 -0.29829520513E+03  0.16045076996E+04  0.16461620072E+04  0.15294330000E+03 0.  0.
<mgrwt>
<rscale>  0 0.62065251E+03</rscale>
<asrwt>0</asrwt>
<pdfrwt beam="1">  1        1 0.30512078E+00 0.73879831E+03</pdfrwt>
<pdfrwt beam="2">  1       -1 0.61852522E-01 0.73879831E+03</pdfrwt>
<totfact> 0.85031578E+00</totfact>
</mgrwt>
</event>
<event>
 4    1  0.2514307E-008  0.7685409E+03  0.7818608E-02  0.9783478E-01
          1   -1    0    0  501    0  0.00000000000E+00  0.00000000000E+00  0.12499381090E+04  0.12499381090E+04  0.50400000000E-02 0. -1.
         -1   -1    0    0    0  501 -0.00000000000E+00 -0.00000000000E+00 -0.44147637930E+03  0.44147637933E+03  0.50400000000E-02 0.  1.
    8880023    1    1    2    0    0 -0.39591387153E+03  0.98539045422E+01 -0.10877675539E+02  0.76861786552E+03  0.65864270000E+03 0.  0.
    8880022    1    1    2    0    0  0.39591387153E+03 -0.98539045422E+01  0.81933940522E+03  0.92279662281E+03  0.15294330000E+03 0.  0.
<mgrwt>
<rscale>  0 0.66256820E+03</rscale>
<asrwt>0</asrwt>
<pdfrwt beam="1">  1        1 0.19229817E+00 0.76854089E+03</pdfrwt>
<pdfrwt beam="2">  1       -1 0.67919444E-01 0.76854089E+03</pdfrwt>
<totfact> 0.22191015E+01</totfact>
</mgrwt>
</event>
<event>
 4    1  0.2514307E-008  0.2369111E+04  0.7818608E-02  0.8459721E-01
         -1   -1    0    0    0  501 -0.00000000000E+00  0.00000000000E+00  0.21687692464E+04  0.21687692464E+04  0.50400000000E-02 0.  1.
          1   -1    0    0  501    0  0.00000000000E+00 -0.00000000000E+00 -0.27974473223E+04  0.27974473223E+04  0.50400000000E-02 0. -1.
    8880023    1    1    2    0    0  0.43621542531E+03  0.22335160154E+04  0.50012781384E+03  0.24213252001E+04  0.65864270000E+03 0.  1.
    8880022    1    1    2    0    0 -0.43621542531E+03 -0.22335160154E+04 -0.11288058898E+04  0.25448913686E+04  0.15294330000E+03 0.  0.
<mgrwt>
<rscale>  0 0.23467303E+04</rscale>
<asrwt>0</asrwt>
<pdfrwt beam="1">  1        1 0.43037651E+00 0.23691112E+04</pdfrwt>
<pdfrwt beam="2">  1       -1 0.33365681E+00 0.23691112E+04</pdfrwt>
<totfact> 0.14194810E-02</totfact>
</mgrwt>
</event>
<event>
 4    1  0.2514307E-008  0.9188332E+03  0.7818608E-02  0.9496450E-01
          1   -1    0    0  501    0  0.00000000000E+00  0.00000000000E+00  0.17168633886E+04  0.17168633886E+04  0.50400000000E-02 0. -1.
         -1   -1    0    0    0  501 -0.00000000000E+00 -0.00000000000E+00 -0.11929997074E+04  0.11929997074E+04  0.50400000000E-02 0.  1.
    8880023    1    1    2    0    0 -0.48642447066E+03 -0.41693575353E+03 -0.93394925834E+03  0.13101586208E+04  0.65864270000E+03 0.  1.
    8880022    1    1    2    0    0  0.48642447066E+03  0.41693575353E+03  0.14578129396E+04  0.15997044752E+04  0.15294330000E+03 0.  0.
<mgrwt>
<rscale>  0 0.84546022E+03</rscale>
<asrwt>0</asrwt>
<pdfrwt beam="1">  1        1 0.26413283E+00 0.91883317E+03</pdfrwt>
<pdfrwt beam="2">  1       -1 0.18353842E+00 0.91883317E+03</pdfrwt>
<totfact> 0.93123418E-01</totfact>
</mgrwt>
</event>
<event>
 4    1  0.2514307E-008  0.6779701E+03  0.7818608E-02  0.1010496E+00
          1   -1    0    0  501    0  0.00000000000E+00  0.00000000000E+00  0.12880540352E+04  0.12880540352E+04  0.50400000000E-02 0. -1.
         -1   -1    0    0    0  501 -0.00000000000E+00 -0.00000000000E+00 -0.24321278044E+04  0.24321278044E+04  0.50400000000E-02 0.  1.
    8880023    1    1    2    0    0 -0.62029398426E+01  0.16060772338E+03 -0.23747677788E+04  0.24696488671E+04  0.65864270000E+03 0.  1.
    8880022    1    1    2    0    0  0.62029398426E+01 -0.16060772338E+03  0.12306940095E+04  0.12505329725E+04  0.15294330000E+03 0.  0.
<mgrwt>
<rscale>  0 0.51278004E+03</rscale>
<asrwt>0</asrwt>
<pdfrwt beam="1">  1        1 0.19816216E+00 0.67797015E+03</pdfrwt>
<pdfrwt beam="2">  1       -1 0.37417351E+00 0.67797015E+03</pdfrwt>
<totfact> 0.10929182E-01</totfact>
</mgrwt>
</event>
<event>
 4    1  0.2514307E-008  0.9172452E+03  0.7818608E-02  0.9498896E-01
         -1   -1    0    0    0  501 -0.00000000000E+00  0.00000000000E+00  0.73396405385E+03  0.73396405386E+03  0.50400000000E-02 0.  1.
          1   -1    0    0  501    0  0.00000000000E+00 -0.00000000000E+00 -0.22464379999E+04  0.22464379999E+04  0.50400000000E-02 0. -1.
    8880023    1    1    2    0    0 -0.63586832069E+03  0.56568513973E+02  0.36825091662E+03  0.98840652663E+03  0.65864270000E+03 0.  0.
    8880022    1    1    2    0    0  0.63586832069E+03 -0.56568513973E+02 -0.18807248627E+04  0.19919955271E+04  0.15294330000E+03 0.  0.
<mgrwt>
<rscale>  0 0.84365266E+03</rscale>
<asrwt>0</asrwt>
<pdfrwt beam="1">  1        1 0.34560584E+00 0.91724518E+03</pdfrwt>
<pdfrwt beam="2">  1       -1 0.11291755E+00 0.91724518E+03</pdfrwt>
<totfact> 0.14928626E+00</totfact>
</mgrwt>
</event>
<event>
 4    1  0.2514307E-008  0.1198625E+04  0.7818608E-02  0.9158460E-01
         -1   -1    0    0    0  501 -0.00000000000E+00  0.00000000000E+00  0.13194986577E+04  0.13194986577E+04  0.50400000000E-02 0.  1.
          1   -1    0    0  501    0  0.00000000000E+00 -0.00000000000E+00 -0.22158555688E+04  0.22158555688E+04  0.50400000000E-02 0. -1.
    8880023    1    1    2    0    0 -0.99142509671E+03 -0.14130501617E+03  0.88236125847E+03  0.14883757680E+04  0.65864270000E+03 0.  0.
    8880022    1    1    2    0    0  0.99142509671E+03  0.14130501617E+03 -0.17787181696E+04  0.20469784586E+04  0.15294330000E+03 0.  0.
<mgrwt>
<rscale>  0 0.11492665E+04</rscale>
<asrwt>0</asrwt>
<pdfrwt beam="1">  1        1 0.34090086E+00 0.11986246E+04</pdfrwt>
<pdfrwt beam="2">  1       -1 0.20299979E+00 0.11986246E+04</pdfrwt>
<totfact> 0.29988791E-01</totfact>
</mgrwt>
</event>
<event>
 4    1  0.2689896E-008  0.1113041E+04  0.7818608E-02  0.9246674E-01
          1   -1    0    0  501    0  0.00000000000E+00  0.00000000000E+00  0.21587502976E+04  0.21587502976E+04  0.50400000000E-02 0. -1.
         -1   -1    0    0    0  501 -0.00000000000E+00 -0.00000000000E+00 -0.14517648039E+04  0.14517648039E+04  0.50400000000E-02 0.  1.
    8880023    1    1    2    0    0 -0.48923787525E+03 -0.75212807013E+03 -0.11139823469E+04  0.15747435372E+04  0.65864270000E+03 0.  0.
    8880022    1    1    2    0    0  0.48923787525E+03  0.75212807013E+03  0.18209678406E+04  0.20357715643E+04  0.15294330000E+03 0.  0.
<mgrwt>
<rscale>  0 0.10584398E+04</rscale>
<asrwt>0</asrwt>
<pdfrwt beam="1">  1        1 0.33211543E+00 0.11130411E+04</pdfrwt>
<pdfrwt beam="2">  1       -1 0.22334843E+00 0.11130411E+04</pdfrwt>
<totfact> 0.24211609E-01</totfact>
</mgrwt>
</event>
<event>
 4    1  0.2514307E-008  0.7049221E+03  0.7818608E-02  0.9977364E-01
          1   -1    0    0  501    0  0.00000000000E+00  0.00000000000E+00  0.15363210979E+04  0.15363210979E+04  0.50400000000E-02 0. -1.
         -1   -1    0    0    0  501 -0.00000000000E+00 -0.00000000000E+00 -0.66988884219E+03  0.66988884221E+03  0.50400000000E-02 0.  1.
    8880023    1    1    2    0    0 -0.97849960551E+01 -0.25101638054E+03 -0.46382464801E+03  0.84382965094E+03  0.65864270000E+03 0.  1.
    8880022    1    1    2    0    0  0.97849960551E+01  0.25101638054E+03  0.13302569037E+04  0.13623802892E+04  0.15294330000E+03 0.  0.
<mgrwt>
<rscale>  0 0.56654021E+03</rscale>
<asrwt>0</asrwt>
<pdfrwt beam="1">  1        1 0.23635709E+00 0.70492211E+03</pdfrwt>
<pdfrwt beam="2">  1       -1 0.10305982E+00 0.70492211E+03</pdfrwt>
<totfact> 0.57618972E+00</totfact>
</mgrwt>
</event>
<event>
 4    1  0.2514307E-008  0.6712361E+03  0.7818608E-02  0.1014792E+00
         -1   -1    0    0    0  501 -0.00000000000E+00  0.00000000000E+00  0.44465055432E+03  0.44465055435E+03  0.50400000000E-02 0.  1.
          1   -1    0    0  501    0  0.00000000000E+00 -0.00000000000E+00 -0.12504850136E+04  0.12504850136E+04  0.50400000000E-02 0. -1.
    8880023    1    1    2    0    0  0.12597918926E+03  0.29612330698E+02  0.17530427244E+03  0.69375027240E+03  0.65864270000E+03 0.  1.
    8880022    1    1    2    0    0 -0.12597918926E+03 -0.29612330698E+02 -0.98113873174E+03  0.10013852956E+04  0.15294330000E+03 0.  0.
<mgrwt>
<rscale>  0 0.49613822E+03</rscale>
<asrwt>0</asrwt>
<pdfrwt beam="1">  1        1 0.19238231E+00 0.67123606E+03</pdfrwt>
<pdfrwt beam="2">  1       -1 0.68407778E-01 0.67123606E+03</pdfrwt>
<totfact> 0.22128725E+01</totfact>
</mgrwt>
</event>
<event>
 4    1  0.2514307E-008  0.6788942E+03  0.7818608E-02  0.1009956E+00
         -1   -1    0    0    0  501 -0.00000000000E+00  0.00000000000E+00  0.10089753926E+04  0.10089753926E+04  0.50400000000E-02 0.  1.
          1   -1    0    0  501    0  0.00000000000E+00 -0.00000000000E+00 -0.55416945096E+03  0.55416945098E+03  0.50400000000E-02 0. -1.
    8880023    1    1    2    0    0  0.14775225345E+03  0.72501143378E+02  0.86250371363E+03  0.10976383769E+04  0.65864270000E+03 0.  1.
    8880022    1    1    2    0    0 -0.14775225345E+03 -0.72501143378E+02 -0.40769777200E+03  0.46550646666E+03  0.15294330000E+03 0.  0.
<mgrwt>
<rscale>  0 0.51492053E+03</rscale>
<asrwt>0</asrwt>
<pdfrwt beam="1">  1        1 0.85256839E-01 0.67889421E+03</pdfrwt>
<pdfrwt beam="2">  1       -1 0.15522698E+00 0.67889421E+03</pdfrwt>
<totfact> 0.12665501E+01</totfact>
</mgrwt>
</event>
<event>
 4    1  0.2514307E-008  0.9277516E+03  0.7818608E-02  0.9482874E-01
         -1   -1    0    0    0  501 -0.00000000000E+00  0.00000000000E+00  0.10988264390E+04  0.10988264390E+04  0.50400000000E-02 0.  1.
          1   -1    0    0  501    0  0.00000000000E+00 -0.00000000000E+00 -0.15325165904E+04  0.15325165904E+04  0.50400000000E-02 0. -1.
    8880023    1    1    2    0    0 -0.15306862026E+03  0.63520294435E+03  0.80125239603E+03  0.12258582265E+04  0.65864270000E+03 0.  0.
    8880022    1    1    2    0    0  0.15306862026E+03 -0.63520294435E+03 -0.12349425474E+04  0.14054848030E+04  0.15294330000E+03 0.  0.
<mgrwt>
<rscale>  0 0.85558282E+03</rscale>
<asrwt>0</asrwt>
<pdfrwt beam="1">  1        1 0.23577178E+00 0.92775158E+03</pdfrwt>
<pdfrwt beam="2">  1       -1 0.16905022E+00 0.92775158E+03</pdfrwt>
<totfact> 0.15798042E+00</totfact>
</mgrwt>
</event>
<event>
 4    1  0.2514307E-008  0.7085255E+03  0.7818608E-02  0.9963518E-01
         -1   -1    0    0    0  501 -0.00000000000E+00  0.00000000000E+00  0.75449666038E+03  0.75449666040E+03  0.50400000000E-02 0.  1.
          1   -1    0    0  501    0  0.00000000000E+00 -0.00000000000E+00 -0.77293527075E+03  0.77293527077E+03  0.50400000000E-02 0. -1.
    8880023    1    1    2    0    0 -0.26096800206E+03 -0.96886166852E+01  0.54095089949E+03  0.89142372041E+03  0.65864270000E+03 0.  1.
    8880022    1    1    2    0    0  0.26096800206E+03  0.96886166852E+01 -0.55938950986E+03  0.63600821075E+03  0.15294330000E+03 0.  0.
<mgrwt>
<rscale>  0 0.57279275E+03</rscale>
<asrwt>0</asrwt>
<pdfrwt beam="1">  1        1 0.11891312E+00 0.70852549E+03</pdfrwt>
<pdfrwt beam="2">  1       -1 0.11607641E+00 0.70852549E+03</pdfrwt>
<totfact> 0.16206280E+01</totfact>
</mgrwt>
</event>
<event>
 4    1  0.2514307E-008  0.1225711E+04  0.7818608E-02  0.9132526E-01
         -1   -1    0    0    0  501 -0.00000000000E+00  0.00000000000E+00  0.19445214012E+04  0.19445214012E+04  0.50400000000E-02 0.  1.
          1   -1    0    0  501    0  0.00000000000E+00 -0.00000000000E+00 -0.14502674625E+04  0.14502674625E+04  0.50400000000E-02 0. -1.
    8880023    1    1    2    0    0  0.10184130495E+04 -0.17717523190E+03  0.15050032059E+04  0.19409794070E+04  0.65864270000E+03 0.  0.
    8880022    1    1    2    0    0 -0.10184130495E+04  0.17717523190E+03 -0.10107492673E+04  0.14538094567E+04  0.15294330000E+03 0.  0.
<mgrwt>
<rscale>  0 0.11777855E+04</rscale>
<asrwt>0</asrwt>
<pdfrwt beam="1">  1        1 0.22311807E+00 0.12257106E+04</pdfrwt>
<pdfrwt beam="2">  1       -1 0.29915714E+00 0.12257106E+04</pdfrwt>
<totfact> 0.23225020E-01</totfact>
</mgrwt>
</event>
<event>
 4    1  0.2514307E-008  0.7539970E+03  0.7818608E-02  0.9820904E-01
          1   -1    0    0  501    0  0.00000000000E+00  0.00000000000E+00  0.88794222801E+03  0.88794222802E+03  0.50400000000E-02 0. -1.
         -1   -1    0    0    0  501 -0.00000000000E+00 -0.00000000000E+00 -0.40977446299E+03  0.40977446302E+03  0.50400000000E-02 0.  1.
    8880023    1    1    2    0    0  0.10952423260E+03  0.35029374552E+03  0.12178765099E+03  0.76376940491E+03  0.65864270000E+03 0.  0.
    8880022    1    1    2    0    0 -0.10952423260E+03 -0.35029374552E+03  0.35638011403E+03  0.53394728613E+03  0.15294330000E+03 0.  0.
<mgrwt>
<rscale>  0 0.64252683E+03</rscale>
<asrwt>0</asrwt>
<pdfrwt beam="1">  1        1 0.13660649E+00 0.75399700E+03</pdfrwt>
<pdfrwt beam="2">  1       -1 0.63042226E-01 0.75399700E+03</pdfrwt>
<totfact> 0.48612638E+01</totfact>
</mgrwt>
</event>
<event>
 4    1  0.2514307E-008  0.1028266E+04  0.7818608E-02  0.9345477E-01
          1   -1    0    0  501    0  0.00000000000E+00  0.00000000000E+00  0.11028337077E+04  0.11028337077E+04  0.50400000000E-02 0. -1.
         -1   -1    0    0    0  501 -0.00000000000E+00 -0.00000000000E+00 -0.12179667908E+04  0.12179667908E+04  0.50400000000E-02 0.  1.
    8880023    1    1    2    0    0  0.57614821982E+02  0.78752822516E+03 -0.76918547779E+03  0.12841248688E+04  0.65864270000E+03 0.  0.
    8880022    1    1    2    0    0 -0.57614821982E+02 -0.78752822516E+03  0.65405239470E+03  0.10366756297E+04  0.15294330000E+03 0.  0.
<mgrwt>
<rscale>  0 0.96701821E+03</rscale>
<asrwt>0</asrwt>
<pdfrwt beam="1">  1        1 0.16966673E+00 0.10282657E+04</pdfrwt>
<pdfrwt beam="2">  1       -1 0.18737951E+00 0.10282657E+04</pdfrwt>
<totfact> 0.23269670E+00</totfact>
</mgrwt>
</event>
<event>
 4    1  0.2514307E-008  0.1032957E+04  0.7818608E-02  0.9339656E-01
         -1   -1    0    0    0  501 -0.00000000000E+00  0.00000000000E+00  0.10029727638E+04  0.10029727638E+04  0.50400000000E-02 0.  1.
          1   -1    0    0  501    0  0.00000000000E+00 -0.00000000000E+00 -0.14681693033E+04  0.14681693033E+04  0.50400000000E-02 0. -1.
    8880023    1    1    2    0    0 -0.30911967833E+03  0.73323542081E+03  0.55156628680E+03  0.11709930541E+04  0.65864270000E+03 0.  0.
    8880022    1    1    2    0    0  0.30911967833E+03 -0.73323542081E+03 -0.10167628263E+04  0.13001490130E+04  0.15294330000E+03 0.  0.
<mgrwt>
<rscale>  0 0.97212606E+03</rscale>
<asrwt>0</asrwt>
<pdfrwt beam="1">  1        1 0.22587220E+00 0.10329566E+04</pdfrwt>
<pdfrwt beam="2">  1       -1 0.15430350E+00 0.10329566E+04</pdfrwt>
<totfact> 0.22259394E+00</totfact>
</mgrwt>
</event>
<event>
 4    1  0.2514307E-008  0.8307376E+03  0.7818608E-02  0.9647899E-01
         -1   -1    0    0    0  501 -0.00000000000E+00  0.00000000000E+00  0.14648728210E+04  0.14648728210E+04  0.50400000000E-02 0.  1.
          1   -1    0    0  501    0  0.00000000000E+00 -0.00000000000E+00 -0.49686885763E+03  0.49686885765E+03  0.50400000000E-02 0. -1.
    8880023    1    1    2    0    0  0.22159740249E+03  0.45520253674E+03  0.11355337881E+04  0.14069690645E+04  0.65864270000E+03 0.  0.
    8880022    1    1    2    0    0 -0.22159740249E+03 -0.45520253674E+03 -0.16752982473E+03  0.55477261417E+03  0.15294330000E+03 0.  0.
<mgrwt>
<rscale>  0 0.74205433E+03</rscale>
<asrwt>0</asrwt>
<pdfrwt beam="1">  1        1 0.76441364E-01 0.83073760E+03</pdfrwt>
<pdfrwt beam="2">  1       -1 0.22536505E+00 0.83073760E+03</pdfrwt>
<totfact> 0.46508377E+00</totfact>
</mgrwt>
</event>
<event>
 4    1  0.2514307E-008  0.1273670E+04  0.7818608E-02  0.9088638E-01
          1   -1    0    0  501    0  0.00000000000E+00  0.00000000000E+00  0.17232076692E+04  0.17232076692E+04  0.50400000000E-02 0. -1.
         -1   -1    0    0    0  501 -0.00000000000E+00 -0.00000000000E+00 -0.13628368919E+04  0.13628368919E+04  0.50400000000E-02 0.  1.
    8880023    1    1    2    0    0 -0.50917670389E+03 -0.96393101812E+03 -0.78603037717E+03  0.14966889736E+04  0.65864270000E+03 0.  0.
    8880022    1    1    2    0    0  0.50917670389E+03  0.96393101812E+03  0.11464011545E+04  0.15893555875E+04  0.15294330000E+03 0.  0.
<mgrwt>
<rscale>  0 0.12280672E+04</rscale>
<asrwt>0</asrwt>
<pdfrwt beam="1">  1        1 0.26510887E+00 0.12736696E+04</pdfrwt>
<pdfrwt beam="2">  1       -1 0.20966722E+00 0.12736696E+04</pdfrwt>
<totfact> 0.57660119E-01</totfact>
</mgrwt>
</event>
<event>
 4    1  0.2514307E-008  0.1606836E+04  0.7818608E-02  0.8837661E-01
          1   -1    0    0  501    0  0.00000000000E+00  0.00000000000E+00  0.27063895869E+04  0.27063895869E+04  0.50400000000E-02 0. -1.
         -1   -1    0    0    0  501 -0.00000000000E+00 -0.00000000000E+00 -0.13191005857E+04  0.13191005857E+04  0.50400000000E-02 0.  1.
    8880023    1    1    2    0    0  0.89258992042E+03 -0.11624952305E+04 -0.45151940287E+03  0.16690691731E+04  0.65864270000E+03 0.  0.
    8880022    1    1    2    0    0 -0.89258992042E+03  0.11624952305E+04  0.18388084041E+04  0.23564209995E+04  0.15294330000E+03 0.  0.
<mgrwt>
<rscale>  0 0.15724388E+04</rscale>
<asrwt>0</asrwt>
<pdfrwt beam="1">  1        1 0.41636763E+00 0.16068361E+04</pdfrwt>
<pdfrwt beam="2">  1       -1 0.20293855E+00 0.16068361E+04</pdfrwt>
<totfact> 0.13025973E-01</totfact>
</mgrwt>
</event>
<event>
 4    1  0.2514307E-008  0.8331014E+03  0.7818608E-02  0.9643328E-01
          1   -1    0    0  501    0  0.00000000000E+00  0.00000000000E+00  0.28385865382E+03  0.28385865386E+03  0.50400000000E-02 0. -1.
         -1   -1    0    0    0  501 -0.00000000000E+00 -0.00000000000E+00 -0.31617188441E+04  0.31617188441E+04  0.50400000000E-02 0.  1.
    8880023    1    1    2    0    0 -0.18376510643E+03 -0.47589714685E+03 -0.27824840338E+04  0.29045266935E+04  0.65864270000E+03 0.  1.
    8880022    1    1    2    0    0  0.18376510643E+03  0.47589714685E+03 -0.95376156432E+02  0.54105080441E+03  0.15294330000E+03 0.  0.
<mgrwt>
<rscale>  0 0.74493641E+03</rscale>
<asrwt>0</asrwt>
<pdfrwt beam="1">  1        1 0.43670564E-01 0.83310138E+03</pdfrwt>
<pdfrwt beam="2">  1       -1 0.48641826E+00 0.83310138E+03</pdfrwt>
<totfact> 0.18108488E-01</totfact>
</mgrwt>
</event>
<event>
 4    1  0.2514307E-008  0.1788914E+04  0.7818608E-02  0.8728694E-01
          1   -1    0    0  501    0  0.00000000000E+00  0.00000000000E+00  0.21611552067E+04  0.21611552067E+04  0.50400000000E-02 0. -1.
         -1   -1    0    0    0  501 -0.00000000000E+00 -0.00000000000E+00 -0.18790888878E+04  0.18790888878E+04  0.50400000000E-02 0.  1.
    8880023    1    1    2    0    0  0.15011452864E+04  0.71621703771E+03 -0.89165832379E+03  0.19988168472E+04  0.65864270000E+03 0.  0.
    8880022    1    1    2    0    0 -0.15011452864E+04 -0.71621703771E+03  0.11737246427E+04  0.20414272472E+04  0.15294330000E+03 0.  0.
<mgrwt>
<rscale>  0 0.17584851E+04</rscale>
<asrwt>0</asrwt>
<pdfrwt beam="1">  1        1 0.33248542E+00 0.17889143E+04</pdfrwt>
<pdfrwt beam="2">  1       -1 0.28909060E+00 0.17889143E+04</pdfrwt>
<totfact> 0.81969598E-02</totfact>
</mgrwt>
</event>
<event>
 4    1  0.2514307E-008  0.1231765E+04  0.7818608E-02  0.9126846E-01
          1   -1    0    0  501    0  0.00000000000E+00  0.00000000000E+00  0.24458870417E+04  0.24458870417E+04  0.50400000000E-02 0. -1.
         -1   -1    0    0    0  501 -0.00000000000E+00 -0.00000000000E+00 -0.10607263793E+04  0.10607263793E+04  0.50400000000E-02 0.  1.
    8880023    1    1    2    0    0 -0.81573359170E+03  0.64654046702E+03 -0.51464684235E+03  0.13349559718E+04  0.65864270000E+03 0. -1.
    8880022    1    1    2    0    0  0.81573359170E+03 -0.64654046702E+03  0.18998075048E+04  0.21716574491E+04  0.15294330000E+03 0.  0.
<mgrwt>
<rscale>  0 0.11841480E+04</rscale>
<asrwt>0</asrwt>
<pdfrwt beam="1">  1        1 0.37629031E+00 0.12317654E+04</pdfrwt>
<pdfrwt beam="2">  1       -1 0.16318867E+00 0.12317654E+04</pdfrwt>
<totfact> 0.40070517E-01</totfact>
</mgrwt>
</event>
<event>
 4    1  0.2514307E-008  0.8136974E+03  0.7818608E-02  0.9681926E-01
         -1   -1    0    0    0  501 -0.00000000000E+00  0.00000000000E+00  0.75699564974E+03  0.75699564976E+03  0.50400000000E-02 0.  1.
          1   -1    0    0  501    0  0.00000000000E+00 -0.00000000000E+00 -0.12926086565E+04  0.12926086566E+04  0.50400000000E-02 0. -1.
    8880023    1    1    2    0    0  0.45837395200E+03  0.13485748206E+03  0.46001118968E+03  0.93472654891E+03  0.65864270000E+03 0.  1.
    8880022    1    1    2    0    0 -0.45837395200E+03 -0.13485748206E+03 -0.99562419648E+03  0.11148777574E+04  0.15294330000E+03 0.  0.
<mgrwt>
<rscale>  0 0.72103165E+03</rscale>
<asrwt>0</asrwt>
<pdfrwt beam="1">  1        1 0.19886287E+00 0.81369738E+03</pdfrwt>
<pdfrwt beam="2">  1       -1 0.11646087E+00 0.81369738E+03</pdfrwt>
<totfact> 0.62687752E+00</totfact>
</mgrwt>
</event>
<event>
 4    1  0.2514307E-008  0.9982686E+03  0.7818608E-02  0.9383826E-01
          1   -1    0    0  501    0  0.00000000000E+00  0.00000000000E+00  0.17923143672E+04  0.17923143672E+04  0.50400000000E-02 0. -1.
         -1   -1    0    0    0  501 -0.00000000000E+00 -0.00000000000E+00 -0.48608304348E+03  0.48608304351E+03  0.50400000000E-02 0.  1.
    8880023    1    1    2    0    0 -0.72252330543E+03  0.20171783863E+03  0.35990613001E+03  0.10611656996E+04  0.65864270000E+03 0. -1.
    8880022    1    1    2    0    0  0.72252330543E+03 -0.20171783863E+03  0.94632519374E+03  0.12172317111E+04  0.15294330000E+03 0.  0.
<mgrwt>
<rscale>  0 0.93418746E+03</rscale>
<asrwt>0</asrwt>
<pdfrwt beam="1">  1        1 0.27574068E+00 0.99826861E+03</pdfrwt>
<pdfrwt beam="2">  1       -1 0.74782005E-01 0.99826861E+03</pdfrwt>
<totfact> 0.74843685E+00</totfact>
</mgrwt>
</event>
<event>
 4    1  0.2514307E-008  0.6965364E+03  0.7818608E-02  0.1001188E+00
          1   -1    0    0  501    0  0.00000000000E+00  0.00000000000E+00  0.20529433770E+04  0.20529433770E+04  0.50400000000E-02 0. -1.
         -1   -1    0    0    0  501 -0.00000000000E+00 -0.00000000000E+00 -0.56148065150E+03  0.56148065152E+03  0.50400000000E-02 0.  1.
    8880023    1    1    2    0    0 -0.22568259426E+03 -0.20496527920E+02 -0.33127180233E+03  0.77130017133E+03  0.65864270000E+03 0.  0.
    8880022    1    1    2    0    0  0.22568259426E+03  0.20496527920E+02  0.18227345278E+04  0.18431238572E+04  0.15294330000E+03 0. -1.
<mgrwt>
<rscale>  0 0.55132183E+03</rscale>
<asrwt>0</asrwt>
<pdfrwt beam="1">  1        1 0.31583744E+00 0.69653639E+03</pdfrwt>
<pdfrwt beam="2">  1       -1 0.86381639E-01 0.69653639E+03</pdfrwt>
<totfact> 0.38543011E+00</totfact>
</mgrwt>
</event>
<event>
 4    1  0.2514307E-008  0.7258452E+03  0.7818608E-02  0.9903282E-01
         -1   -1    0    0    0  501 -0.00000000000E+00  0.00000000000E+00  0.65055493578E+03  0.65055493580E+03  0.50400000000E-02 0.  1.
          1   -1    0    0  501    0  0.00000000000E+00 -0.00000000000E+00 -0.84489505424E+03  0.84489505426E+03  0.50400000000E-02 0. -1.
    8880023    1    1    2    0    0 -0.30231534844E+03 -0.40577390389E+02  0.38609687900E+03  0.82214481738E+03  0.65864270000E+03 0.  1.
    8880022    1    1    2    0    0  0.30231534844E+03  0.40577390389E+02 -0.58043699746E+03  0.67330517268E+03  0.15294330000E+03 0.  0.
<mgrwt>
<rscale>  0 0.60102483E+03</rscale>
<asrwt>0</asrwt>
<pdfrwt beam="1">  1        1 0.12998385E+00 0.72584523E+03</pdfrwt>
<pdfrwt beam="2">  1       -1 0.10008537E+00 0.72584523E+03</pdfrwt>
<totfact> 0.19835766E+01</totfact>
</mgrwt>
</event>
<event>
 4    1  0.2514307E-008  0.7865199E+03  0.7818608E-02  0.9740739E-01
          1   -1    0    0  501    0  0.00000000000E+00  0.00000000000E+00  0.10507249503E+04  0.10507249503E+04  0.50400000000E-02 0. -1.
         -1   -1    0    0    0  501 -0.00000000000E+00 -0.00000000000E+00 -0.12837917604E+04  0.12837917604E+04  0.50400000000E-02 0.  1.
    8880023    1    1    2    0    0 -0.36991794811E+03 -0.21900697634E+03 -0.11015168739E+04  0.13534965732E+04  0.65864270000E+03 0.  0.
    8880022    1    1    2    0    0  0.36991794811E+03  0.21900697634E+03  0.86845006374E+03  0.98102013754E+03  0.15294330000E+03 0. -1.
<mgrwt>
<rscale>  0 0.68642181E+03</rscale>
<asrwt>0</asrwt>
<pdfrwt beam="1">  1        1 0.16164999E+00 0.78651990E+03</pdfrwt>
<pdfrwt beam="2">  1       -1 0.19750643E+00 0.78651990E+03</pdfrwt>
<totfact> 0.22437529E+00</totfact>
</mgrwt>
</event>
<event>
 4    1  0.2514307E-008  0.8902382E+03  0.7818608E-02  0.9541888E-01
          1   -1    0    0  501    0  0.00000000000E+00  0.00000000000E+00  0.12071812877E+04  0.12071812877E+04  0.50400000000E-02 0. -1.
         -1   -1    0    0    0  501 -0.00000000000E+00 -0.00000000000E+00 -0.50770344363E+03  0.50770344365E+03  0.50400000000E-02 0.  1.
    8880023    1    1    2    0    0  0.55906210885E+03 -0.21485652704E+03  0.18182745389E+03  0.90861719003E+03  0.65864270000E+03 0.  1.
    8880022    1    1    2    0    0 -0.55906210885E+03  0.21485652704E+03  0.51765039022E+03  0.80626754137E+03  0.15294330000E+03 0.  0.
<mgrwt>
<rscale>  0 0.81264815E+03</rscale>
<asrwt>0</asrwt>
<pdfrwt beam="1">  1        1 0.18572020E+00 0.89023816E+03</pdfrwt>
<pdfrwt beam="2">  1       -1 0.78108222E-01 0.89023816E+03</pdfrwt>
<totfact> 0.17586610E+01</totfact>
</mgrwt>
</event>
<event>
 4    1  0.2514307E-008  0.1001401E+04  0.7818608E-02  0.9379727E-01
         -1   -1    0    0    0  501 -0.00000000000E+00  0.00000000000E+00  0.18330078118E+04  0.18330078118E+04  0.50400000000E-02 0.  1.
          1   -1    0    0  501    0  0.00000000000E+00 -0.00000000000E+00 -0.59366936096E+03  0.59366936098E+03  0.50400000000E-02 0. -1.
    8880023    1    1    2    0    0 -0.52837328629E+02  0.75246390460E+03  0.13154659018E+04  0.16532557141E+04  0.65864270000E+03 0.  0.
    8880022    1    1    2    0    0  0.52837328629E+02 -0.75246390460E+03 -0.76127450957E+02  0.77342145873E+03  0.15294330000E+03 0.  0.
<mgrwt>
<rscale>  0 0.93763012E+03</rscale>
<asrwt>0</asrwt>
<pdfrwt beam="1">  1        1 0.91333749E-01 0.10014010E+04</pdfrwt>
<pdfrwt beam="2">  1       -1 0.28200120E+00 0.10014010E+04</pdfrwt>
<totfact> 0.15199080E+00</totfact>
</mgrwt>
</event>
<event>
 4    1  0.2514307E-008  0.8101627E+03  0.7818608E-02  0.9689238E-01
          1   -1    0    0  501    0  0.00000000000E+00  0.00000000000E+00  0.16989187396E+04  0.16989187396E+04  0.50400000000E-02 0. -1.
         -1   -1    0    0    0  501 -0.00000000000E+00 -0.00000000000E+00 -0.59900576710E+03  0.59900576712E+03  0.50400000000E-02 0.  1.
    8880023    1    1    2    0    0 -0.82119977753E+02 -0.46455319635E+03 -0.25963532511E+03  0.85074912359E+03  0.65864270000E+03 0.  1.
    8880022    1    1    2    0    0  0.82119977753E+02  0.46455319635E+03  0.13595482976E+04  0.14471753832E+04  0.15294330000E+03 0.  0.
<mgrwt>
<rscale>  0 0.71661176E+03</rscale>
<asrwt>0</asrwt>
<pdfrwt beam="1">  1        1 0.26137211E+00 0.81016268E+03</pdfrwt>
<pdfrwt beam="2">  1       -1 0.92154734E-01 0.81016268E+03</pdfrwt>
<totfact> 0.56592714E+00</totfact>
</mgrwt>
</event>
<event>
 4    1  0.2514307E-008  0.8412182E+03  0.7818608E-02  0.9627887E-01
         -1   -1    0    0    0  501 -0.00000000000E+00  0.00000000000E+00  0.68623801658E+03  0.68623801660E+03  0.50400000000E-02 0.  1.
          1   -1    0    0  501    0  0.00000000000E+00 -0.00000000000E+00 -0.11471632268E+04  0.11471632268E+04  0.50400000000E-02 0. -1.
    8880023    1    1    2    0    0  0.51694657056E+03 -0.81265900354E+02  0.30366081951E+03  0.89434780871E+03  0.65864270000E+03 0.  0.
    8880022    1    1    2    0    0 -0.51694657056E+03  0.81265900354E+02 -0.76458602974E+03  0.93905343472E+03  0.15294330000E+03 0.  0.
<mgrwt>
<rscale>  0 0.75477587E+03</rscale>
<asrwt>0</asrwt>
<pdfrwt beam="1">  1        1 0.17648665E+00 0.84121823E+03</pdfrwt>
<pdfrwt beam="2">  1       -1 0.10557508E+00 0.84121823E+03</pdfrwt>
<totfact> 0.10036825E+01</totfact>
</mgrwt>
</event>
<event>
 4    1  0.2514307E-008  0.7807608E+03  0.7818608E-02  0.9754053E-01
          1   -1    0    0  501    0  0.00000000000E+00  0.00000000000E+00  0.10554900507E+04  0.10554900507E+04  0.50400000000E-02 0. -1.
         -1   -1    0    0    0  501 -0.00000000000E+00 -0.00000000000E+00 -0.12663310465E+04  0.12663310465E+04  0.50400000000E-02 0.  1.
    8880023    1    1    2    0    0  0.40967383211E+03 -0.89131929879E+02 -0.10871223603E+04  0.13384402796E+04  0.65864270000E+03 0.  0.
    8880022    1    1    2    0    0 -0.40967383211E+03  0.89131929879E+02  0.87628136451E+03  0.98338081761E+03  0.15294330000E+03 0.  0.
<mgrwt>
<rscale>  0 0.67887708E+03</rscale>
<asrwt>0</asrwt>
<pdfrwt beam="1">  1        1 0.16238308E+00 0.78076075E+03</pdfrwt>
<pdfrwt beam="2">  1       -1 0.19482016E+00 0.78076075E+03</pdfrwt>
<totfact> 0.23243848E+00</totfact>
</mgrwt>
</event>
<event>
 4    1  0.2514307E-008  0.1526381E+04  0.7818608E-02  0.8891228E-01
          1   -1    0    0  501    0  0.00000000000E+00  0.00000000000E+00  0.11595953124E+04  0.11595953125E+04  0.50400000000E-02 0. -1.
         -1   -1    0    0    0  501 -0.00000000000E+00 -0.00000000000E+00 -0.21625328968E+04  0.21625328968E+04  0.50400000000E-02 0.  1.
    8880023    1    1    2    0    0 -0.77165045788E+03  0.11404323016E+04  0.13074702328E+03  0.15319710356E+04  0.65864270000E+03 0.  0.
    8880022    1    1    2    0    0  0.77165045788E+03 -0.11404323016E+04 -0.11336846076E+04  0.17901571736E+04  0.15294330000E+03 0.  0.
<mgrwt>
<rscale>  0 0.14898537E+04</rscale>
<asrwt>0</asrwt>
<pdfrwt beam="1">  1        1 0.17839928E+00 0.15263815E+04</pdfrwt>
<pdfrwt beam="2">  1       -1 0.33269737E+00 0.15263815E+04</pdfrwt>
<totfact> 0.21898622E-01</totfact>
</mgrwt>
</event>
<event>
 4    1  0.2514307E-008  0.7391365E+03  0.7818608E-02  0.9862470E-01
          1   -1    0    0  501    0  0.00000000000E+00  0.00000000000E+00  0.46022528032E+03  0.46022528035E+03  0.50400000000E-02 0. -1.
         -1   -1    0    0    0  501 -0.00000000000E+00 -0.00000000000E+00 -0.15293506719E+04  0.15293506719E+04  0.50400000000E-02 0.  1.
    8880023    1    1    2    0    0  0.30765833426E+03  0.13363697570E+03 -0.13412075556E+04  0.15313916564E+04  0.65864270000E+03 0.  1.
    8880022    1    1    2    0    0 -0.30765833426E+03 -0.13363697570E+03  0.27208216404E+03  0.45818429580E+03  0.15294330000E+03 0.  0.
<mgrwt>
<rscale>  0 0.62115152E+03</rscale>
<asrwt>0</asrwt>
<pdfrwt beam="1">  1        1 0.70803890E-01 0.73913645E+03</pdfrwt>
<pdfrwt beam="2">  1       -1 0.23528472E+00 0.73913645E+03</pdfrwt>
<totfact> 0.45012218E+00</totfact>
</mgrwt>
</event>
<event>
 4    1  0.2514307E-008  0.8675633E+03  0.7818608E-02  0.9580249E-01
          1   -1    0    0  501    0  0.00000000000E+00  0.00000000000E+00  0.85881975809E+03  0.85881975811E+03  0.50400000000E-02 0. -1.
         -1   -1    0    0    0  501 -0.00000000000E+00 -0.00000000000E+00 -0.14985192203E+04  0.14985192203E+04  0.50400000000E-02 0.  1.
    8880023    1    1    2    0    0 -0.56457724164E+03  0.10413427474E+02 -0.12437469422E+04  0.15164341607E+04  0.65864270000E+03 0.  0.
    8880022    1    1    2    0    0  0.56457724164E+03 -0.10413427474E+02  0.60404748003E+03  0.84090481768E+03  0.15294330000E+03 0.  0.
<mgrwt>
<rscale>  0 0.78617355E+03</rscale>
<asrwt>0</asrwt>
<pdfrwt beam="1">  1        1 0.13212612E+00 0.86756332E+03</pdfrwt>
<pdfrwt beam="2">  1       -1 0.23054142E+00 0.86756332E+03</pdfrwt>
<totfact> 0.18893763E+00</totfact>
</mgrwt>
</event>
<event>
 4    1  0.2514307E-008  0.1336116E+04  0.7818608E-02  0.9034983E-01
          1   -1    0    0  501    0  0.00000000000E+00  0.00000000000E+00  0.21160733697E+04  0.21160733697E+04  0.50400000000E-02 0. -1.
         -1   -1    0    0    0  501 -0.00000000000E+00 -0.00000000000E+00 -0.14767632201E+04  0.14767632201E+04  0.50400000000E-02 0.  1.
    8880023    1    1    2    0    0 -0.78173630104E+03 -0.86039730821E+03 -0.93434089556E+03  0.16303981991E+04  0.65864270000E+03 0.  1.
    8880022    1    1    2    0    0  0.78173630104E+03  0.86039730821E+03  0.15736510451E+04  0.19624383907E+04  0.15294330000E+03 0.  0.
<mgrwt>
<rscale>  0 0.12931905E+04</rscale>
<asrwt>0</asrwt>
<pdfrwt beam="1">  1        1 0.32554975E+00 0.13361158E+04</pdfrwt>
<pdfrwt beam="2">  1       -1 0.22719434E+00 0.13361158E+04</pdfrwt>
<totfact> 0.23599972E-01</totfact>
</mgrwt>
</event>
<event>
 4    1  0.2514307E-008  0.2120914E+04  0.7818608E-02  0.8563140E-01
          1   -1    0    0  501    0  0.00000000000E+00  0.00000000000E+00  0.40136923017E+04  0.40136923017E+04  0.50400000000E-02 0. -1.
         -1   -1    0    0    0  501 -0.00000000000E+00 -0.00000000000E+00 -0.11879971153E+04  0.11879971153E+04  0.50400000000E-02 0.  1.
    8880023    1    1    2    0    0  0.11347997222E+03 -0.20128554664E+04  0.62029759624E+03  0.22097611063E+04  0.65864270000E+03 0.  0.
    8880022    1    1    2    0    0 -0.11347997222E+03  0.20128554664E+04  0.22053975902E+04  0.29919283107E+04  0.15294330000E+03 0.  0.
<mgrwt>
<rscale>  0 0.20957005E+04</rscale>
<asrwt>0</asrwt>
<pdfrwt beam="1">  1        1 0.61749112E+00 0.21209137E+04</pdfrwt>
<pdfrwt beam="2">  1       -1 0.18276879E+00 0.21209137E+04</pdfrwt>
<totfact> 0.16447631E-02</totfact>
</mgrwt>
</event>
<event>
 4    1  0.2514307E-008  0.1300997E+04  0.7818608E-02  0.9064699E-01
          1   -1    0    0  501    0  0.00000000000E+00  0.00000000000E+00  0.15732063160E+04  0.15732063160E+04  0.50400000000E-02 0. -1.
         -1   -1    0    0    0  501 -0.00000000000E+00 -0.00000000000E+00 -0.10942842516E+04  0.10942842516E+04  0.50400000000E-02 0.  1.
    8880023    1    1    2    0    0 -0.99417432108E+03 -0.52000144237E+03 -0.24453196108E+03  0.13237787455E+04  0.65864270000E+03 0.  0.
    8880022    1    1    2    0    0  0.99417432108E+03  0.52000144237E+03  0.72345402554E+03  0.13437118221E+04  0.15294330000E+03 0.  0.
<mgrwt>
<rscale>  0 0.12566107E+04</rscale>
<asrwt>0</asrwt>
<pdfrwt beam="1">  1        1 0.24203174E+00 0.13009974E+04</pdfrwt>
<pdfrwt beam="2">  1       -1 0.16835142E+00 0.13009974E+04</pdfrwt>
<totfact> 0.14278598E+00</totfact>
</mgrwt>
</event>
<event>
 4    1  0.2514307E-008  0.8424578E+03  0.7818608E-02  0.9625563E-01
         -1   -1    0    0    0  501 -0.00000000000E+00  0.00000000000E+00  0.54461288372E+03  0.54461288374E+03  0.50400000000E-02 0.  1.
          1   -1    0    0  501    0  0.00000000000E+00 -0.00000000000E+00 -0.26568684177E+04  0.26568684177E+04  0.50400000000E-02 0. -1.
    8880023    1    1    2    0    0 -0.25287711606E+03  0.46041076700E+03  0.16582841583E+03  0.85862342151E+03  0.65864270000E+03 0.  0.
    8880022    1    1    2    0    0  0.25287711606E+03 -0.46041076700E+03 -0.22780839498E+04  0.23428578800E+04  0.15294330000E+03 0.  0.
<mgrwt>
<rscale>  0 0.75627101E+03</rscale>
<asrwt>0</asrwt>
<pdfrwt beam="1">  1        1 0.40874898E+00 0.84245778E+03</pdfrwt>
<pdfrwt beam="2">  1       -1 0.83786599E-01 0.84245778E+03</pdfrwt>
<totfact> 0.15597043E+00</totfact>
</mgrwt>
</event>
<event>
 4    1  0.2514307E-008  0.1064330E+04  0.7818608E-02  0.9301850E-01
         -1   -1    0    0    0  501 -0.00000000000E+00  0.00000000000E+00  0.18841147751E+04  0.18841147751E+04  0.50400000000E-02 0.  1.
          1   -1    0    0  501    0  0.00000000000E+00 -0.00000000000E+00 -0.88326266190E+03  0.88326266191E+03  0.50400000000E-02 0. -1.
    8880023    1    1    2    0    0 -0.51221148309E+03  0.66077750884E+03  0.14557794449E+04  0.18033556272E+04  0.65864270000E+03 0.  1.
    8880022    1    1    2    0    0  0.51221148309E+03 -0.66077750884E+03 -0.45492733175E+03  0.96402180981E+03  0.15294330000E+03 0. -1.
<mgrwt>
<rscale>  0 0.10061270E+04</rscale>
<asrwt>0</asrwt>
<pdfrwt beam="1">  1        1 0.13588656E+00 0.10643297E+04</pdfrwt>
<pdfrwt beam="2">  1       -1 0.28986381E+00 0.10643297E+04</pdfrwt>
<totfact> 0.72393660E-01</totfact>
</mgrwt>
</event>
<event>
 4    1  0.2514307E-008  0.9443804E+03  0.7818608E-02  0.9458246E-01
          1   -1    0    0  501    0  0.00000000000E+00  0.00000000000E+00  0.21149639367E+04  0.21149639368E+04  0.50400000000E-02 0. -1.
         -1   -1    0    0    0  501 -0.00000000000E+00 -0.00000000000E+00 -0.50652727588E+03  0.50652727591E+03  0.50400000000E-02 0.  1.
    8880023    1    1    2    0    0 -0.31436453660E+03  0.59934895048E+03  0.85868991238E+02  0.94827628686E+03  0.65864270000E+03 0.  0.
    8880022    1    1    2    0    0  0.31436453660E+03 -0.59934895048E+03  0.15225676696E+04  0.16732149258E+04  0.15294330000E+03 0.  0.
<mgrwt>
<rscale>  0 0.87433436E+03</rscale>
<asrwt>0</asrwt>
<pdfrwt beam="1">  1        1 0.32537907E+00 0.94438045E+03</pdfrwt>
<pdfrwt beam="2">  1       -1 0.77927274E-01 0.94438045E+03</pdfrwt>
<totfact> 0.41909498E+00</totfact>
</mgrwt>
</event>
<event>
 4    1  0.2514307E-008  0.7659048E+03  0.7818608E-02  0.9790054E-01
         -1   -1    0    0    0  501 -0.00000000000E+00  0.00000000000E+00  0.17796197620E+04  0.17796197620E+04  0.50400000000E-02 0.  1.
          1   -1    0    0  501    0  0.00000000000E+00 -0.00000000000E+00 -0.12837210824E+04  0.12837210824E+04  0.50400000000E-02 0. -1.
    8880023    1    1    2    0    0  0.28806130886E+02 -0.38983343307E+03  0.16587574748E+04  0.18270430934E+04  0.65864270000E+03 0.  1.
    8880022    1    1    2    0    0 -0.28806130886E+02  0.38983343307E+03 -0.11628587951E+04  0.12362977510E+04  0.15294330000E+03 0.  0.
<mgrwt>
<rscale>  0 0.65899059E+03</rscale>
<asrwt>0</asrwt>
<pdfrwt beam="1">  1        1 0.19749555E+00 0.76590476E+03</pdfrwt>
<pdfrwt beam="2">  1       -1 0.27378765E+00 0.76590476E+03</pdfrwt>
<totfact> 0.48010246E-01</totfact>
</mgrwt>
</event>
<event>
 4    1  0.2514307E-008  0.8725367E+03  0.7818608E-02  0.9571641E-01
          1   -1    0    0  501    0  0.00000000000E+00  0.00000000000E+00  0.20121255926E+04  0.20121255926E+04  0.50400000000E-02 0. -1.
         -1   -1    0    0    0  501 -0.00000000000E+00 -0.00000000000E+00 -0.60305451687E+03  0.60305451689E+03  0.50400000000E-02 0.  1.
    8880023    1    1    2    0    0  0.34929436697E+03 -0.45332504583E+03 -0.20461069094E+03  0.89620638978E+03  0.65864270000E+03 0.  1.
    8880022    1    1    2    0    0 -0.34929436697E+03  0.45332504583E+03  0.16136817666E+04  0.17189737197E+04  0.15294330000E+03 0.  0.
<mgrwt>
<rscale>  0 0.79201971E+03</rscale>
<asrwt>0</asrwt>
<pdfrwt beam="1">  1        1 0.30955779E+00 0.87253674E+03</pdfrwt>
<pdfrwt beam="2">  1       -1 0.92777617E-01 0.87253674E+03</pdfrwt>
<totfact> 0.34013985E+00</totfact>
</mgrwt>
</event>
<event>
 4    1  0.2514307E-008  0.7454134E+03  0.7818608E-02  0.9844450E-01
          1   -1    0    0  501    0  0.00000000000E+00  0.00000000000E+00  0.17422183012E+04  0.17422183012E+04  0.50400000000E-02 0. -1.
         -1   -1    0    0    0  501 -0.00000000000E+00 -0.00000000000E+00 -0.67425923704E+03  0.67425923705E+03  0.50400000000E-02 0.  1.
    8880023    1    1    2    0    0 -0.33754399932E+03  0.88853774013E+02 -0.43696878344E+03  0.86405026971E+03  0.65864270000E+03 0.  1.
    8880022    1    1    2    0    0  0.33754399932E+03 -0.88853774013E+02  0.15049278476E+04  0.15524272686E+04  0.15294330000E+03 0.  0.
<mgrwt>
<rscale>  0 0.63030707E+03</rscale>
<asrwt>0</asrwt>
<pdfrwt beam="1">  1        1 0.26803359E+00 0.74541341E+03</pdfrwt>
<pdfrwt beam="2">  1       -1 0.10373219E+00 0.74541341E+03</pdfrwt>
<totfact> 0.40914802E+00</totfact>
</mgrwt>
</event>
<event>
 4    1  0.2514307E-008  0.7148215E+03  0.7818608E-02  0.9940514E-01
         -1   -1    0    0    0  501 -0.00000000000E+00  0.00000000000E+00  0.25050910673E+03  0.25050910678E+03  0.50400000000E-02 0.  1.
          1   -1    0    0  501    0  0.00000000000E+00 -0.00000000000E+00 -0.20830949618E+04  0.20830949618E+04  0.50400000000E-02 0. -1.
    8880023    1    1    2    0    0 -0.21767123126E+02 -0.27692199630E+03 -0.31137507363E+03  0.77969496755E+03  0.65864270000E+03 0.  1.
    8880022    1    1    2    0    0  0.21767123126E+02  0.27692199630E+03 -0.15212107815E+04  0.15539091011E+04  0.15294330000E+03 0.  0.
<mgrwt>
<rscale>  0 0.58337344E+03</rscale>
<asrwt>0</asrwt>
<pdfrwt beam="1">  1        1 0.32047614E+00 0.71482152E+03</pdfrwt>
<pdfrwt beam="2">  1       -1 0.38539864E-01 0.71482152E+03</pdfrwt>
<totfact> 0.17882705E+01</totfact>
</mgrwt>
</event>
<event>
 4    1  0.2514307E-008  0.7777728E+03  0.7818608E-02  0.9761095E-01
          1   -1    0    0  501    0  0.00000000000E+00  0.00000000000E+00  0.23636044272E+04  0.23636044272E+04  0.50400000000E-02 0. -1.
         -1   -1    0    0    0  501 -0.00000000000E+00 -0.00000000000E+00 -0.44618654088E+03  0.44618654091E+03  0.50400000000E-02 0.  1.
    8880023    1    1    2    0    0  0.30433827535E+03 -0.28017589546E+03 -0.63509247887E+02  0.78036142208E+03  0.65864270000E+03 0.  1.
    8880022    1    1    2    0    0 -0.30433827535E+03  0.28017589546E+03  0.19809271342E+04  0.20294295460E+04  0.15294330000E+03 0.  0.
<mgrwt>
<rscale>  0 0.67492863E+03</rscale>
<asrwt>0</asrwt>
<pdfrwt beam="1">  1        1 0.36363146E+00 0.77777280E+03</pdfrwt>
<pdfrwt beam="2">  1       -1 0.68644082E-01 0.77777280E+03</pdfrwt>
<totfact> 0.38048231E+00</totfact>
</mgrwt>
</event>
<event>
 4    1  0.2514307E-008  0.1318356E+04  0.7818608E-02  0.9049868E-01
         -1   -1    0    0    0  501 -0.00000000000E+00  0.00000000000E+00  0.63152731133E+03  0.63152731135E+03  0.50400000000E-02 0.  1.
          1   -1    0    0  501    0  0.00000000000E+00 -0.00000000000E+00 -0.26289819924E+04  0.26289819924E+04  0.50400000000E-02 0. -1.
    8880023    1    1    2    0    0  0.25986686002E+03  0.11120795299E+04 -0.15231835794E+04  0.20144850678E+04  0.65864270000E+03 0.  0.
    8880022    1    1    2    0    0 -0.25986686002E+03 -0.11120795299E+04 -0.47427110174E+03  0.12460242360E+04  0.15294330000E+03 0.  0.
<mgrwt>
<rscale>  0 0.12747049E+04</rscale>
<asrwt>0</asrwt>
<pdfrwt beam="1">  1        1 0.40445876E+00 0.13183557E+04</pdfrwt>
<pdfrwt beam="2">  1       -1 0.97158050E-01 0.13183557E+04</pdfrwt>
<totfact> 0.10952240E+00</totfact>
</mgrwt>
</event>
<event>
 4    1  0.2514307E-008  0.9005800E+03  0.7818608E-02  0.9525101E-01
          1   -1    0    0  501    0  0.00000000000E+00  0.00000000000E+00  0.11679540059E+04  0.11679540059E+04  0.50400000000E-02 0. -1.
         -1   -1    0    0    0  501 -0.00000000000E+00 -0.00000000000E+00 -0.65502319396E+03  0.65502319398E+03  0.50400000000E-02 0.  1.
    8880023    1    1    2    0    0 -0.50041776740E+03  0.35611250368E+03 -0.14253593148E+03  0.91178986353E+03  0.65864270000E+03 0.  0.
    8880022    1    1    2    0    0  0.50041776740E+03 -0.35611250368E+03  0.65546674345E+03  0.91118733639E+03  0.15294330000E+03 0.  0.
<mgrwt>
<rscale>  0 0.82458240E+03</rscale>
<asrwt>0</asrwt>
<pdfrwt beam="1">  1        1 0.17968523E+00 0.90057996E+03</pdfrwt>
<pdfrwt beam="2">  1       -1 0.10077280E+00 0.90057996E+03</pdfrwt>
<totfact> 0.10714973E+01</totfact>
</mgrwt>
</event>
<event>
 4    1  0.2514307E-008  0.7474085E+03  0.7818608E-02  0.9838869E-01
          1   -1    0    0  501    0  0.00000000000E+00  0.00000000000E+00  0.14604387752E+04  0.14604387752E+04  0.50400000000E-02 0. -1.
         -1   -1    0    0    0  501 -0.00000000000E+00 -0.00000000000E+00 -0.36111411597E+03  0.36111411600E+03  0.50400000000E-02 0.  1.
    8880023    1    1    2    0    0 -0.34206206442E+03  0.88333405133E+02  0.10429708518E+03  0.75465047182E+03  0.65864270000E+03 0.  1.
    8880022    1    1    2    0    0  0.34206206442E+03 -0.88333405133E+02  0.99502757407E+03  0.10669024194E+04  0.15294330000E+03 0.  0.
<mgrwt>
<rscale>  0 0.63317663E+03</rscale>
<asrwt>0</asrwt>
<pdfrwt beam="1">  1        1 0.22468289E+00 0.74740849E+03</pdfrwt>
<pdfrwt beam="2">  1       -1 0.55556018E-01 0.74740849E+03</pdfrwt>
<totfact> 0.23597733E+01</totfact>
</mgrwt>
</event>
<event>
 4    1  0.2514307E-008  0.6678837E+03  0.7818608E-02  0.1017228E+00
         -1   -1    0    0    0  501 -0.00000000000E+00  0.00000000000E+00  0.19431466643E+03  0.19431466649E+03  0.50400000000E-02 0.  1.
          1   -1    0    0  501    0  0.00000000000E+00 -0.00000000000E+00 -0.16996986183E+04  0.16996986183E+04  0.50400000000E-02 0. -1.
    8880023    1    1    2    0    0  0.71874228681E+02 -0.84216847468E+02 -0.41263203086E+03  0.78506928439E+03  0.65864270000E+03 0.  1.
    8880022    1    1    2    0    0 -0.71874228681E+02  0.84216847468E+02 -0.10927519210E+04  0.11089440004E+04  0.15294330000E+03 0.  0.
<mgrwt>
<rscale>  0 0.48700465E+03</rscale>
<asrwt>0</asrwt>
<pdfrwt beam="1">  1        1 0.26149209E+00 0.66788366E+03</pdfrwt>
<pdfrwt beam="2">  1       -1 0.29894565E-01 0.66788366E+03</pdfrwt>
<totfact> 0.50910983E+01</totfact>
</mgrwt>
</event>
<event>
 4    1  0.2514307E-008  0.1141470E+04  0.7818608E-02  0.9216230E-01
          1   -1    0    0  501    0  0.00000000000E+00  0.00000000000E+00  0.29341499266E+04  0.29341499266E+04  0.50400000000E-02 0. -1.
         -1   -1    0    0    0  501 -0.00000000000E+00 -0.00000000000E+00 -0.87001141585E+03  0.87001141586E+03  0.50400000000E-02 0.  1.
    8880023    1    1    2    0    0  0.73816623492E+03 -0.56943385954E+03 -0.36448874539E+03  0.11982514605E+04  0.65864270000E+03 0.  1.
    8880022    1    1    2    0    0 -0.73816623492E+03  0.56943385954E+03  0.24286272561E+04  0.26059098820E+04  0.15294330000E+03 0.  0.
<mgrwt>
<rscale>  0 0.10887463E+04</rscale>
<asrwt>0</asrwt>
<pdfrwt beam="1">  1        1 0.45140769E+00 0.11414703E+04</pdfrwt>
<pdfrwt beam="2">  1       -1 0.13384791E+00 0.11414703E+04</pdfrwt>
<totfact> 0.31486351E-01</totfact>
</mgrwt>
</event>
<event>
 4    1  0.2514307E-008  0.6832221E+03  0.7818608E-02  0.1007557E+00
         -1   -1    0    0    0  501 -0.00000000000E+00  0.00000000000E+00  0.12300870731E+03  0.12300870741E+03  0.50400000000E-02 0.  1.
          1   -1    0    0  501    0  0.00000000000E+00 -0.00000000000E+00 -0.30963298938E+04  0.30963298938E+04  0.50400000000E-02 0. -1.
    8880023    1    1    2    0    0 -0.35482345736E+02  0.17810999022E+03 -0.88737264884E+03  0.11199207961E+04  0.65864270000E+03 0.  1.
    8880022    1    1    2    0    0  0.35482345736E+02 -0.17810999022E+03 -0.20859485376E+04  0.20994178050E+04  0.15294330000E+03 0.  0.
<mgrwt>
<rscale>  0 0.52457319E+03</rscale>
<asrwt>0</asrwt>
<pdfrwt beam="1">  1        1 0.47635839E+00 0.68322205E+03</pdfrwt>
<pdfrwt beam="2">  1       -1 0.18924419E-01 0.68322205E+03</pdfrwt>
<totfact> 0.12246974E+01</totfact>
</mgrwt>
</event>
<event>
 4    1  0.2514307E-008  0.1476984E+04  0.7818608E-02  0.8926062E-01
          1   -1    0    0  501    0  0.00000000000E+00  0.00000000000E+00  0.88370916785E+03  0.88370916787E+03  0.50400000000E-02 0. -1.
         -1   -1    0    0    0  501 -0.00000000000E+00 -0.00000000000E+00 -0.34717702465E+04  0.34717702465E+04  0.50400000000E-02 0.  1.
    8880023    1    1    2    0    0 -0.76617179428E+03 -0.10773356276E+04 -0.26384391022E+04  0.30237133421E+04  0.65864270000E+03 0.  0.
    8880022    1    1    2    0    0  0.76617179428E+03  0.10773356276E+04  0.50378023618E+02  0.13317660722E+04  0.15294330000E+03 0.  0.
<mgrwt>
<rscale>  0 0.14390009E+04</rscale>
<asrwt>0</asrwt>
<pdfrwt beam="1">  1        1 0.13595526E+00 0.14769839E+04</pdfrwt>
<pdfrwt beam="2">  1       -1 0.53411849E+00 0.14769839E+04</pdfrwt>
<totfact> 0.16236078E-02</totfact>
</mgrwt>
</event>
<event>
 4    1  0.2514307E-008  0.8486852E+03  0.7818608E-02  0.9614016E-01
          1   -1    0    0  501    0  0.00000000000E+00  0.00000000000E+00  0.99160986611E+03  0.99160986612E+03  0.50400000000E-02 0. -1.
         -1   -1    0    0    0  501 -0.00000000000E+00 -0.00000000000E+00 -0.93155048206E+03  0.93155048207E+03  0.50400000000E-02 0.  1.
    8880023    1    1    2    0    0 -0.34715276522E+03 -0.40735896516E+03 -0.61508237368E+03  0.10481378257E+04  0.65864270000E+03 0.  0.
    8880022    1    1    2    0    0  0.34715276522E+03  0.40735896516E+03  0.67514175773E+03  0.87502252254E+03  0.15294330000E+03 0.  0.
<mgrwt>
<rscale>  0 0.76375412E+03</rscale>
<asrwt>0</asrwt>
<pdfrwt beam="1">  1        1 0.15255536E+00 0.84868520E+03</pdfrwt>
<pdfrwt beam="2">  1       -1 0.14331546E+00 0.84868520E+03</pdfrwt>
<totfact> 0.61808872E+00</totfact>
</mgrwt>
</event>
<event>
 4    1  0.2514307E-008  0.9885691E+03  0.7818608E-02  0.9396668E-01
         -1   -1    0    0    0  501 -0.00000000000E+00  0.00000000000E+00  0.15010666733E+04  0.15010666733E+04  0.50400000000E-02 0.  1.
          1   -1    0    0  501    0  0.00000000000E+00 -0.00000000000E+00 -0.10558708236E+04  0.10558708236E+04  0.50400000000E-02 0. -1.
    8880023    1    1    2    0    0  0.66847817784E+03  0.31079818906E+03  0.11563211083E+04  0.15212978999E+04  0.65864270000E+03 0.  0.
    8880022    1    1    2    0    0 -0.66847817784E+03 -0.31079818906E+03 -0.71112525855E+03  0.10356395970E+04  0.15294330000E+03 0.  0.
<mgrwt>
<rscale>  0 0.92350405E+03</rscale>
<asrwt>0</asrwt>
<pdfrwt beam="1">  1        1 0.16244167E+00 0.98856906E+03</pdfrwt>
<pdfrwt beam="2">  1       -1 0.23093333E+00 0.98856906E+03</pdfrwt>
<totfact> 0.12851199E+00</totfact>
</mgrwt>
</event>
<event>
 4    1  0.2514307E-008  0.7126667E+03  0.7818608E-02  0.9948229E-01
         -1   -1    0    0    0  501 -0.00000000000E+00  0.00000000000E+00  0.26152639135E+03  0.26152639140E+03  0.50400000000E-02 0.  1.
          1   -1    0    0  501    0  0.00000000000E+00 -0.00000000000E+00 -0.15189299252E+04  0.15189299252E+04  0.50400000000E-02 0. -1.
    8880023    1    1    2    0    0  0.26038136874E+03 -0.79278757170E+02 -0.29965061864E+03  0.77310043205E+03  0.65864270000E+03 0.  1.
    8880022    1    1    2    0    0 -0.26038136874E+03  0.79278757170E+02 -0.95775291522E+03  0.10073558846E+04  0.15294330000E+03 0.  0.
<mgrwt>
<rscale>  0 0.57979788E+03</rscale>
<asrwt>0</asrwt>
<pdfrwt beam="1">  1        1 0.23368152E+00 0.71266667E+03</pdfrwt>
<pdfrwt beam="2">  1       -1 0.40234830E-01 0.71266667E+03</pdfrwt>
<totfact> 0.39568492E+01</totfact>
</mgrwt>
</event>
<event>
 4    1  0.2514307E-008  0.7786861E+03  0.7818608E-02  0.9758932E-01
         -1   -1    0    0    0  501 -0.00000000000E+00  0.00000000000E+00  0.18871382529E+04  0.18871382529E+04  0.50400000000E-02 0.  1.
          1   -1    0    0  501    0  0.00000000000E+00 -0.00000000000E+00 -0.23705524944E+03  0.23705524949E+03  0.50400000000E-02 0. -1.
    8880023    1    1    2    0    0  0.26726763545E+03 -0.31797771162E+03  0.14336424336E+04  0.16314664103E+04  0.65864270000E+03 0.  1.
    8880022    1    1    2    0    0 -0.26726763545E+03  0.31797771162E+03  0.21644056984E+03  0.49272709214E+03  0.15294330000E+03 0.  0.
<mgrwt>
<rscale>  0 0.67613807E+03</rscale>
<asrwt>0</asrwt>
<pdfrwt beam="1">  1        1 0.36470037E-01 0.77868609E+03</pdfrwt>
<pdfrwt beam="2">  1       -1 0.29032897E+00 0.77868609E+03</pdfrwt>
<totfact> 0.47291496E+00</totfact>
</mgrwt>
</event>
<event>
 4    1  0.2514307E-008  0.9612242E+03  0.7818608E-02  0.9434145E-01
         -1   -1    0    0    0  501 -0.00000000000E+00  0.00000000000E+00  0.13146038918E+04  0.13146038918E+04  0.50400000000E-02 0.  1.
          1   -1    0    0  501    0  0.00000000000E+00 -0.00000000000E+00 -0.26914107119E+04  0.26914107119E+04  0.50400000000E-02 0. -1.
    8880023    1    1    2    0    0 -0.64204379186E+03 -0.27914443385E+03  0.10805995996E+04  0.14462529331E+04  0.65864270000E+03 0.  0.
    8880022    1    1    2    0    0  0.64204379186E+03  0.27914443385E+03 -0.24574064197E+04  0.25597616706E+04  0.15294330000E+03 0.  0.
<mgrwt>
<rscale>  0 0.89318133E+03</rscale>
<asrwt>0</asrwt>
<pdfrwt beam="1">  1        1 0.41406319E+00 0.96122425E+03</pdfrwt>
<pdfrwt beam="2">  1       -1 0.20224675E+00 0.96122425E+03</pdfrwt>
<totfact> 0.14913357E-01</totfact>
</mgrwt>
</event>
<event>
 4    1  0.2514307E-008  0.6903978E+03  0.7818608E-02  0.1003964E+00
         -1   -1    0    0    0  501 -0.00000000000E+00  0.00000000000E+00  0.90347718505E+03  0.90347718507E+03  0.50400000000E-02 0.  1.
          1   -1    0    0  501    0  0.00000000000E+00 -0.00000000000E+00 -0.83705440147E+03  0.83705440148E+03  0.50400000000E-02 0. -1.
    8880023    1    1    2    0    0  0.36227764150E+02  0.20378034114E+03  0.74444775221E+03  0.10153085937E+04  0.65864270000E+03 0.  1.
    8880022    1    1    2    0    0 -0.36227764150E+02 -0.20378034114E+03 -0.67802496862E+03  0.72522299289E+03  0.15294330000E+03 0.  0.
<mgrwt>
<rscale>  0 0.53945698E+03</rscale>
<asrwt>0</asrwt>
<pdfrwt beam="1">  1        1 0.12877760E+00 0.69039777E+03</pdfrwt>
<pdfrwt beam="2">  1       -1 0.13899649E+00 0.69039777E+03</pdfrwt>
<totfact> 0.91307026E+00</totfact>
</mgrwt>
</event>
<event>
 4    1  0.2514307E-008  0.9175956E+03  0.7818608E-02  0.9498356E-01
          1   -1    0    0  501    0  0.00000000000E+00  0.00000000000E+00  0.27388704494E+04  0.27388704494E+04  0.50400000000E-02 0. -1.
         -1   -1    0    0    0  501 -0.00000000000E+00 -0.00000000000E+00 -0.36609724581E+03  0.36609724585E+03  0.50400000000E-02 0.  1.
    8880023    1    1    2    0    0 -0.63813079612E+03  0.30991556361E+02  0.35657169943E+03  0.98444145210E+03  0.65864270000E+03 0.  0.
    8880022    1    1    2    0    0  0.63813079612E+03 -0.30991556361E+02  0.20162015042E+04  0.21205262432E+04  0.15294330000E+03 0.  0.
<mgrwt>
<rscale>  0 0.84405162E+03</rscale>
<asrwt>0</asrwt>
<pdfrwt beam="1">  1        1 0.42136470E+00 0.91759555E+03</pdfrwt>
<pdfrwt beam="2">  1       -1 0.56322652E-01 0.91759555E+03</pdfrwt>
<totfact> 0.30430468E+00</totfact>
</mgrwt>
</event>
<event>
 4    1  0.2514307E-008  0.1034511E+04  0.7818608E-02  0.9337737E-01
         -1   -1    0    0    0  501 -0.00000000000E+00  0.00000000000E+00  0.35928756326E+03  0.35928756329E+03  0.50400000000E-02 0.  1.
          1   -1    0    0  501    0  0.00000000000E+00 -0.00000000000E+00 -0.36253746357E+04  0.36253746357E+04  0.50400000000E-02 0. -1.
    8880023    1    1    2    0    0 -0.25095167162E+03  0.75724911674E+03 -0.59634494448E+03  0.11940856189E+04  0.65864270000E+03 0.  0.
    8880022    1    1    2    0    0  0.25095167162E+03 -0.75724911674E+03 -0.26697421280E+04  0.27905765800E+04  0.15294330000E+03 0.  0.
<mgrwt>
<rscale>  0 0.97381723E+03</rscale>
<asrwt>0</asrwt>
<pdfrwt beam="1">  1        1 0.55774992E+00 0.10345111E+04</pdfrwt>
<pdfrwt beam="2">  1       -1 0.55275012E-01 0.10345111E+04</pdfrwt>
<totfact> 0.68084656E-01</totfact>
</mgrwt>
</event>
<event>
 4    1  0.2514307E-008  0.8736102E+03  0.7818608E-02  0.9569798E-01
         -1   -1    0    0    0  501 -0.00000000000E+00  0.00000000000E+00  0.39169669956E+03  0.39169669959E+03  0.50400000000E-02 0.  1.
          1   -1    0    0  501    0  0.00000000000E+00 -0.00000000000E+00 -0.28122665395E+04  0.28122665395E+04  0.50400000000E-02 0. -1.
    8880023    1    1    2    0    0  0.44709032290E+03 -0.35985379660E+03 -0.18783165522E+03  0.89357453451E+03  0.65864270000E+03 0.  0.
    8880022    1    1    2    0    0 -0.44709032290E+03  0.35985379660E+03 -0.22327381847E+04  0.23103887046E+04  0.15294330000E+03 0.  0.
<mgrwt>
<rscale>  0 0.79327846E+03</rscale>
<asrwt>0</asrwt>
<pdfrwt beam="1">  1        1 0.43265638E+00 0.87361016E+03</pdfrwt>
<pdfrwt beam="2">  1       -1 0.60261033E-01 0.87361016E+03</pdfrwt>
<totfact> 0.23835562E+00</totfact>
</mgrwt>
</event>
<event>
 4    1  0.2514307E-008  0.7709623E+03  0.7818608E-02  0.9777512E-01
         -1   -1    0    0    0  501 -0.00000000000E+00  0.00000000000E+00  0.33945868551E+03  0.33945868555E+03  0.50400000000E-02 0.  1.
          1   -1    0    0  501    0  0.00000000000E+00 -0.00000000000E+00 -0.21430697749E+04  0.21430697749E+04  0.50400000000E-02 0. -1.
    8880023    1    1    2    0    0  0.49656970294E+02 -0.39762643527E+03 -0.16461497020E+03  0.78834059352E+03  0.65864270000E+03 0.  1.
    8880022    1    1    2    0    0 -0.49656970294E+02  0.39762643527E+03 -0.16389961192E+04  0.16941878669E+04  0.15294330000E+03 0.  0.
<mgrwt>
<rscale>  0 0.66583484E+03</rscale>
<asrwt>0</asrwt>
<pdfrwt beam="1">  1        1 0.32970303E+00 0.77096226E+03</pdfrwt>
<pdfrwt beam="2">  1       -1 0.52224415E-01 0.77096226E+03</pdfrwt>
<totfact> 0.91941423E+00</totfact>
</mgrwt>
</event>
<event>
 4    1  0.2514307E-008  0.1246523E+04  0.7818608E-02  0.9113174E-01
         -1   -1    0    0    0  501 -0.00000000000E+00  0.00000000000E+00  0.16198243328E+04  0.16198243328E+04  0.50400000000E-02 0.  1.
          1   -1    0    0  501    0  0.00000000000E+00 -0.00000000000E+00 -0.10737999410E+04  0.10737999410E+04  0.50400000000E-02 0. -1.
    8880023    1    1    2    0    0  0.93083595203E+03 -0.50354077022E+03  0.93240104186E+03  0.15566601382E+04  0.65864270000E+03 0.  0.
    8880022    1    1    2    0    0 -0.93083595203E+03  0.50354077022E+03 -0.38637665003E+03  0.11369641356E+04  0.15294330000E+03 0.  0.
<mgrwt>
<rscale>  0 0.11996373E+04</rscale>
<asrwt>0</asrwt>
<pdfrwt beam="1">  1        1 0.16519999E+00 0.12465228E+04</pdfrwt>
<pdfrwt beam="2">  1       -1 0.24920374E+00 0.12465228E+04</pdfrwt>
<totfact> 0.91426783E-01</totfact>
</mgrwt>
</event>
<event>
 4    1  0.2514307E-008  0.8554113E+03  0.7818608E-02  0.9601779E-01
         -1   -1    0    0    0  501 -0.00000000000E+00  0.00000000000E+00  0.92997466343E+03  0.92997466344E+03  0.50400000000E-02 0.  1.
          1   -1    0    0  501    0  0.00000000000E+00 -0.00000000000E+00 -0.78065224324E+03  0.78065224326E+03  0.50400000000E-02 0. -1.
    8880023    1    1    2    0    0  0.20016527684E+03 -0.50779148691E+03  0.54955323415E+03  0.10167287227E+04  0.65864270000E+03 0.  0.
    8880022    1    1    2    0    0 -0.20016527684E+03  0.50779148691E+03 -0.40023081396E+03  0.69389818395E+03  0.15294330000E+03 0.  0.
<mgrwt>
<rscale>  0 0.77178579E+03</rscale>
<asrwt>0</asrwt>
<pdfrwt beam="1">  1        1 0.12010035E+00 0.85541133E+03</pdfrwt>
<pdfrwt beam="2">  1       -1 0.14307302E+00 0.85541133E+03</pdfrwt>
<totfact> 0.92656803E+00</totfact>
</mgrwt>
</event>
<event>
 4    1  0.2514307E-008  0.7417236E+03  0.7818608E-02  0.9854955E-01
         -1   -1    0    0    0  501 -0.00000000000E+00  0.00000000000E+00  0.15494381679E+04  0.15494381679E+04  0.50400000000E-02 0.  1.
          1   -1    0    0  501    0  0.00000000000E+00 -0.00000000000E+00 -0.26111786303E+03  0.26111786308E+03  0.50400000000E-02 0. -1.
    8880023    1    1    2    0    0  0.33968496301E+03  0.30948414628E+02  0.12240759383E+04  0.14312637029E+04  0.65864270000E+03 0.  1.
    8880022    1    1    2    0    0 -0.33968496301E+03 -0.30948414628E+02  0.64244366610E+02  0.37929232806E+03  0.15294330000E+03 0.  0.
<mgrwt>
<rscale>  0 0.62494939E+03</rscale>
<asrwt>0</asrwt>
<pdfrwt beam="1">  1        1 0.40171978E-01 0.74172359E+03</pdfrwt>
<pdfrwt beam="2">  1       -1 0.23837511E+00 0.74172359E+03</pdfrwt>
<totfact> 0.90403010E+00</totfact>
</mgrwt>
</event>
<event>
 4    1  0.2514307E-008  0.9060981E+03  0.7818608E-02  0.9516312E-01
          1   -1    0    0  501    0  0.00000000000E+00  0.00000000000E+00  0.37839321874E+04  0.37839321874E+04  0.50400000000E-02 0. -1.
         -1   -1    0    0    0  501 -0.00000000000E+00 -0.00000000000E+00 -0.36415047975E+03  0.36415047979E+03  0.50400000000E-02 0.  1.
    8880023    1    1    2    0    0 -0.19813538359E+03 -0.58986944120E+03  0.28703567357E+03  0.95047528745E+03  0.65864270000E+03 0.  0.
    8880022    1    1    2    0    0  0.19813538359E+03  0.58986944120E+03  0.31327460341E+04  0.31976073797E+04  0.15294330000E+03 0.  0.
<mgrwt>
<rscale>  0 0.83091798E+03</rscale>
<asrwt>0</asrwt>
<pdfrwt beam="1">  1        1 0.58214342E+00 0.90609812E+03</pdfrwt>
<pdfrwt beam="2">  1       -1 0.56023150E-01 0.90609812E+03</pdfrwt>
<totfact> 0.50536042E-01</totfact>
</mgrwt>
</event>
<event>
 4    1  0.2514307E-008  0.8626550E+03  0.7818608E-02  0.9588858E-01
         -1   -1    0    0    0  501 -0.00000000000E+00  0.00000000000E+00  0.21086749511E+03  0.21086749517E+03  0.50400000000E-02 0.  1.
          1   -1    0    0  501    0  0.00000000000E+00 -0.00000000000E+00 -0.28795545969E+04  0.28795545969E+04  0.50400000000E-02 0. -1.
    8880023    1    1    2    0    0 -0.84473136949E+02 -0.55066124163E+03 -0.97972111812E+03  0.13053839242E+04  0.65864270000E+03 0.  0.
    8880022    1    1    2    0    0  0.84473136949E+02  0.55066124163E+03 -0.16889659837E+04  0.17850381679E+04  0.15294330000E+03 0.  0.
<mgrwt>
<rscale>  0 0.78038044E+03</rscale>
<asrwt>0</asrwt>
<pdfrwt beam="1">  1        1 0.44300837E+00 0.86265504E+03</pdfrwt>
<pdfrwt beam="2">  1       -1 0.32441155E-01 0.86265504E+03</pdfrwt>
<totfact> 0.67765700E+00</totfact>
</mgrwt>
</event>
<event>
 4    1  0.2514307E-008  0.6655613E+03  0.7818608E-02  0.1019067E+00
         -1   -1    0    0    0  501 -0.00000000000E+00  0.00000000000E+00  0.12593261776E+04  0.12593261776E+04  0.50400000000E-02 0.  1.
          1   -1    0    0  501    0  0.00000000000E+00 -0.00000000000E+00 -0.48320858917E+03  0.48320858919E+03  0.50400000000E-02 0. -1.
    8880023    1    1    2    0    0 -0.56612182939E+01  0.95549116574E+02  0.11492547306E+04  0.13280656328E+04  0.65864270000E+03 0.  1.
    8880022    1    1    2    0    0  0.56612182939E+01 -0.95549116574E+02 -0.37313714220E+03  0.41446913392E+03  0.15294330000E+03 0. -1.
<mgrwt>
<rscale>  0 0.48024793E+03</rscale>
<asrwt>0</asrwt>
<pdfrwt beam="1">  1        1 0.74339785E-01 0.66556133E+03</pdfrwt>
<pdfrwt beam="2">  1       -1 0.19374248E+00 0.66556133E+03</pdfrwt>
<totfact> 0.80751244E+00</totfact>
</mgrwt>
</event>
<event>
 4    1  0.2514307E-008  0.6968585E+03  0.7818608E-02  0.1001049E+00
          1   -1    0    0  501    0  0.00000000000E+00  0.00000000000E+00  0.15866248249E+04  0.15866248249E+04  0.50400000000E-02 0. -1.
         -1   -1    0    0    0  501 -0.00000000000E+00 -0.00000000000E+00 -0.22709452951E+03  0.22709452957E+03  0.50400000000E-02 0.  1.
    8880023    1    1    2    0    0 -0.61894330965E+02 -0.21902192938E+03  0.37425748958E+03  0.79099961348E+03  0.65864270000E+03 0.  0.
    8880022    1    1    2    0    0  0.61894330965E+02  0.21902192938E+03  0.98527280579E+03  0.10227197410E+04  0.15294330000E+03 0.  0.
<mgrwt>
<rscale>  0 0.55192585E+03</rscale>
<asrwt>0</asrwt>
<pdfrwt beam="1">  1        1 0.24409613E+00 0.69685846E+03</pdfrwt>
<pdfrwt beam="2">  1       -1 0.34937619E-01 0.69685846E+03</pdfrwt>
<totfact> 0.45963230E+01</totfact>
</mgrwt>
</event>
<event>
 4    1  0.2514307E-008  0.9814051E+03  0.7818608E-02  0.9406300E-01
          1   -1    0    0  501    0  0.00000000000E+00  0.00000000000E+00  0.90314528980E+03  0.90314528982E+03  0.50400000000E-02 0. -1.
         -1   -1    0    0    0  501 -0.00000000000E+00 -0.00000000000E+00 -0.11210904946E+04  0.11210904946E+04  0.50400000000E-02 0.  1.
    8880023    1    1    2    0    0 -0.72845487745E+01 -0.72752509860E+03  0.39773534917E+03  0.10589378867E+04  0.65864270000E+03 0.  0.
    8880022    1    1    2    0    0  0.72845487745E+01  0.72752509860E+03 -0.61568055399E+03  0.96529789771E+03  0.15294330000E+03 0.  0.
<mgrwt>
<rscale>  0 0.91559015E+03</rscale>
<asrwt>0</asrwt>
<pdfrwt beam="1">  1        1 0.13894543E+00 0.98140514E+03</pdfrwt>
<pdfrwt beam="2">  1       -1 0.17247546E+00 0.98140514E+03</pdfrwt>
<totfact> 0.42904383E+00</totfact>
</mgrwt>
</event>
<event>
 4    1  0.2514307E-008  0.1151489E+04  0.7818608E-02  0.9205784E-01
         -1   -1    0    0    0  501 -0.00000000000E+00  0.00000000000E+00  0.12634615283E+04  0.12634615283E+04  0.50400000000E-02 0.  1.
          1   -1    0    0  501    0  0.00000000000E+00 -0.00000000000E+00 -0.20217469040E+04  0.20217469040E+04  0.50400000000E-02 0. -1.
    8880023    1    1    2    0    0 -0.44431356388E+03  0.83348846705E+03  0.83798947823E+03  0.14241327676E+04  0.65864270000E+03 0.  0.
    8880022    1    1    2    0    0  0.44431356388E+03 -0.83348846705E+03 -0.15962748539E+04  0.18610756648E+04  0.15294330000E+03 0.  0.
<mgrwt>
<rscale>  0 0.10993926E+04</rscale>
<asrwt>0</asrwt>
<pdfrwt beam="1">  1        1 0.31103799E+00 0.11514894E+04</pdfrwt>
<pdfrwt beam="2">  1       -1 0.19437870E+00 0.11514894E+04</pdfrwt>
<totfact> 0.46892207E-01</totfact>
</mgrwt>
</event>
<event>
 4    1  0.2514307E-008  0.9304490E+03  0.7818608E-02  0.9478820E-01
         -1   -1    0    0    0  501 -0.00000000000E+00  0.00000000000E+00  0.35623422476E+03  0.35623422479E+03  0.50400000000E-02 0.  1.
          1   -1    0    0  501    0  0.00000000000E+00 -0.00000000000E+00 -0.27806525565E+04  0.27806525565E+04  0.50400000000E-02 0. -1.
    8880023    1    1    2    0    0 -0.65054347069E+03 -0.93371956152E+02 -0.41797576822E+03  0.10200191560E+04  0.65864270000E+03 0.  0.
    8880022    1    1    2    0    0  0.65054347069E+03  0.93371956152E+02 -0.20064425635E+04  0.21168676254E+04  0.15294330000E+03 0.  0.
<mgrwt>
<rscale>  0 0.85863510E+03</rscale>
<asrwt>0</asrwt>
<pdfrwt beam="1">  1        1 0.42779269E+00 0.93044900E+03</pdfrwt>
<pdfrwt beam="2">  1       -1 0.54805267E-01 0.93044900E+03</pdfrwt>
<totfact> 0.29935499E+00</totfact>
</mgrwt>
</event>
<event>
 4    1  0.2514307E-008  0.1170738E+04  0.7818608E-02  0.9186105E-01
         -1   -1    0    0    0  501 -0.00000000000E+00  0.00000000000E+00  0.14642840996E+04  0.14642840996E+04  0.50400000000E-02 0.  1.
          1   -1    0    0  501    0  0.00000000000E+00 -0.00000000000E+00 -0.13695543814E+04  0.13695543814E+04  0.50400000000E-02 0. -1.
    8880023    1    1    2    0    0  0.96642205169E+03 -0.53352677712E+02  0.96967565519E+03  0.15201641927E+04  0.65864270000E+03 0.  1.
    8880022    1    1    2    0    0 -0.96642205169E+03  0.53352677712E+02 -0.87494593697E+03  0.13136742883E+04  0.15294330000E+03 0.  0.
<mgrwt>
<rscale>  0 0.11198005E+04</rscale>
<asrwt>0</asrwt>
<pdfrwt beam="1">  1        1 0.21070067E+00 0.11707384E+04</pdfrwt>
<pdfrwt beam="2">  1       -1 0.22527448E+00 0.11707384E+04</pdfrwt>
<totfact> 0.80586750E-01</totfact>
</mgrwt>
</event>
<event>
 4    1  0.2514307E-008  0.1313525E+04  0.7818608E-02  0.9053967E-01
         -1   -1    0    0    0  501 -0.00000000000E+00  0.00000000000E+00  0.22329484944E+04  0.22329484945E+04  0.50400000000E-02 0.  1.
          1   -1    0    0  501    0  0.00000000000E+00 -0.00000000000E+00 -0.83403164836E+03  0.83403164838E+03  0.50400000000E-02 0. -1.
    8880023    1    1    2    0    0 -0.52615574438E+03  0.10073223432E+04  0.14007522440E+04  0.19202747787E+04  0.65864270000E+03 0.  1.
    8880022    1    1    2    0    0  0.52615574438E+03 -0.10073223432E+04 -0.18353979491E+01  0.11467053641E+04  0.15294330000E+03 0.  0.
<mgrwt>
<rscale>  0 0.12696722E+04</rscale>
<asrwt>0</asrwt>
<pdfrwt beam="1">  1        1 0.12831256E+00 0.13135252E+04</pdfrwt>
<pdfrwt beam="2">  1       -1 0.34353053E+00 0.13135252E+04</pdfrwt>
<totfact> 0.34573714E-01</totfact>
</mgrwt>
</event>
<event>
 4    1  0.2514307E-008  0.2181195E+04  0.7818608E-02  0.8536654E-01
          1   -1    0    0  501    0  0.00000000000E+00  0.00000000000E+00  0.34328362450E+04  0.34328362450E+04  0.50400000000E-02 0. -1.
         -1   -1    0    0    0  501 -0.00000000000E+00 -0.00000000000E+00 -0.20008310090E+04  0.20008310090E+04  0.50400000000E-02 0.  1.
    8880023    1    1    2    0    0  0.20685367713E+04 -0.21203180766E+03 -0.85147844663E+03  0.23415011452E+04  0.65864270000E+03 0.  0.
    8880022    1    1    2    0    0 -0.20685367713E+04  0.21203180766E+03  0.22834836826E+04  0.30921661087E+04  0.15294330000E+03 0.  0.
<mgrwt>
<rscale>  0 0.21567361E+04</rscale>
<asrwt>0</asrwt>
<pdfrwt beam="1">  1        1 0.52812865E+00 0.21811951E+04</pdfrwt>
<pdfrwt beam="2">  1       -1 0.30782016E+00 0.21811951E+04</pdfrwt>
<totfact> 0.71817088E-03</totfact>
</mgrwt>
</event>
<event>
 4    1  0.2514307E-008  0.1025637E+04  0.7818608E-02  0.9348759E-01
         -1   -1    0    0    0  501 -0.00000000000E+00  0.00000000000E+00  0.11481231449E+04  0.11481231449E+04  0.50400000000E-02 0.  1.
          1   -1    0    0  501    0  0.00000000000E+00 -0.00000000000E+00 -0.15615328779E+04  0.15615328779E+04  0.50400000000E-02 0. -1.
    8880023    1    1    2    0    0  0.29391485546E+03 -0.72920198695E+03  0.76871879735E+03  0.12817411110E+04  0.65864270000E+03 0.  1.
    8880022    1    1    2    0    0 -0.29391485546E+03  0.72920198695E+03 -0.11821285304E+04  0.14279149118E+04  0.15294330000E+03 0.  0.
<mgrwt>
<rscale>  0 0.96415314E+03</rscale>
<asrwt>0</asrwt>
<pdfrwt beam="1">  1        1 0.24023583E+00 0.10256372E+04</pdfrwt>
<pdfrwt beam="2">  1       -1 0.17663433E+00 0.10256372E+04</pdfrwt>
<totfact> 0.13091840E+00</totfact>
</mgrwt>
</event>
<event>
 4    1  0.2514307E-008  0.6677559E+03  0.7818608E-02  0.1017325E+00
         -1   -1    0    0    0  501 -0.00000000000E+00  0.00000000000E+00  0.28455554651E+03  0.28455554655E+03  0.50400000000E-02 0.  1.
          1   -1    0    0  501    0  0.00000000000E+00 -0.00000000000E+00 -0.15412547034E+04  0.15412547034E+04  0.50400000000E-02 0. -1.
    8880023    1    1    2    0    0  0.10993857681E+03  0.11016973642E+01 -0.12601267371E+03  0.67954183433E+03  0.65864270000E+03 0.  1.
    8880022    1    1    2    0    0 -0.10993857681E+03 -0.11016973642E+01 -0.11306864832E+04  0.11462684156E+04  0.15294330000E+03 0.  0.
<mgrwt>
<rscale>  0 0.48664275E+03</rscale>
<asrwt>0</asrwt>
<pdfrwt beam="1">  1        1 0.23711610E+00 0.66775588E+03</pdfrwt>
<pdfrwt beam="2">  1       -1 0.43777777E-01 0.66775588E+03</pdfrwt>
<totfact> 0.32925895E+01</totfact>
</mgrwt>
</event>
<event>
 4    1  0.2514307E-008  0.8740687E+03  0.7818608E-02  0.9569012E-01
         -1   -1    0    0    0  501 -0.00000000000E+00  0.00000000000E+00  0.11069230784E+04  0.11069230784E+04  0.50400000000E-02 0.  1.
          1   -1    0    0  501    0  0.00000000000E+00 -0.00000000000E+00 -0.74677057788E+03  0.74677057790E+03  0.50400000000E-02 0. -1.
    8880023    1    1    2    0    0 -0.23128132215E+03  0.52601788141E+03 -0.33754668388E+03  0.93698123332E+03  0.65864270000E+03 0. -1.
    8880022    1    1    2    0    0  0.23128132215E+03 -0.52601788141E+03  0.69769918438E+03  0.91671242297E+03  0.15294330000E+03 0.  0.
<mgrwt>
<rscale>  0 0.79381582E+03</rscale>
<asrwt>0</asrwt>
<pdfrwt beam="1">  1        1 0.11488778E+00 0.87406869E+03</pdfrwt>
<pdfrwt beam="2">  1       -1 0.17029586E+00 0.87406869E+03</pdfrwt>
<totfact> 0.61411665E+00</totfact>
</mgrwt>
</event>
<event>
 4    1  0.2514307E-008  0.1482283E+04  0.7818608E-02  0.8922249E-01
         -1   -1    0    0    0  501 -0.00000000000E+00  0.00000000000E+00  0.12154262117E+04  0.12154262117E+04  0.50400000000E-02 0.  1.
          1   -1    0    0  501    0  0.00000000000E+00 -0.00000000000E+00 -0.23293448506E+04  0.23293448506E+04  0.50400000000E-02 0. -1.
    8880023    1    1    2    0    0  0.75017293784E+02  0.13257922577E+04 -0.15442368429E+04  0.21405210437E+04  0.65864270000E+03 0.  0.
    8880022    1    1    2    0    0 -0.75017293784E+02 -0.13257922577E+04  0.43031820403E+03  0.14042500186E+04  0.15294330000E+03 0.  0.
<mgrwt>
<rscale>  0 0.14444621E+04</rscale>
<asrwt>0</asrwt>
<pdfrwt beam="1">  1        1 0.35836075E+00 0.14822830E+04</pdfrwt>
<pdfrwt beam="2">  1       -1 0.18698865E+00 0.14822830E+04</pdfrwt>
<totfact> 0.31260552E-01</totfact>
</mgrwt>
</event>
<event>
 4    1  0.2514307E-008  0.6919023E+03  0.7818608E-02  0.1003261E+00
          1   -1    0    0  501    0  0.00000000000E+00  0.00000000000E+00  0.25426906862E+04  0.25426906862E+04  0.50400000000E-02 0. -1.
         -1   -1    0    0    0  501 -0.00000000000E+00 -0.00000000000E+00 -0.15344539655E+03  0.15344539663E+03  0.50400000000E-02 0.  1.
    8880023    1    1    2    0    0 -0.12249343973E+03  0.17295630429E+03  0.69086961990E+03  0.97776764312E+03  0.65864270000E+03 0.  1.
    8880022    1    1    2    0    0  0.12249343973E+03 -0.17295630429E+03  0.16983756697E+04  0.17183684397E+04  0.15294330000E+03 0.  0.
<mgrwt>
<rscale>  0 0.54243067E+03</rscale>
<asrwt>0</asrwt>
<pdfrwt beam="1">  1        1 0.39118315E+00 0.69190226E+03</pdfrwt>
<pdfrwt beam="2">  1       -1 0.23606986E-01 0.69190226E+03</pdfrwt>
<totfact> 0.20674027E+01</totfact>
</mgrwt>
</event>
<event>
 4    1  0.2514307E-008  0.9904005E+03  0.7818608E-02  0.9394226E-01
          1   -1    0    0  501    0  0.00000000000E+00  0.00000000000E+00  0.16233883206E+04  0.16233883206E+04  0.50400000000E-02 0. -1.
         -1   -1    0    0    0  501 -0.00000000000E+00 -0.00000000000E+00 -0.17160723832E+04  0.17160723832E+04  0.50400000000E-02 0.  1.
    8880023    1    1    2    0    0  0.69763314211E+03 -0.24574562574E+03 -0.14677317393E+04  0.17706297124E+04  0.65864270000E+03 0.  0.
    8880022    1    1    2    0    0 -0.69763314211E+03  0.24574562574E+03  0.13750476767E+04  0.15688309915E+04  0.15294330000E+03 0.  0.
<mgrwt>
<rscale>  0 0.92552397E+03</rscale>
<asrwt>0</asrwt>
<pdfrwt beam="1">  1        1 0.24975205E+00 0.99040048E+03</pdfrwt>
<pdfrwt beam="2">  1       -1 0.26401114E+00 0.99040048E+03</pdfrwt>
<totfact> 0.30861020E-01</totfact>
</mgrwt>
</event>
<event>
 4    1  0.2514307E-008  0.8373355E+03  0.7818608E-02  0.9635225E-01
         -1   -1    0    0    0  501 -0.00000000000E+00  0.00000000000E+00  0.10350327137E+04  0.10350327137E+04  0.50400000000E-02 0.  1.
          1   -1    0    0  501    0  0.00000000000E+00 -0.00000000000E+00 -0.13219819733E+04  0.13219819733E+04  0.50400000000E-02 0. -1.
    8880023    1    1    2    0    0 -0.50616783375E+03  0.10542596089E+03  0.79091587324E+03  0.11518153645E+04  0.65864270000E+03 0.  0.
    8880022    1    1    2    0    0  0.50616783375E+03 -0.10542596089E+03 -0.10778651329E+04  0.12051993225E+04  0.15294330000E+03 0.  0.
<mgrwt>
<rscale>  0 0.75007989E+03</rscale>
<asrwt>0</asrwt>
<pdfrwt beam="1">  1        1 0.20338184E+00 0.83733549E+03</pdfrwt>
<pdfrwt beam="2">  1       -1 0.15923580E+00 0.83733549E+03</pdfrwt>
<totfact> 0.26566585E+00</totfact>
</mgrwt>
</event>
<event>
 4    1  0.2514307E-008  0.7039465E+03  0.7818608E-02  0.9981207E-01
          1   -1    0    0  501    0  0.00000000000E+00  0.00000000000E+00  0.25935866076E+04  0.25935866076E+04  0.50400000000E-02 0. -1.
         -1   -1    0    0    0  501 -0.00000000000E+00 -0.00000000000E+00 -0.20186134355E+03  0.20186134362E+03  0.50400000000E-02 0.  1.
    8880023    1    1    2    0    0 -0.19046928248E+03 -0.15953650235E+03  0.45797183603E+03  0.83980881873E+03  0.65864270000E+03 0.  0.
    8880022    1    1    2    0    0  0.19046928248E+03  0.15953650235E+03  0.19337534280E+04  0.19556391325E+04  0.15294330000E+03 0.  0.
<mgrwt>
<rscale>  0 0.56481994E+03</rscale>
<asrwt>0</asrwt>
<pdfrwt beam="1">  1        1 0.39901329E+00 0.70394648E+03</pdfrwt>
<pdfrwt beam="2">  1       -1 0.31055594E-01 0.70394648E+03</pdfrwt>
<totfact> 0.11881888E+01</totfact>
</mgrwt>
</event>
<event>
 4    1  0.2514307E-008  0.9370232E+03  0.7818608E-02  0.9469036E-01
          1   -1    0    0  501    0  0.00000000000E+00  0.00000000000E+00  0.81012480213E+03  0.81012480214E+03  0.50400000000E-02 0. -1.
         -1   -1    0    0    0  501 -0.00000000000E+00 -0.00000000000E+00 -0.12708118134E+04  0.12708118134E+04  0.50400000000E-02 0.  1.
    8880023    1    1    2    0    0 -0.33535264070E+03 -0.57596946770E+03 -0.87446832877E+03  0.12816814291E+04  0.65864270000E+03 0.  0.
    8880022    1    1    2    0    0  0.33535264070E+03  0.57596946770E+03  0.41378131751E+03  0.79925518646E+03  0.15294330000E+03 0.  0.
<mgrwt>
<rscale>  0 0.86605675E+03</rscale>
<asrwt>0</asrwt>
<pdfrwt beam="1">  1        1 0.12463458E+00 0.93702317E+03</pdfrwt>
<pdfrwt beam="2">  1       -1 0.19550951E+00 0.93702317E+03</pdfrwt>
<totfact> 0.35434297E+00</totfact>
</mgrwt>
</event>
<event>
 4    1  0.2514307E-008  0.6883766E+03  0.7818608E-02  0.1004934E+00
         -1   -1    0    0    0  501 -0.00000000000E+00  0.00000000000E+00  0.42886370440E+03  0.42886370443E+03  0.50400000000E-02 0.  1.
          1   -1    0    0  501    0  0.00000000000E+00 -0.00000000000E+00 -0.72806685448E+03  0.72806685450E+03  0.50400000000E-02 0. -1.
    8880023    1    1    2    0    0  0.50341270212E+02 -0.19369537614E+03  0.89068086879E+02  0.69411488429E+03  0.65864270000E+03 0.  1.
    8880022    1    1    2    0    0 -0.50341270212E+02  0.19369537614E+03 -0.38827123697E+03  0.46281567464E+03  0.15294330000E+03 0.  0.
<mgrwt>
<rscale>  0 0.53538749E+03</rscale>
<asrwt>0</asrwt>
<pdfrwt beam="1">  1        1 0.11201029E+00 0.68837660E+03</pdfrwt>
<pdfrwt beam="2">  1       -1 0.65979031E-01 0.68837660E+03</pdfrwt>
<totfact> 0.61330045E+01</totfact>
</mgrwt>
</event>
<event>
 4    1  0.2514307E-008  0.7248336E+03  0.7818608E-02  0.9906558E-01
         -1   -1    0    0    0  501 -0.00000000000E+00  0.00000000000E+00  0.60970919974E+03  0.60970919976E+03  0.50400000000E-02 0.  1.
          1   -1    0    0  501    0  0.00000000000E+00 -0.00000000000E+00 -0.10181291678E+04  0.10181291678E+04  0.50400000000E-02 0. -1.
    8880023    1    1    2    0    0  0.29807509780E+03 -0.52198911465E+02  0.34417046560E+03  0.80239454506E+03  0.65864270000E+03 0.  0.
    8880022    1    1    2    0    0 -0.29807509780E+03  0.52198911465E+02 -0.75259043369E+03  0.82544382255E+03  0.15294330000E+03 0.  0.
<mgrwt>
<rscale>  0 0.59944521E+03</rscale>
<asrwt>0</asrwt>
<pdfrwt beam="1">  1        1 0.15663526E+00 0.72483356E+03</pdfrwt>
<pdfrwt beam="2">  1       -1 0.93801416E-01 0.72483356E+03</pdfrwt>
<totfact> 0.16676981E+01</totfact>
</mgrwt>
</event>
<event>
 4    1  0.2514307E-008  0.7560451E+03  0.7818608E-02  0.9815456E-01
         -1   -1    0    0    0  501 -0.00000000000E+00  0.00000000000E+00  0.22014408246E+03  0.22014408251E+03  0.50400000000E-02 0.  1.
          1   -1    0    0  501    0  0.00000000000E+00 -0.00000000000E+00 -0.15217106992E+04  0.15217106992E+04  0.50400000000E-02 0. -1.
    8880023    1    1    2    0    0  0.21849984161E+03 -0.30008632523E+03 -0.85794429219E+03  0.11435351320E+04  0.65864270000E+03 0.  1.
    8880022    1    1    2    0    0 -0.21849984161E+03  0.30008632523E+03 -0.44362232455E+03  0.59831964971E+03  0.15294330000E+03 0. -1.
<mgrwt>
<rscale>  0 0.64539644E+03</rscale>
<asrwt>0</asrwt>
<pdfrwt beam="1">  1        1 0.23410933E+00 0.75604510E+03</pdfrwt>
<pdfrwt beam="2">  1       -1 0.33868321E-01 0.75604510E+03</pdfrwt>
<totfact> 0.53408017E+01</totfact>
</mgrwt>
</event>
<event>
 4    1  0.2514307E-008  0.8242298E+03  0.7818608E-02  0.9660665E-01
          1   -1    0    0  501    0  0.00000000000E+00  0.00000000000E+00  0.56460554721E+03  0.56460554723E+03  0.50400000000E-02 0. -1.
         -1   -1    0    0    0  501 -0.00000000000E+00 -0.00000000000E+00 -0.12741732573E+04  0.12741732573E+04  0.50400000000E-02 0.  1.
    8880023    1    1    2    0    0 -0.35788905714E+03  0.34272430256E+03 -0.95798426968E+03  0.12637597050E+04  0.65864270000E+03 0.  1.
    8880022    1    1    2    0    0  0.35788905714E+03 -0.34272430256E+03  0.24841655956E+03  0.57501909956E+03  0.15294330000E+03 0.  0.
<mgrwt>
<rscale>  0 0.73407829E+03</rscale>
<asrwt>0</asrwt>
<pdfrwt beam="1">  1        1 0.86862392E-01 0.82422978E+03</pdfrwt>
<pdfrwt beam="2">  1       -1 0.19602665E+00 0.82422978E+03</pdfrwt>
<totfact> 0.61394595E+00</totfact>
</mgrwt>
</event>
<event>
 4    1  0.2514307E-008  0.6876701E+03  0.7818608E-02  0.1005280E+00
         -1   -1    0    0    0  501 -0.00000000000E+00  0.00000000000E+00  0.76466722315E+03  0.76466722317E+03  0.50400000000E-02 0.  1.
          1   -1    0    0  501    0  0.00000000000E+00 -0.00000000000E+00 -0.57785776479E+03  0.57785776482E+03  0.50400000000E-02 0. -1.
    8880023    1    1    2    0    0  0.19713835749E+03  0.14710849356E+02  0.56445241829E+03  0.88966099153E+03  0.65864270000E+03 0.  1.
    8880022    1    1    2    0    0 -0.19713835749E+03 -0.14710849356E+02 -0.37764295993E+03  0.45286399645E+03  0.15294330000E+03 0.  0.
<mgrwt>
<rscale>  0 0.53394365E+03</rscale>
<asrwt>0</asrwt>
<pdfrwt beam="1">  1        1 0.88901195E-01 0.68767009E+03</pdfrwt>
<pdfrwt beam="2">  1       -1 0.11764111E+00 0.68767009E+03</pdfrwt>
<totfact> 0.24253686E+01</totfact>
</mgrwt>
</event>
<event>
 4    1  0.2514307E-008  0.7120595E+03  0.7818608E-02  0.9950431E-01
         -1   -1    0    0    0  501 -0.00000000000E+00  0.00000000000E+00  0.20499768082E+04  0.20499768082E+04  0.50400000000E-02 0.  1.
          1   -1    0    0  501    0  0.00000000000E+00 -0.00000000000E+00 -0.63160954423E+03  0.63160954425E+03  0.50400000000E-02 0. -1.
    8880023    1    1    2    0    0 -0.25535914488E+03 -0.89499619920E+02  0.19443475812E+04  0.20706318354E+04  0.65864270000E+03 0.  1.
    8880022    1    1    2    0    0  0.25535914488E+03  0.89499619920E+02 -0.52598031722E+03  0.61095451710E+03  0.15294330000E+03 0.  0.
<mgrwt>
<rscale>  0 0.57878202E+03</rscale>
<asrwt>0</asrwt>
<pdfrwt beam="1">  1        1 0.97170698E-01 0.71205946E+03</pdfrwt>
<pdfrwt beam="2">  1       -1 0.31538105E+00 0.71205946E+03</pdfrwt>
<totfact> 0.88955987E-01</totfact>
</mgrwt>
</event>
<event>
 4    1  0.2514307E-008  0.6692096E+03  0.7818608E-02  0.1016236E+00
          1   -1    0    0  501    0  0.00000000000E+00  0.00000000000E+00  0.11397580333E+04  0.11397580333E+04  0.50400000000E-02 0. -1.
         -1   -1    0    0    0  501 -0.00000000000E+00 -0.00000000000E+00 -0.10339417943E+04  0.10339417943E+04  0.50400000000E-02 0.  1.
    8880023    1    1    2    0    0  0.10657471901E+03  0.51702623516E+02 -0.91561883723E+03  0.11341073112E+04  0.65864270000E+03 0.  1.
    8880022    1    1    2    0    0 -0.10657471901E+03 -0.51702623516E+02  0.10214350762E+04  0.10395925163E+04  0.15294330000E+03 0.  0.
<mgrwt>
<rscale>  0 0.49069761E+03</rscale>
<asrwt>0</asrwt>
<pdfrwt beam="1">  1        1 0.17534739E+00 0.66920964E+03</pdfrwt>
<pdfrwt beam="2">  1       -1 0.15906797E+00 0.66920964E+03</pdfrwt>
<totfact> 0.37087758E+00</totfact>
</mgrwt>
</event>
<event>
 4    1  0.2514307E-008  0.9484950E+03  0.7818608E-02  0.9452283E-01
          1   -1    0    0  501    0  0.00000000000E+00  0.00000000000E+00  0.29938905410E+04  0.29938905410E+04  0.50400000000E-02 0. -1.
         -1   -1    0    0    0  501 -0.00000000000E+00 -0.00000000000E+00 -0.35341757621E+03  0.35341757624E+03  0.50400000000E-02 0.  1.
    8880023    1    1    2    0    0  0.44691030637E+03 -0.51585245209E+03  0.45374320124E+03  0.10514398096E+04  0.65864270000E+03 0.  0.
    8880022    1    1    2    0    0 -0.44691030637E+03  0.51585245209E+03  0.21867297635E+04  0.22958683076E+04  0.15294330000E+03 0.  0.
<mgrwt>
<rscale>  0 0.87895124E+03</rscale>
<asrwt>0</asrwt>
<pdfrwt beam="1">  1        1 0.46059853E+00 0.94849501E+03</pdfrwt>
<pdfrwt beam="2">  1       -1 0.54371937E-01 0.94849501E+03</pdfrwt>
<totfact> 0.21377770E+00</totfact>
</mgrwt>
</event>
<event>
 4    1  0.2514307E-008  0.7374402E+03  0.7818608E-02  0.9867467E-01
          1   -1    0    0  501    0  0.00000000000E+00  0.00000000000E+00  0.14874431009E+04  0.14874431010E+04  0.50400000000E-02 0. -1.
         -1   -1    0    0    0  501 -0.00000000000E+00 -0.00000000000E+00 -0.70340686514E+03  0.70340686516E+03  0.50400000000E-02 0.  1.
    8880023    1    1    2    0    0 -0.10900720006E+02  0.33149504498E+03 -0.47681534465E+03  0.87816335024E+03  0.65864270000E+03 0.  1.
    8880022    1    1    2    0    0  0.10900720006E+02 -0.33149504498E+03  0.12608515805E+04  0.13126866159E+04  0.15294330000E+03 0.  0.
<mgrwt>
<rscale>  0 0.61864192E+03</rscale>
<asrwt>0</asrwt>
<pdfrwt beam="1">  1        1 0.22883740E+00 0.73744016E+03</pdfrwt>
<pdfrwt beam="2">  1       -1 0.10821644E+00 0.73744016E+03</pdfrwt>
<totfact> 0.55241402E+00</totfact>
</mgrwt>
</event>
<event>
 4    1  0.2514307E-008  0.7364825E+03  0.7818608E-02  0.9870314E-01
         -1   -1    0    0    0  501 -0.00000000000E+00  0.00000000000E+00  0.57065351165E+03  0.57065351167E+03  0.50400000000E-02 0.  1.
          1   -1    0    0  501    0  0.00000000000E+00 -0.00000000000E+00 -0.15441214204E+04  0.15441214205E+04  0.50400000000E-02 0. -1.
    8880023    1    1    2    0    0  0.16987039012E+03  0.28238332198E+03  0.29645322384E+03  0.79390869132E+03  0.65864270000E+03 0.  1.
    8880022    1    1    2    0    0 -0.16987039012E+03 -0.28238332198E+03 -0.12699211326E+04  0.13208662408E+04  0.15294330000E+03 0.  0.
<mgrwt>
<rscale>  0 0.61721804E+03</rscale>
<asrwt>0</asrwt>
<pdfrwt beam="1">  1        1 0.23755714E+00 0.73648252E+03</pdfrwt>
<pdfrwt beam="2">  1       -1 0.87792849E-01 0.73648252E+03</pdfrwt>
<totfact> 0.81085061E+00</totfact>
</mgrwt>
</event>
<event>
 4    1  0.2514307E-008  0.1608055E+04  0.7818608E-02  0.8836877E-01
         -1   -1    0    0    0  501 -0.00000000000E+00  0.00000000000E+00  0.11615693043E+04  0.11615693043E+04  0.50400000000E-02 0.  1.
          1   -1    0    0  501    0  0.00000000000E+00 -0.00000000000E+00 -0.22252540367E+04  0.22252540367E+04  0.50400000000E-02 0. -1.
    8880023    1    1    2    0    0  0.14096131085E+04 -0.40622980743E+03 -0.10335928695E+04  0.19115847348E+04  0.65864270000E+03 0.  1.
    8880022    1    1    2    0    0 -0.14096131085E+04  0.40622980743E+03 -0.30091862852E+02  0.14752386062E+04  0.15294330000E+03 0.  0.
<mgrwt>
<rscale>  0 0.15736883E+04</rscale>
<asrwt>0</asrwt>
<pdfrwt beam="1">  1        1 0.34234678E+00 0.16080553E+04</pdfrwt>
<pdfrwt beam="2">  1       -1 0.17870297E+00 0.16080553E+04</pdfrwt>
<totfact> 0.41663748E-01</totfact>
</mgrwt>
</event>
<event>
 4    1  0.2514307E-008  0.7102315E+03  0.7818608E-02  0.9957142E-01
         -1   -1    0    0    0  501 -0.00000000000E+00  0.00000000000E+00  0.48544696193E+03  0.48544696196E+03  0.50400000000E-02 0.  1.
          1   -1    0    0  501    0  0.00000000000E+00 -0.00000000000E+00 -0.15320418314E+04  0.15320418314E+04  0.50400000000E-02 0. -1.
    8880023    1    1    2    0    0  0.15532311402E+03  0.21562317237E+03  0.19668257743E+03  0.73696191539E+03  0.65864270000E+03 0.  1.
    8880022    1    1    2    0    0 -0.15532311402E+03 -0.21562317237E+03 -0.12432774469E+04  0.12805268780E+04  0.15294330000E+03 0.  0.
<mgrwt>
<rscale>  0 0.57570086E+03</rscale>
<asrwt>0</asrwt>
<pdfrwt beam="1">  1        1 0.23569874E+00 0.71023153E+03</pdfrwt>
<pdfrwt beam="2">  1       -1 0.74684149E-01 0.71023153E+03</pdfrwt>
<totfact> 0.11708380E+01</totfact>
</mgrwt>
</event>
<event>
 4    1  0.2514307E-008  0.6797782E+03  0.7818608E-02  0.1009449E+00
         -1   -1    0    0    0  501 -0.00000000000E+00  0.00000000000E+00  0.22729299402E+04  0.22729299402E+04  0.50400000000E-02 0.  1.
          1   -1    0    0  501    0  0.00000000000E+00 -0.00000000000E+00 -0.44534457466E+03  0.44534457469E+03  0.50400000000E-02 0. -1.
    8880023    1    1    2    0    0 -0.22266617690E+02 -0.16671039960E+03  0.21885486170E+04  0.22916900783E+04  0.65864270000E+03 0.  1.
    8880022    1    1    2    0    0  0.22266617690E+02  0.16671039960E+03 -0.36096325149E+03  0.42658443659E+03  0.15294330000E+03 0.  0.
<mgrwt>
<rscale>  0 0.51694046E+03</rscale>
<asrwt>0</asrwt>
<pdfrwt beam="1">  1        1 0.68514551E-01 0.67977817E+03</pdfrwt>
<pdfrwt beam="2">  1       -1 0.34968152E+00 0.67977817E+03</pdfrwt>
<totfact> 0.87435373E-01</totfact>
</mgrwt>
</event>
<event>
 4    1  0.2514307E-008  0.1884347E+04  0.7818608E-02  0.8677260E-01
          1   -1    0    0  501    0  0.00000000000E+00  0.00000000000E+00  0.11883370850E+04  0.11883370850E+04  0.50400000000E-02 0. -1.
         -1   -1    0    0    0  501 -0.00000000000E+00 -0.00000000000E+00 -0.35717834406E+04  0.35717834407E+04  0.50400000000E-02 0.  1.
    8880023    1    1    2    0    0  0.73387987842E+03 -0.16057310476E+04 -0.23173551459E+04  0.29867870617E+04  0.65864270000E+03 0.  0.
    8880022    1    1    2    0    0 -0.73387987842E+03  0.16057310476E+04 -0.66091209799E+02  0.17733334639E+04  0.15294330000E+03 0.  0.
<mgrwt>
<rscale>  0 0.18556358E+04</rscale>
<asrwt>0</asrwt>
<pdfrwt beam="1">  1        1 0.18282109E+00 0.18843466E+04</pdfrwt>
<pdfrwt beam="2">  1       -1 0.54950514E+00 0.18843466E+04</pdfrwt>
<totfact> 0.73348675E-03</totfact>
</mgrwt>
</event>
<event>
 4    1  0.2514307E-008  0.8404267E+03  0.7818608E-02  0.9629376E-01
         -1   -1    0    0    0  501 -0.00000000000E+00  0.00000000000E+00  0.45894885428E+03  0.45894885431E+03  0.50400000000E-02 0.  1.
          1   -1    0    0  501    0  0.00000000000E+00 -0.00000000000E+00 -0.18282314082E+04  0.18282314082E+04  0.50400000000E-02 0. -1.
    8880023    1    1    2    0    0 -0.25083261908E+03 -0.45780978535E+03 -0.29235223488E+02  0.84093501943E+03  0.65864270000E+03 0.  0.
    8880022    1    1    2    0    0  0.25083261908E+03  0.45780978535E+03 -0.13400473305E+04  0.14462452431E+04  0.15294330000E+03 0.  0.
<mgrwt>
<rscale>  0 0.75382010E+03</rscale>
<asrwt>0</asrwt>
<pdfrwt beam="1">  1        1 0.28126637E+00 0.84042668E+03</pdfrwt>
<pdfrwt beam="2">  1       -1 0.70607517E-01 0.84042668E+03</pdfrwt>
<totfact> 0.81392925E+00</totfact>
</mgrwt>
</event>
<event>
 4    1  0.2514307E-008  0.6945867E+03  0.7818608E-02  0.1002044E+00
         -1   -1    0    0    0  501 -0.00000000000E+00  0.00000000000E+00  0.21423202982E+03  0.21423202988E+03  0.50400000000E-02 0.  1.
          1   -1    0    0  501    0  0.00000000000E+00 -0.00000000000E+00 -0.14315920505E+04  0.14315920505E+04  0.50400000000E-02 0. -1.
    8880023    1    1    2    0    0  0.17408890194E+03  0.13540131096E+03 -0.43705074733E+03  0.82064853792E+03  0.65864270000E+03 0.  1.
    8880022    1    1    2    0    0 -0.17408890194E+03 -0.13540131096E+03 -0.78030927336E+03  0.82517554247E+03  0.15294330000E+03 0.  0.
<mgrwt>
<rscale>  0 0.54762796E+03</rscale>
<asrwt>0</asrwt>
<pdfrwt beam="1">  1        1 0.22024492E+00 0.69458669E+03</pdfrwt>
<pdfrwt beam="2">  1       -1 0.32958775E-01 0.69458669E+03</pdfrwt>
<totfact> 0.65047497E+01</totfact>
</mgrwt>
</event>
<event>
 4    1  0.2514307E-008  0.1044140E+04  0.7818608E-02  0.9325959E-01
          1   -1    0    0  501    0  0.00000000000E+00  0.00000000000E+00  0.42161942823E+03  0.42161942826E+03  0.50400000000E-02 0. -1.
         -1   -1    0    0    0  501 -0.00000000000E+00 -0.00000000000E+00 -0.23156603812E+04  0.23156603812E+04  0.50400000000E-02 0.  1.
    8880023    1    1    2    0    0 -0.73270444402E+03  0.34577876052E+03 -0.14891177947E+04  0.18187085435E+04  0.65864270000E+03 0.  0.
    8880022    1    1    2    0    0  0.73270444402E+03 -0.34577876052E+03 -0.40492315827E+03  0.91857126595E+03  0.15294330000E+03 0.  0.
<mgrwt>
<rscale>  0 0.98427764E+03</rscale>
<asrwt>0</asrwt>
<pdfrwt beam="1">  1        1 0.64864529E-01 0.10441403E+04</pdfrwt>
<pdfrwt beam="2">  1       -1 0.35625543E+00 0.10441403E+04</pdfrwt>
<totfact> 0.80183264E-01</totfact>
</mgrwt>
</event>
<event>
 4    1  0.2514307E-008  0.7004238E+03  0.7818608E-02  0.9995448E-01
         -1   -1    0    0    0  501 -0.00000000000E+00  0.00000000000E+00  0.51134582815E+03  0.51134582817E+03  0.50400000000E-02 0.  1.
          1   -1    0    0  501    0  0.00000000000E+00 -0.00000000000E+00 -0.80827399547E+03  0.80827399548E+03  0.50400000000E-02 0. -1.
    8880023    1    1    2    0    0 -0.59811743861E+02  0.23066388533E+03  0.21664415692E+03  0.73316312625E+03  0.65864270000E+03 0.  1.
    8880022    1    1    2    0    0  0.59811743861E+02 -0.23066388533E+03 -0.51357232424E+03  0.58645669741E+03  0.15294330000E+03 0.  0.
<mgrwt>
<rscale>  0 0.55850297E+03</rscale>
<asrwt>0</asrwt>
<pdfrwt beam="1">  1        1 0.12434984E+00 0.70042379E+03</pdfrwt>
<pdfrwt beam="2">  1       -1 0.78668589E-01 0.70042379E+03</pdfrwt>
<totfact> 0.36208412E+01</totfact>
</mgrwt>
</event>
<event>
 4    1  0.2514307E-008  0.7685382E+03  0.7818608E-02  0.9783484E-01
         -1   -1    0    0    0  501 -0.00000000000E+00  0.00000000000E+00  0.67990225306E+03  0.67990225307E+03  0.50400000000E-02 0.  1.
          1   -1    0    0  501    0  0.00000000000E+00 -0.00000000000E+00 -0.82575506431E+03  0.82575506433E+03  0.50400000000E-02 0. -1.
    8880023    1    1    2    0    0  0.32242572225E+03  0.22996184197E+03  0.35712753000E+03  0.84746154726E+03  0.65864270000E+03 0.  0.
    8880022    1    1    2    0    0 -0.32242572225E+03 -0.22996184197E+03 -0.50298034126E+03  0.65819577015E+03  0.15294330000E+03 0.  0.
<mgrwt>
<rscale>  0 0.66256460E+03</rscale>
<asrwt>0</asrwt>
<pdfrwt beam="1">  1        1 0.12703924E+00 0.76853822E+03</pdfrwt>
<pdfrwt beam="2">  1       -1 0.10460035E+00 0.76853822E+03</pdfrwt>
<totfact> 0.18507816E+01</totfact>
</mgrwt>
</event>
<event>
 4    1  0.2514307E-008  0.9508766E+03  0.7818608E-02  0.9448854E-01
         -1   -1    0    0    0  501 -0.00000000000E+00  0.00000000000E+00  0.97224934320E+03  0.97224934321E+03  0.50400000000E-02 0.  1.
          1   -1    0    0  501    0  0.00000000000E+00 -0.00000000000E+00 -0.97453622896E+03  0.97453622897E+03  0.50400000000E-02 0. -1.
    8880023    1    1    2    0    0 -0.67849786381E+03 -0.99983861889E+02  0.50828807450E+03  0.10782036435E+04  0.65864270000E+03 0.  0.
    8880022    1    1    2    0    0  0.67849786381E+03  0.99983861889E+02 -0.51057496026E+03  0.86858192872E+03  0.15294330000E+03 0.  0.
<mgrwt>
<rscale>  0 0.88161966E+03</rscale>
<asrwt>0</asrwt>
<pdfrwt beam="1">  1        1 0.14992865E+00 0.95087661E+03</pdfrwt>
<pdfrwt beam="2">  1       -1 0.14957682E+00 0.95087661E+03</pdfrwt>
<totfact> 0.56166598E+00</totfact>
</mgrwt>
</event>
<event>
 4    1  0.2514307E-008  0.1562828E+04  0.7818608E-02  0.8866499E-01
         -1   -1    0    0    0  501 -0.00000000000E+00  0.00000000000E+00  0.20440184179E+04  0.20440184179E+04  0.50400000000E-02 0.  1.
          1   -1    0    0  501    0  0.00000000000E+00 -0.00000000000E+00 -0.15621476539E+04  0.15621476539E+04  0.50400000000E-02 0. -1.
    8880023    1    1    2    0    0  0.13951974064E+04  0.24909047809E+03 -0.73953799192E+03  0.17289732551E+04  0.65864270000E+03 0. -1.
    8880022    1    1    2    0    0 -0.13951974064E+04 -0.24909047809E+03  0.12214087560E+04  0.18771928167E+04  0.15294330000E+03 0.  0.
<mgrwt>
<rscale>  0 0.15272997E+04</rscale>
<asrwt>0</asrwt>
<pdfrwt beam="1">  1        1 0.24033041E+00 0.15628282E+04</pdfrwt>
<pdfrwt beam="2">  1       -1 0.31446437E+00 0.15628282E+04</pdfrwt>
<totfact> 0.14787348E-01</totfact>
</mgrwt>
</event>
<event>
 4    1  0.2514307E-008  0.7582768E+03  0.7818608E-02  0.9809589E-01
          1   -1    0    0  501    0  0.00000000000E+00  0.00000000000E+00  0.17506101787E+04  0.17506101787E+04  0.50400000000E-02 0. -1.
         -1   -1    0    0    0  501 -0.00000000000E+00 -0.00000000000E+00 -0.25238461742E+03  0.25238461747E+03  0.50400000000E-02 0.  1.
    8880023    1    1    2    0    0 -0.30328882226E+03 -0.22178673654E+03  0.45653820547E+03  0.88510496865E+03  0.65864270000E+03 0.  0.
    8880022    1    1    2    0    0  0.30328882226E+03  0.22178673654E+03  0.10416873558E+04  0.11178898275E+04  0.15294330000E+03 0.  0.
<mgrwt>
<rscale>  0 0.64850457E+03</rscale>
<asrwt>0</asrwt>
<pdfrwt beam="1">  1        1 0.26932465E+00 0.75827678E+03</pdfrwt>
<pdfrwt beam="2">  1       -1 0.38828401E-01 0.75827678E+03</pdfrwt>
<totfact> 0.29263966E+01</totfact>
</mgrwt>
</event>
<event>
 4    1  0.2514307E-008  0.7147945E+03  0.7818608E-02  0.9940610E-01
         -1   -1    0    0    0  501 -0.00000000000E+00  0.00000000000E+00  0.30846441136E+03  0.30846441140E+03  0.50400000000E-02 0.  1.
          1   -1    0    0  501    0  0.00000000000E+00 -0.00000000000E+00 -0.10148009523E+04  0.10148009524E+04  0.50400000000E-02 0. -1.
    8880023    1    1    2    0    0 -0.22149551566E+03  0.16751351876E+03 -0.22965510862E+03  0.75078140467E+03  0.65864270000E+03 0.  1.
    8880022    1    1    2    0    0  0.22149551566E+03 -0.16751351876E+03 -0.47668143237E+03  0.57248395908E+03  0.15294330000E+03 0.  0.
<mgrwt>
<rscale>  0 0.58332896E+03</rscale>
<asrwt>0</asrwt>
<pdfrwt beam="1">  1        1 0.15612322E+00 0.71479455E+03</pdfrwt>
<pdfrwt beam="2">  1       -1 0.47456064E-01 0.71479455E+03</pdfrwt>
<totfact> 0.66971228E+01</totfact>
</mgrwt>
</event>
<event>
 4    1  0.2514307E-008  0.8942354E+03  0.7818608E-02  0.9535350E-01
          1   -1    0    0  501    0  0.00000000000E+00  0.00000000000E+00  0.82554340176E+03  0.82554340178E+03  0.50400000000E-02 0. -1.
         -1   -1    0    0    0  501 -0.00000000000E+00 -0.00000000000E+00 -0.19207580689E+04  0.19207580689E+04  0.50400000000E-02 0.  1.
    8880023    1    1    2    0    0 -0.60120269037E+03  0.66347426155E+02 -0.16723401485E+04  0.18964119896E+04  0.65864270000E+03 0.  1.
    8880022    1    1    2    0    0  0.60120269037E+03 -0.66347426155E+02  0.57712548132E+03  0.84988948109E+03  0.15294330000E+03 0.  0.
<mgrwt>
<rscale>  0 0.81727050E+03</rscale>
<asrwt>0</asrwt>
<pdfrwt beam="1">  1        1 0.12700668E+00 0.89423535E+03</pdfrwt>
<pdfrwt beam="2">  1       -1 0.29550124E+00 0.89423535E+03</pdfrwt>
<totfact> 0.76459252E-01</totfact>
</mgrwt>
</event>
<event>
 4    1  0.2514307E-008  0.7919287E+03  0.7818608E-02  0.9728527E-01
          1   -1    0    0  501    0  0.00000000000E+00  0.00000000000E+00  0.10066105753E+04  0.10066105753E+04  0.50400000000E-02 0. -1.
         -1   -1    0    0    0  501 -0.00000000000E+00 -0.00000000000E+00 -0.22054452178E+04  0.22054452178E+04  0.50400000000E-02 0.  1.
    8880023    1    1    2    0    0  0.43320891788E+03 -0.75305229643E+02 -0.20743957773E+04  0.22204208815E+04  0.65864270000E+03 0.  1.
    8880022    1    1    2    0    0 -0.43320891788E+03  0.75305229643E+02  0.87556113476E+03  0.99163491158E+03  0.15294330000E+03 0.  0.
<mgrwt>
<rscale>  0 0.69343389E+03</rscale>
<asrwt>0</asrwt>
<pdfrwt beam="1">  1        1 0.15486317E+00 0.79192869E+03</pdfrwt>
<pdfrwt beam="2">  1       -1 0.33929926E+00 0.79192869E+03</pdfrwt>
<totfact> 0.29013992E-01</totfact>
</mgrwt>
</event>
<event>
 4    1  0.2514307E-008  0.1204678E+04  0.7818608E-02  0.9152588E-01
          1   -1    0    0  501    0  0.00000000000E+00  0.00000000000E+00  0.33119279487E+04  0.33119279487E+04  0.50400000000E-02 0. -1.
         -1   -1    0    0    0  501 -0.00000000000E+00 -0.00000000000E+00 -0.10624431850E+04  0.10624431851E+04  0.50400000000E-02 0.  1.
    8880023    1    1    2    0    0  0.65918191548E+03  0.76349112513E+03 -0.60139074282E+03  0.13464473728E+04  0.65864270000E+03 0.  0.
    8880022    1    1    2    0    0 -0.65918191548E+03 -0.76349112513E+03  0.28508755064E+04  0.30279237609E+04  0.15294330000E+03 0.  0.
<mgrwt>
<rscale>  0 0.11556487E+04</rscale>
<asrwt>0</asrwt>
<pdfrwt beam="1">  1        1 0.50952738E+00 0.12046783E+04</pdfrwt>
<pdfrwt beam="2">  1       -1 0.16345280E+00 0.12046783E+04</pdfrwt>
<totfact> 0.95887721E-02</totfact>
</mgrwt>
</event>
<event>
 4    1  0.2514307E-008  0.8967780E+03  0.7818608E-02  0.9531224E-01
          1   -1    0    0  501    0  0.00000000000E+00  0.00000000000E+00  0.21996320145E+04  0.21996320145E+04  0.50400000000E-02 0. -1.
         -1   -1    0    0    0  501 -0.00000000000E+00 -0.00000000000E+00 -0.97737350833E+03  0.97737350834E+03  0.50400000000E-02 0.  1.
    8880023    1    1    2    0    0  0.33416707757E+03 -0.50865803759E+03 -0.71100962600E+03  0.11444411429E+04  0.65864270000E+03 0.  0.
    8880022    1    1    2    0    0 -0.33416707757E+03  0.50865803759E+03  0.19332681322E+04  0.20325643800E+04  0.15294330000E+03 0.  0.
<mgrwt>
<rscale>  0 0.82020445E+03</rscale>
<asrwt>0</asrwt>
<pdfrwt beam="1">  1        1 0.33840493E+00 0.89677803E+03</pdfrwt>
<pdfrwt beam="2">  1       -1 0.15036515E+00 0.89677803E+03</pdfrwt>
<totfact> 0.77983876E-01</totfact>
</mgrwt>
</event>
<event>
 4    1  0.2514307E-008  0.8185246E+03  0.7818608E-02  0.9672087E-01
          1   -1    0    0  501    0  0.00000000000E+00  0.00000000000E+00  0.13013006613E+04  0.13013006613E+04  0.50400000000E-02 0. -1.
         -1   -1    0    0    0  501 -0.00000000000E+00 -0.00000000000E+00 -0.24335858700E+04  0.24335858700E+04  0.50400000000E-02 0.  1.
    8880023    1    1    2    0    0 -0.17256098559E+03 -0.45430725887E+03 -0.23105190552E+04  0.24512202859E+04  0.65864270000E+03 0.  1.
    8880022    1    1    2    0    0  0.17256098559E+03  0.45430725887E+03  0.11782338466E+04  0.12836662454E+04  0.15294330000E+03 0.  0.
<mgrwt>
<rscale>  0 0.72703343E+03</rscale>
<asrwt>0</asrwt>
<pdfrwt beam="1">  1        1 0.20020010E+00 0.81852464E+03</pdfrwt>
<pdfrwt beam="2">  1       -1 0.37439782E+00 0.81852464E+03</pdfrwt>
<totfact> 0.10268536E-01</totfact>
</mgrwt>
</event>
<event>
 4    1  0.2514307E-008  0.7598679E+03  0.7818608E-02  0.9805450E-01
          1   -1    0    0  501    0  0.00000000000E+00  0.00000000000E+00  0.26239175208E+04  0.26239175208E+04  0.50400000000E-02 0. -1.
         -1   -1    0    0    0  501 -0.00000000000E+00 -0.00000000000E+00 -0.15715681236E+03  0.15715681244E+03  0.50400000000E-02 0.  1.
    8880023    1    1    2    0    0  0.36893251050E+03  0.86473985854E+02  0.98520177138E+03  0.12441951953E+04  0.65864270000E+03 0. -1.
    8880022    1    1    2    0    0 -0.36893251050E+03 -0.86473985854E+02  0.14815589371E+04  0.15368791379E+04  0.15294330000E+03 0.  0.
<mgrwt>
<rscale>  0 0.65070899E+03</rscale>
<asrwt>0</asrwt>
<pdfrwt beam="1">  1        1 0.40367964E+00 0.75986785E+03</pdfrwt>
<pdfrwt beam="2">  1       -1 0.24177970E-01 0.75986785E+03</pdfrwt>
<totfact> 0.17279553E+01</totfact>
</mgrwt>
</event>
<event>
 4    1  0.2514307E-008  0.9637467E+03  0.7818608E-02  0.9430605E-01
         -1   -1    0    0    0  501 -0.00000000000E+00  0.00000000000E+00  0.83501861362E+03  0.83501861363E+03  0.50400000000E-02 0.  1.
          1   -1    0    0  501    0  0.00000000000E+00 -0.00000000000E+00 -0.10422912488E+04  0.10422912489E+04  0.50400000000E-02 0. -1.
    8880023    1    1    2    0    0  0.36026644275E+03 -0.60432243641E+03  0.28513266225E+03  0.10050414709E+04  0.65864270000E+03 0.  0.
    8880022    1    1    2    0    0 -0.36026644275E+03  0.60432243641E+03 -0.49240529748E+03  0.87226839156E+03  0.15294330000E+03 0.  0.
<mgrwt>
<rscale>  0 0.89599208E+03</rscale>
<asrwt>0</asrwt>
<pdfrwt beam="1">  1        1 0.16035250E+00 0.96374671E+03</pdfrwt>
<pdfrwt beam="2">  1       -1 0.12846440E+00 0.96374671E+03</pdfrwt>
<totfact> 0.73801327E+00</totfact>
</mgrwt>
</event>
<event>
 4    1  0.2514307E-008  0.1195833E+04  0.7818608E-02  0.9161183E-01
          1   -1    0    0  501    0  0.00000000000E+00  0.00000000000E+00  0.13785487843E+04  0.13785487843E+04  0.50400000000E-02 0. -1.
         -1   -1    0    0    0  501 -0.00000000000E+00 -0.00000000000E+00 -0.20661124834E+04  0.20661124834E+04  0.50400000000E-02 0.  1.
    8880023    1    1    2    0    0 -0.93733976344E+03 -0.34293090116E+03 -0.16579501154E+04  0.20442153083E+04  0.65864270000E+03 0.  1.
    8880022    1    1    2    0    0  0.93733976344E+03  0.34293090116E+03  0.97038641632E+03  0.14004459594E+04  0.15294330000E+03 0.  0.
<mgrwt>
<rscale>  0 0.11463222E+04</rscale>
<asrwt>0</asrwt>
<pdfrwt beam="1">  1        1 0.21208443E+00 0.11958335E+04</pdfrwt>
<pdfrwt beam="2">  1       -1 0.31786346E+00 0.11958335E+04</pdfrwt>
<totfact> 0.19823975E-01</totfact>
</mgrwt>
</event>
<event>
 4    1  0.2514307E-008  0.2249587E+04  0.7818608E-02  0.8507713E-01
         -1   -1    0    0    0  501 -0.00000000000E+00  0.00000000000E+00  0.17314158209E+04  0.17314158209E+04  0.50400000000E-02 0.  1.
          1   -1    0    0  501    0  0.00000000000E+00 -0.00000000000E+00 -0.33602586920E+04  0.33602586920E+04  0.50400000000E-02 0. -1.
    8880023    1    1    2    0    0  0.20079795991E+04  0.77126534822E+03  0.20771251764E+03  0.22591562593E+04  0.65864270000E+03 0.  0.
    8880022    1    1    2    0    0 -0.20079795991E+04 -0.77126534822E+03 -0.18365553888E+04  0.28325182536E+04  0.15294330000E+03 0.  0.
<mgrwt>
<rscale>  0 0.22259292E+04</rscale>
<asrwt>0</asrwt>
<pdfrwt beam="1">  1        1 0.51696287E+00 0.22495872E+04</pdfrwt>
<pdfrwt beam="2">  1       -1 0.26637167E+00 0.22495872E+04</pdfrwt>
<totfact> 0.15135413E-02</totfact>
</mgrwt>
</event>
<event>
 4    1  0.2514307E-008  0.7744547E+03  0.7818608E-02  0.9769028E-01
         -1   -1    0    0    0  501 -0.00000000000E+00  0.00000000000E+00  0.23977111991E+03  0.23977111997E+03  0.50400000000E-02 0.  1.
          1   -1    0    0  501    0  0.00000000000E+00 -0.00000000000E+00 -0.23927228634E+04  0.23927228634E+04  0.50400000000E-02 0. -1.
    8880023    1    1    2    0    0  0.39920353620E+03  0.81280033136E+02 -0.49674451285E+03  0.92007348859E+03  0.65864270000E+03 0.  1.
    8880022    1    1    2    0    0 -0.39920353620E+03 -0.81280033136E+02 -0.16562072307E+04  0.17124204948E+04  0.15294330000E+03 0.  0.
<mgrwt>
<rscale>  0 0.67051501E+03</rscale>
<asrwt>0</asrwt>
<pdfrwt beam="1">  1        1 0.36811119E+00 0.77445472E+03</pdfrwt>
<pdfrwt beam="2">  1       -1 0.36887866E-01 0.77445472E+03</pdfrwt>
<totfact> 0.11871988E+01</totfact>
</mgrwt>
</event>
<event>
 4    1  0.2514307E-008  0.7567402E+03  0.7818608E-02  0.9813621E-01
          1   -1    0    0  501    0  0.00000000000E+00  0.00000000000E+00  0.83370425670E+03  0.83370425672E+03  0.50400000000E-02 0. -1.
         -1   -1    0    0    0  501 -0.00000000000E+00 -0.00000000000E+00 -0.47749181617E+03  0.47749181620E+03  0.50400000000E-02 0.  1.
    8880023    1    1    2    0    0 -0.21068029402E+03 -0.30734225850E+03 -0.24252500285E+02  0.75712868139E+03  0.65864270000E+03 0.  0.
    8880022    1    1    2    0    0  0.21068029402E+03  0.30734225850E+03  0.38046494081E+03  0.55406739153E+03  0.15294330000E+03 0.  1.
<mgrwt>
<rscale>  0 0.64636652E+03</rscale>
<asrwt>0</asrwt>
<pdfrwt beam="1">  1        1 0.12826219E+00 0.75674015E+03</pdfrwt>
<pdfrwt beam="2">  1       -1 0.73460280E-01 0.75674015E+03</pdfrwt>
<totfact> 0.39518128E+01</totfact>
</mgrwt>
</event>
<event>
 4    1  0.2514307E-008  0.6899820E+03  0.7818608E-02  0.1004161E+00
         -1   -1    0    0    0  501 -0.00000000000E+00  0.00000000000E+00  0.63961280676E+03  0.63961280678E+03  0.50400000000E-02 0.  1.
          1   -1    0    0  501    0  0.00000000000E+00 -0.00000000000E+00 -0.11544359912E+04  0.11544359912E+04  0.50400000000E-02 0. -1.
    8880023    1    1    2    0    0  0.20190569870E+03  0.38717352821E+02  0.43140013648E+03  0.81374518653E+03  0.65864270000E+03 0.  1.
    8880022    1    1    2    0    0 -0.20190569870E+03 -0.38717352821E+02 -0.94622332092E+03  0.98030361146E+03  0.15294330000E+03 0.  0.
<mgrwt>
<rscale>  0 0.53862699E+03</rscale>
<asrwt>0</asrwt>
<pdfrwt beam="1">  1        1 0.17760554E+00 0.68998199E+03</pdfrwt>
<pdfrwt beam="2">  1       -1 0.98401971E-01 0.68998199E+03</pdfrwt>
<totfact> 0.11897899E+01</totfact>
</mgrwt>
</event>
<event>
 4    1  0.2514307E-008  0.9027861E+03  0.7818608E-02  0.9521574E-01
          1   -1    0    0  501    0  0.00000000000E+00  0.00000000000E+00  0.22813442282E+04  0.22813442283E+04  0.50400000000E-02 0. -1.
         -1   -1    0    0    0  501 -0.00000000000E+00 -0.00000000000E+00 -0.51424320429E+03  0.51424320432E+03  0.50400000000E-02 0.  1.
    8880023    1    1    2    0    0 -0.12008591671E+03  0.60563342131E+03 -0.15478743333E+02  0.90291874837E+03  0.65864270000E+03 0.  0.
    8880022    1    1    2    0    0  0.12008591671E+03 -0.60563342131E+03  0.17825797673E+04  0.18926686842E+04  0.15294330000E+03 0.  0.
<mgrwt>
<rscale>  0 0.82711790E+03</rscale>
<asrwt>0</asrwt>
<pdfrwt beam="1">  1        1 0.35097604E+00 0.90278606E+03</pdfrwt>
<pdfrwt beam="2">  1       -1 0.79114339E-01 0.90278606E+03</pdfrwt>
<totfact> 0.31533617E+00</totfact>
</mgrwt>
</event>
<event>
 4    1  0.2514307E-008  0.1146406E+04  0.7818608E-02  0.9211066E-01
         -1   -1    0    0    0  501 -0.00000000000E+00  0.00000000000E+00  0.69346290262E+03  0.69346290264E+03  0.50400000000E-02 0.  1.
          1   -1    0    0  501    0  0.00000000000E+00 -0.00000000000E+00 -0.16088463513E+04  0.16088463513E+04  0.50400000000E-02 0. -1.
    8880023    1    1    2    0    0 -0.38321477600E+03  0.85649461902E+03 -0.36161022549E+03  0.12020851710E+04  0.65864270000E+03 0.  0.
    8880022    1    1    2    0    0  0.38321477600E+03 -0.85649461902E+03 -0.55377322320E+03  0.11002240829E+04  0.15294330000E+03 0.  0.
<mgrwt>
<rscale>  0 0.10939931E+04</rscale>
<asrwt>0</asrwt>
<pdfrwt beam="1">  1        1 0.24751482E+00 0.11464060E+04</pdfrwt>
<pdfrwt beam="2">  1       -1 0.10668660E+00 0.11464060E+04</pdfrwt>
<totfact> 0.44663457E+00</totfact>
</mgrwt>
</event>
<event>
 4    1  0.2514307E-008  0.9211951E+03  0.7818608E-02  0.9492829E-01
          1   -1    0    0  501    0  0.00000000000E+00  0.00000000000E+00  0.16964728328E+04  0.16964728328E+04  0.50400000000E-02 0. -1.
         -1   -1    0    0    0  501 -0.00000000000E+00 -0.00000000000E+00 -0.83248103454E+03  0.83248103456E+03  0.50400000000E-02 0.  1.
    8880023    1    1    2    0    0 -0.41998851509E+03 -0.48826198650E+03 -0.47413253903E+03  0.10360511527E+04  0.65864270000E+03 0.  0.
    8880022    1    1    2    0    0  0.41998851509E+03  0.48826198650E+03  0.13381243373E+04  0.14929027146E+04  0.15294330000E+03 0.  0.
<mgrwt>
<rscale>  0 0.84814574E+03</rscale>
<asrwt>0</asrwt>
<pdfrwt beam="1">  1        1 0.26099582E+00 0.92119505E+03</pdfrwt>
<pdfrwt beam="2">  1       -1 0.12807401E+00 0.92119505E+03</pdfrwt>
<totfact> 0.25710382E+00</totfact>
</mgrwt>
</event>
<event>
 4    1  0.2514307E-008  0.8003910E+03  0.7818608E-02  0.9709951E-01
         -1   -1    0    0    0  501 -0.00000000000E+00  0.00000000000E+00  0.13402202406E+04  0.13402202406E+04  0.50400000000E-02 0.  1.
          1   -1    0    0  501    0  0.00000000000E+00 -0.00000000000E+00 -0.95795594947E+03  0.95795594948E+03  0.50400000000E-02 0. -1.
    8880023    1    1    2    0    0 -0.26037947841E+03  0.37285133338E+03  0.11450394847E+04  0.13970473211E+04  0.65864270000E+03 0.  0.
    8880022    1    1    2    0    0  0.26037947841E+03 -0.37285133338E+03 -0.76277519358E+03  0.90112886899E+03  0.15294330000E+03 0.  0.
<mgrwt>
<rscale>  0 0.70427380E+03</rscale>
<asrwt>0</asrwt>
<pdfrwt beam="1">  1        1 0.14737784E+00 0.80039103E+03</pdfrwt>
<pdfrwt beam="2">  1       -1 0.20618773E+00 0.80039103E+03</pdfrwt>
<totfact> 0.23049625E+00</totfact>
</mgrwt>
</event>
<event>
 4    1  0.2514307E-008  0.7046470E+03  0.7818608E-02  0.9978444E-01
          1   -1    0    0  501    0  0.00000000000E+00  0.00000000000E+00  0.22607974287E+04  0.22607974287E+04  0.50400000000E-02 0. -1.
         -1   -1    0    0    0  501 -0.00000000000E+00 -0.00000000000E+00 -0.13093186177E+04  0.13093186177E+04  0.50400000000E-02 0.  1.
    8880023    1    1    2    0    0  0.31358516299E+02  0.24846290760E+03 -0.12038447058E+04  0.13949084038E+04  0.65864270000E+03 0.  1.
    8880022    1    1    2    0    0 -0.31358516299E+02 -0.24846290760E+03  0.21553235168E+04  0.21752076425E+04  0.15294330000E+03 0.  0.
<mgrwt>
<rscale>  0 0.56605634E+03</rscale>
<asrwt>0</asrwt>
<pdfrwt beam="1">  1        1 0.34781499E+00 0.70464699E+03</pdfrwt>
<pdfrwt beam="2">  1       -1 0.20143363E+00 0.70464699E+03</pdfrwt>
<totfact> 0.31584962E-01</totfact>
</mgrwt>
</event>
<event>
 4    1  0.2514307E-008  0.2012893E+04  0.7818608E-02  0.8613100E-01
         -1   -1    0    0    0  501 -0.00000000000E+00  0.00000000000E+00  0.20252615812E+04  0.20252615812E+04  0.50400000000E-02 0.  1.
          1   -1    0    0  501    0  0.00000000000E+00 -0.00000000000E+00 -0.27973379028E+04  0.27973379028E+04  0.50400000000E-02 0. -1.
    8880023    1    1    2    0    0 -0.19018484941E+04  0.30014580843E+02  0.97392388809E+03  0.22361275714E+04  0.65864270000E+03 0.  0.
    8880022    1    1    2    0    0  0.19018484941E+04 -0.30014580843E+02 -0.17460002097E+04  0.25864719126E+04  0.15294330000E+03 0.  0.
<mgrwt>
<rscale>  0 0.19861996E+04</rscale>
<asrwt>0</asrwt>
<pdfrwt beam="1">  1        1 0.43035968E+00 0.20128931E+04</pdfrwt>
<pdfrwt beam="2">  1       -1 0.31157870E+00 0.20128931E+04</pdfrwt>
<totfact> 0.20561444E-02</totfact>
</mgrwt>
</event>
<event>
 4    1  0.2514307E-008  0.9606586E+03  0.7818608E-02  0.9434942E-01
         -1   -1    0    0    0  501 -0.00000000000E+00  0.00000000000E+00  0.13506729662E+04  0.13506729662E+04  0.50400000000E-02 0.  1.
          1   -1    0    0  501    0  0.00000000000E+00 -0.00000000000E+00 -0.11354839611E+04  0.11354839611E+04  0.50400000000E-02 0. -1.
    8880023    1    1    2    0    0 -0.46730401970E+03  0.52027074145E+03  0.10253352030E+04  0.14050541541E+04  0.65864270000E+03 0.  1.
    8880022    1    1    2    0    0  0.46730401970E+03 -0.52027074145E+03 -0.81014619793E+03  0.10811027732E+04  0.15294330000E+03 0.  0.
<mgrwt>
<rscale>  0 0.89255060E+03</rscale>
<asrwt>0</asrwt>
<pdfrwt beam="1">  1        1 0.17468984E+00 0.96065857E+03</pdfrwt>
<pdfrwt beam="2">  1       -1 0.20779584E+00 0.96065857E+03</pdfrwt>
<totfact> 0.16041747E+00</totfact>
</mgrwt>
</event>
<event>
 4    1  0.2514307E-008  0.1008688E+04  0.7818608E-02  0.9370278E-01
         -1   -1    0    0    0  501 -0.00000000000E+00  0.00000000000E+00  0.15367527760E+04  0.15367527760E+04  0.50400000000E-02 0.  1.
          1   -1    0    0  501    0  0.00000000000E+00 -0.00000000000E+00 -0.62308303509E+03  0.62308303511E+03  0.50400000000E-02 0. -1.
    8880023    1    1    2    0    0  0.45769985167E+03 -0.61167978096E+03  0.94206561384E+03  0.13801953252E+04  0.65864270000E+03 0.  0.
    8880022    1    1    2    0    0 -0.45769985167E+03  0.61167978096E+03 -0.28395872942E+02  0.77964048591E+03  0.15294330000E+03 0.  0.
<mgrwt>
<rscale>  0 0.94562551E+03</rscale>
<asrwt>0</asrwt>
<pdfrwt beam="1">  1        1 0.95858929E-01 0.10086880E+04</pdfrwt>
<pdfrwt beam="2">  1       -1 0.23642350E+00 0.10086880E+04</pdfrwt>
<totfact> 0.27908702E+00</totfact>
</mgrwt>
</event>
<event>
 4    1  0.2514307E-008  0.8106567E+03  0.7818608E-02  0.9688211E-01
          1   -1    0    0  501    0  0.00000000000E+00  0.00000000000E+00  0.30751229326E+04  0.30751229326E+04  0.50400000000E-02 0. -1.
         -1   -1    0    0    0  501 -0.00000000000E+00 -0.00000000000E+00 -0.19846136076E+03  0.19846136082E+03  0.50400000000E-02 0.  1.
    8880023    1    1    2    0    0  0.45473976940E+03 -0.12870836574E+03  0.80219336814E+03  0.11404729315E+04  0.65864270000E+03 0.  1.
    8880022    1    1    2    0    0 -0.45473976940E+03  0.12870836574E+03  0.20744682037E+04  0.21331113619E+04  0.15294330000E+03 0.  0.
<mgrwt>
<rscale>  0 0.71723083E+03</rscale>
<asrwt>0</asrwt>
<pdfrwt beam="1">  1        1 0.47309583E+00 0.81065671E+03</pdfrwt>
<pdfrwt beam="2">  1       -1 0.30532517E-01 0.81065671E+03</pdfrwt>
<totfact> 0.55047900E+00</totfact>
</mgrwt>
</event>
<event>
 4    1  0.2514307E-008  0.7051927E+03  0.7818608E-02  0.9976305E-01
         -1   -1    0    0    0  501 -0.00000000000E+00  0.00000000000E+00  0.85670888509E+03  0.85670888511E+03  0.50400000000E-02 0.  1.
          1   -1    0    0  501    0  0.00000000000E+00 -0.00000000000E+00 -0.35552581885E+03  0.35552581889E+03  0.50400000000E-02 0. -1.
    8880023    1    1    2    0    0  0.19081514766E+03  0.16454818169E+03  0.57325477724E+03  0.90880018187E+03  0.65864270000E+03 0.  1.
    8880022    1    1    2    0    0 -0.19081514766E+03 -0.16454818169E+03 -0.72071711003E+02  0.30343452212E+03  0.15294330000E+03 0.  0.
<mgrwt>
<rscale>  0 0.56701518E+03</rscale>
<asrwt>0</asrwt>
<pdfrwt beam="1">  1        1 0.54696280E-01 0.70519269E+03</pdfrwt>
<pdfrwt beam="2">  1       -1 0.13180137E+00 0.70519269E+03</pdfrwt>
<totfact> 0.35268598E+01</totfact>
</mgrwt>
</event>
<event>
 4    1  0.2514307E-008  0.8866913E+03  0.7818608E-02  0.9547743E-01
         -1   -1    0    0    0  501 -0.00000000000E+00  0.00000000000E+00  0.59099483766E+03  0.59099483769E+03  0.50400000000E-02 0.  1.
          1   -1    0    0  501    0  0.00000000000E+00 -0.00000000000E+00 -0.99303794475E+03  0.99303794476E+03  0.50400000000E-02 0. -1.
    8880023    1    1    2    0    0  0.42848169701E+03 -0.41087071042E+03 -0.76649214304E+02  0.88999809756E+03  0.65864270000E+03 0.  0.
    8880022    1    1    2    0    0 -0.42848169701E+03  0.41087071042E+03 -0.32539389278E+03  0.69403468488E+03  0.15294330000E+03 0.  0.
<mgrwt>
<rscale>  0 0.80853602E+03</rscale>
<asrwt>0</asrwt>
<pdfrwt beam="1">  1        1 0.15277507E+00 0.88669133E+03</pdfrwt>
<pdfrwt beam="2">  1       -1 0.90922283E-01 0.88669133E+03</pdfrwt>
<totfact> 0.18344848E+01</totfact>
</mgrwt>
</event>
<event>
 4    1  0.2514307E-008  0.7101383E+03  0.7818608E-02  0.9957488E-01
          1   -1    0    0  501    0  0.00000000000E+00  0.00000000000E+00  0.19605838357E+04  0.19605838357E+04  0.50400000000E-02 0. -1.
         -1   -1    0    0    0  501 -0.00000000000E+00 -0.00000000000E+00 -0.27092569337E+03  0.27092569342E+03  0.50400000000E-02 0.  1.
    8880023    1    1    2    0    0  0.26068569435E+03  0.50291188854E+02  0.23965326530E+03  0.74948657676E+03  0.65864270000E+03 0.  0.
    8880022    1    1    2    0    0 -0.26068569435E+03 -0.50291188854E+02  0.14500048770E+04  0.14820229523E+04  0.15294330000E+03 0.  0.
<mgrwt>
<rscale>  0 0.57554280E+03</rscale>
<asrwt>0</asrwt>
<pdfrwt beam="1">  1        1 0.30162829E+00 0.71013833E+03</pdfrwt>
<pdfrwt beam="2">  1       -1 0.41680875E-01 0.71013833E+03</pdfrwt>
<totfact> 0.18736089E+01</totfact>
</mgrwt>
</event>
<event>
 4    1  0.2514307E-008  0.7846231E+03  0.7818608E-02  0.9745087E-01
         -1   -1    0    0    0  501 -0.00000000000E+00  0.00000000000E+00  0.84874524405E+03  0.84874524407E+03  0.50400000000E-02 0.  1.
          1   -1    0    0  501    0  0.00000000000E+00 -0.00000000000E+00 -0.58235791112E+03  0.58235791114E+03  0.50400000000E-02 0. -1.
    8880023    1    1    2    0    0 -0.42508598478E+03 -0.33543256546E+02 -0.16919150457E+03  0.80265759574E+03  0.65864270000E+03 0.  1.
    8880022    1    1    2    0    0  0.42508598478E+03  0.33543256546E+02  0.43557883751E+03  0.62844555947E+03  0.15294330000E+03 0.  0.
<mgrwt>
<rscale>  0 0.68394620E+03</rscale>
<asrwt>0</asrwt>
<pdfrwt beam="1">  1        1 0.89593525E-01 0.78462313E+03</pdfrwt>
<pdfrwt beam="2">  1       -1 0.13057619E+00 0.78462313E+03</pdfrwt>
<totfact> 0.18342132E+01</totfact>
</mgrwt>
</event>
<event>
 4    1  0.2514307E-008  0.7657805E+03  0.7818608E-02  0.9790366E-01
         -1   -1    0    0    0  501 -0.00000000000E+00  0.00000000000E+00  0.15738096188E+03  0.15738096196E+03  0.50400000000E-02 0.  1.
          1   -1    0    0  501    0  0.00000000000E+00 -0.00000000000E+00 -0.31070336970E+04  0.31070336970E+04  0.50400000000E-02 0. -1.
    8880023    1    1    2    0    0 -0.29141442070E+03  0.26016764516E+03 -0.94495119577E+03  0.12162863712E+04  0.65864270000E+03 0.  1.
    8880022    1    1    2    0    0  0.29141442070E+03 -0.26016764516E+03 -0.20047015393E+04  0.20481282877E+04  0.15294330000E+03 0.  0.
<mgrwt>
<rscale>  0 0.65882138E+03</rscale>
<asrwt>0</asrwt>
<pdfrwt beam="1">  1        1 0.47800514E+00 0.76578050E+03</pdfrwt>
<pdfrwt beam="2">  1       -1 0.24212458E-01 0.76578050E+03</pdfrwt>
<totfact> 0.78437110E+00</totfact>
</mgrwt>
</event>
<event>
 4    1  0.2514307E-008  0.8148306E+03  0.7818608E-02  0.9679601E-01
         -1   -1    0    0    0  501 -0.00000000000E+00  0.00000000000E+00  0.12798951836E+04  0.12798951837E+04  0.50400000000E-02 0.  1.
          1   -1    0    0  501    0  0.00000000000E+00 -0.00000000000E+00 -0.43399204434E+03  0.43399204437E+03  0.50400000000E-02 0. -1.
    8880023    1    1    2    0    0 -0.32570482757E+03  0.35221456670E+03  0.89214358146E+03  0.12082504343E+04  0.65864270000E+03 0.  1.
    8880022    1    1    2    0    0  0.32570482757E+03 -0.35221456670E+03 -0.46240442161E+02  0.50563679376E+03  0.15294330000E+03 0.  0.
<mgrwt>
<rscale>  0 0.72244412E+03</rscale>
<asrwt>0</asrwt>
<pdfrwt beam="1">  1        1 0.66768008E-01 0.81483062E+03</pdfrwt>
<pdfrwt beam="2">  1       -1 0.19690695E+00 0.81483062E+03</pdfrwt>
<totfact> 0.87077970E+00</totfact>
</mgrwt>
</event>
<event>
 4    1  0.2514307E-008  0.7347426E+03  0.7818608E-02  0.9875535E-01
          1   -1    0    0  501    0  0.00000000000E+00  0.00000000000E+00  0.86838009543E+03  0.86838009544E+03  0.50400000000E-02 0. -1.
         -1   -1    0    0    0  501 -0.00000000000E+00 -0.00000000000E+00 -0.18310183199E+04  0.18310183199E+04  0.50400000000E-02 0.  1.
    8880023    1    1    2    0    0 -0.32535416661E+03  0.13461359835E+02 -0.17148259898E+04  0.18656030992E+04  0.65864270000E+03 0.  1.
    8880022    1    1    2    0    0  0.32535416661E+03 -0.13461359835E+02  0.75218776536E+03  0.83379531619E+03  0.15294330000E+03 0.  0.
<mgrwt>
<rscale>  0 0.61461768E+03</rscale>
<asrwt>0</asrwt>
<pdfrwt beam="1">  1        1 0.13359694E+00 0.73474264E+03</pdfrwt>
<pdfrwt beam="2">  1       -1 0.28169512E+00 0.73474264E+03</pdfrwt>
<totfact> 0.88815693E-01</totfact>
</mgrwt>
</event>
<event>
 4    1  0.2514307E-008  0.1208389E+04  0.7818608E-02  0.9149011E-01
          1   -1    0    0  501    0  0.00000000000E+00  0.00000000000E+00  0.12081406189E+04  0.12081406190E+04  0.50400000000E-02 0. -1.
         -1   -1    0    0    0  501 -0.00000000000E+00 -0.00000000000E+00 -0.18846686648E+04  0.18846686648E+04  0.50400000000E-02 0.  1.
    8880023    1    1    2    0    0 -0.53969750911E+03 -0.85739112404E+03 -0.13918531152E+04  0.18432195315E+04  0.65864270000E+03 0.  1.
    8880022    1    1    2    0    0  0.53969750911E+03  0.85739112404E+03  0.71532506937E+03  0.12495897522E+04  0.15294330000E+03 0.  0.
<mgrwt>
<rscale>  0 0.11595581E+04</rscale>
<asrwt>0</asrwt>
<pdfrwt beam="1">  1        1 0.18586779E+00 0.12083887E+04</pdfrwt>
<pdfrwt beam="2">  1       -1 0.28994903E+00 0.12083887E+04</pdfrwt>
<totfact> 0.39734205E-01</totfact>
</mgrwt>
</event>
<event>
 4    1  0.2514307E-008  0.1436225E+04  0.7818608E-02  0.8956034E-01
          1   -1    0    0  501    0  0.00000000000E+00  0.00000000000E+00  0.13250385705E+04  0.13250385705E+04  0.50400000000E-02 0. -1.
         -1   -1    0    0    0  501 -0.00000000000E+00 -0.00000000000E+00 -0.19551431955E+04  0.19551431955E+04  0.50400000000E-02 0.  1.
    8880023    1    1    2    0    0 -0.80194698529E+03 -0.99288137331E+03 -0.12024099942E+04  0.18731076822E+04  0.65864270000E+03 0.  0.
    8880022    1    1    2    0    0  0.80194698529E+03  0.99288137331E+03  0.57230536915E+03  0.14070740838E+04  0.15294330000E+03 0.  0.
<mgrwt>
<rscale>  0 0.13969433E+04</rscale>
<asrwt>0</asrwt>
<pdfrwt beam="1">  1        1 0.20385209E+00 0.14362251E+04</pdfrwt>
<pdfrwt beam="2">  1       -1 0.30079126E+00 0.14362251E+04</pdfrwt>
<totfact> 0.27038291E-01</totfact>
</mgrwt>
</event>
<event>
 4    1  0.2514307E-008  0.6799548E+03  0.7818608E-02  0.1009349E+00
          1   -1    0    0  501    0  0.00000000000E+00  0.00000000000E+00  0.65369883230E+03  0.65369883232E+03  0.50400000000E-02 0. -1.
         -1   -1    0    0    0  501 -0.00000000000E+00 -0.00000000000E+00 -0.67541003492E+03  0.67541003494E+03  0.50400000000E-02 0.  1.
    8880023    1    1    2    0    0  0.16641698017E+03  0.28874346921E+02 -0.46976152207E+03  0.82644687251E+03  0.65864270000E+03 0.  1.
    8880022    1    1    2    0    0 -0.16641698017E+03 -0.28874346921E+02  0.44805031944E+03  0.50266199475E+03  0.15294330000E+03 0.  0.
<mgrwt>
<rscale>  0 0.51734096E+03</rscale>
<asrwt>0</asrwt>
<pdfrwt beam="1">  1        1 0.10056905E+00 0.67995481E+03</pdfrwt>
<pdfrwt beam="2">  1       -1 0.10390924E+00 0.67995481E+03</pdfrwt>
<totfact> 0.27214984E+01</totfact>
</mgrwt>
</event>
<event>
 4    1  0.2514307E-008  0.9015627E+03  0.7818608E-02  0.9523528E-01
          1   -1    0    0  501    0  0.00000000000E+00  0.00000000000E+00  0.75377626928E+03  0.75377626930E+03  0.50400000000E-02 0. -1.
         -1   -1    0    0    0  501 -0.00000000000E+00 -0.00000000000E+00 -0.10379783296E+04  0.10379783296E+04  0.50400000000E-02 0.  1.
    8880023    1    1    2    0    0  0.13246152979E+03 -0.60121456926E+03 -0.60018089313E+03  0.10830661688E+04  0.65864270000E+03 0.  1.
    8880022    1    1    2    0    0 -0.13246152979E+03  0.60121456926E+03  0.31597883284E+03  0.70868843012E+03  0.15294330000E+03 0. -1.
<mgrwt>
<rscale>  0 0.82571226E+03</rscale>
<asrwt>0</asrwt>
<pdfrwt beam="1">  1        1 0.11596558E+00 0.90156266E+03</pdfrwt>
<pdfrwt beam="2">  1       -1 0.15968897E+00 0.90156266E+03</pdfrwt>
<totfact> 0.72353826E+00</totfact>
</mgrwt>
</event>
<event>
 4    1  0.2514307E-008  0.7289288E+03  0.7818608E-02  0.9893456E-01
         -1   -1    0    0    0  501 -0.00000000000E+00  0.00000000000E+00  0.46341583936E+03  0.46341583939E+03  0.50400000000E-02 0.  1.
          1   -1    0    0  501    0  0.00000000000E+00 -0.00000000000E+00 -0.29645233483E+04  0.29645233484E+04  0.50400000000E-02 0. -1.
    8880023    1    1    2    0    0  0.21278584294E+03  0.22858086101E+03  0.15827860254E+03  0.74591510727E+03  0.65864270000E+03 0.  1.
    8880022    1    1    2    0    0 -0.21278584294E+03 -0.22858086101E+03 -0.26593861115E+04  0.26820240805E+04  0.15294330000E+03 0.  0.
<mgrwt>
<rscale>  0 0.60579477E+03</rscale>
<asrwt>0</asrwt>
<pdfrwt beam="1">  1        1 0.45608050E+00 0.72892882E+03</pdfrwt>
<pdfrwt beam="2">  1       -1 0.71294746E-01 0.72892882E+03</pdfrwt>
<totfact> 0.13627115E+00</totfact>
</mgrwt>
</event>
<event>
 4    1  0.2732011E-008  0.1058748E+04  0.7818608E-02  0.9308439E-01
         -1   -1    0    0    0  501 -0.00000000000E+00  0.00000000000E+00  0.21827655217E+04  0.21827655217E+04  0.50400000000E-02 0.  1.
          1   -1    0    0  501    0  0.00000000000E+00 -0.00000000000E+00 -0.14693533937E+04  0.14693533937E+04  0.50400000000E-02 0. -1.
    8880023    1    1    2    0    0 -0.62925159258E+03 -0.53960967853E+03  0.19127338365E+04  0.21862060990E+04  0.65864270000E+03 0.  0.
    8880022    1    1    2    0    0  0.62925159258E+03  0.53960967853E+03 -0.11993217085E+04  0.14659128164E+04  0.15294330000E+03 0. -1.
<mgrwt>
<rscale>  0 0.10000966E+04</rscale>
<asrwt>0</asrwt>
<pdfrwt beam="1">  1        1 0.22605437E+00 0.10587476E+04</pdfrwt>
<pdfrwt beam="2">  1       -1 0.33581008E+00 0.10587476E+04</pdfrwt>
<totfact> 0.13384697E-01</totfact>
</mgrwt>
</event>
<event>
 4    1  0.2514307E-008  0.1858916E+04  0.7818608E-02  0.8690627E-01
         -1   -1    0    0    0  501 -0.00000000000E+00  0.00000000000E+00  0.29783334357E+04  0.29783334357E+04  0.50400000000E-02 0.  1.
          1   -1    0    0  501    0  0.00000000000E+00 -0.00000000000E+00 -0.12399268891E+04  0.12399268892E+04  0.50400000000E-02 0. -1.
    8880023    1    1    2    0    0  0.59439818948E+03 -0.16335393513E+04  0.16258345972E+04  0.24695968019E+04  0.65864270000E+03 0.  0.
    8880022    1    1    2    0    0 -0.59439818948E+03  0.16335393513E+04  0.11257194934E+03  0.17486635230E+04  0.15294330000E+03 0.  0.
<mgrwt>
<rscale>  0 0.18297679E+04</rscale>
<asrwt>0</asrwt>
<pdfrwt beam="1">  1        1 0.19075798E+00 0.18589164E+04</pdfrwt>
<pdfrwt beam="2">  1       -1 0.45820514E+00 0.18589164E+04</pdfrwt>
<totfact> 0.25785127E-02</totfact>
</mgrwt>
</event>
<event>
 4    1  0.2514307E-008  0.6664390E+03  0.7818608E-02  0.1018356E+00
          1   -1    0    0  501    0  0.00000000000E+00  0.00000000000E+00  0.12356700765E+04  0.12356700766E+04  0.50400000000E-02 0. -1.
         -1   -1    0    0    0  501 -0.00000000000E+00 -0.00000000000E+00 -0.75977855864E+03  0.75977855865E+03  0.50400000000E-02 0.  1.
    8880023    1    1    2    0    0 -0.43561493874E+02 -0.91831810783E+02 -0.60438269415E+03  0.89967734909E+03  0.65864270000E+03 0.  1.
    8880022    1    1    2    0    0  0.43561493874E+02  0.91831810783E+02  0.10802742121E+04  0.10957712861E+04  0.15294330000E+03 0.  0.
<mgrwt>
<rscale>  0 0.48284751E+03</rscale>
<asrwt>0</asrwt>
<pdfrwt beam="1">  1        1 0.19010309E+00 0.66643896E+03</pdfrwt>
<pdfrwt beam="2">  1       -1 0.11688901E+00 0.66643896E+03</pdfrwt>
<totfact> 0.69819981E+00</totfact>
</mgrwt>
</event>
<event>
 4    1  0.2514307E-008  0.8560859E+03  0.7818608E-02  0.9600564E-01
          1   -1    0    0  501    0  0.00000000000E+00  0.00000000000E+00  0.15764452882E+04  0.15764452882E+04  0.50400000000E-02 0. -1.
         -1   -1    0    0    0  501 -0.00000000000E+00 -0.00000000000E+00 -0.35159827053E+03  0.35159827056E+03  0.50400000000E-02 0.  1.
    8880023    1    1    2    0    0  0.54626606795E+03  0.25810129630E+02  0.44929904261E+03  0.96682605247E+03  0.65864270000E+03 0.  0.
    8880022    1    1    2    0    0 -0.54626606795E+03 -0.25810129630E+02  0.77554797508E+03  0.96121750632E+03  0.15294330000E+03 0.  0.
<mgrwt>
<rscale>  0 0.77258846E+03</rscale>
<asrwt>0</asrwt>
<pdfrwt beam="1">  1        1 0.24253004E+00 0.85608585E+03</pdfrwt>
<pdfrwt beam="2">  1       -1 0.54092042E-01 0.85608585E+03</pdfrwt>
<totfact> 0.20423433E+01</totfact>
</mgrwt>
</event>
<event>
 4    1  0.2514307E-008  0.6685957E+03  0.7818608E-02  0.1016690E+00
          1   -1    0    0  501    0  0.00000000000E+00  0.00000000000E+00  0.33826356150E+04  0.33826356150E+04  0.50400000000E-02 0. -1.
         -1   -1    0    0    0  501 -0.00000000000E+00 -0.00000000000E+00 -0.56896750968E+03  0.56896750970E+03  0.50400000000E-02 0.  1.
    8880023    1    1    2    0    0  0.99145623780E+02  0.58139175729E+02 -0.36868068426E+03  0.76350878952E+03  0.65864270000E+03 0.  0.
    8880022    1    1    2    0    0 -0.99145623780E+02 -0.58139175729E+02  0.31823487896E+04  0.31880943352E+04  0.15294330000E+03 0. -1.
<mgrwt>
<rscale>  0 0.48900163E+03</rscale>
<asrwt>0</asrwt>
<pdfrwt beam="1">  1        1 0.52040547E+00 0.66859571E+03</pdfrwt>
<pdfrwt beam="2">  1       -1 0.87533464E-01 0.66859571E+03</pdfrwt>
<totfact> 0.44263755E-01</totfact>
</mgrwt>
</event>
<event>
 4    1  0.2514307E-008  0.1469262E+04  0.7818608E-02  0.8931651E-01
          1   -1    0    0  501    0  0.00000000000E+00  0.00000000000E+00  0.27663547891E+04  0.27663547891E+04  0.50400000000E-02 0. -1.
         -1   -1    0    0    0  501 -0.00000000000E+00 -0.00000000000E+00 -0.12285532650E+04  0.12285532650E+04  0.50400000000E-02 0.  1.
    8880023    1    1    2    0    0  0.13016685802E+04 -0.17487171431E+03 -0.51176891106E+03  0.15558402340E+04  0.65864270000E+03 0.  1.
    8880022    1    1    2    0    0 -0.13016685802E+04  0.17487171431E+03  0.20495704352E+04  0.24390678201E+04  0.15294330000E+03 0.  0.
<mgrwt>
<rscale>  0 0.14310403E+04</rscale>
<asrwt>0</asrwt>
<pdfrwt beam="1">  1        1 0.42559304E+00 0.14692622E+04</pdfrwt>
<pdfrwt beam="2">  1       -1 0.18900819E+00 0.14692622E+04</pdfrwt>
<totfact> 0.15037421E-01</totfact>
</mgrwt>
</event>
<event>
 4    1  0.2514307E-008  0.9319124E+03  0.7818608E-02  0.9476630E-01
         -1   -1    0    0    0  501 -0.00000000000E+00  0.00000000000E+00  0.78770903205E+03  0.78770903207E+03  0.50400000000E-02 0.  1.
          1   -1    0    0  501    0  0.00000000000E+00 -0.00000000000E+00 -0.15258768736E+04  0.15258768736E+04  0.50400000000E-02 0. -1.
    8880023    1    1    2    0    0  0.63665448728E+03 -0.17123535348E+03  0.38011412700E+03  0.10064528992E+04  0.65864270000E+03 0.  0.
    8880022    1    1    2    0    0 -0.63665448728E+03  0.17123535348E+03 -0.11182819685E+04  0.13071330065E+04  0.15294330000E+03 0.  0.
<mgrwt>
<rscale>  0 0.86028924E+03</rscale>
<asrwt>0</asrwt>
<pdfrwt beam="1">  1        1 0.23475029E+00 0.93191238E+03</pdfrwt>
<pdfrwt beam="2">  1       -1 0.12118601E+00 0.93191238E+03</pdfrwt>
<totfact> 0.38491681E+00</totfact>
</mgrwt>
</event>
<event>
 4    1  0.2514307E-008  0.7781194E+03  0.7818608E-02  0.9760273E-01
         -1   -1    0    0    0  501 -0.00000000000E+00  0.00000000000E+00  0.73085895854E+03  0.73085895856E+03  0.50400000000E-02 0.  1.
          1   -1    0    0  501    0  0.00000000000E+00 -0.00000000000E+00 -0.10621173694E+04  0.10621173695E+04  0.50400000000E-02 0. -1.
    8880023    1    1    2    0    0  0.29634173792E+03 -0.28955328926E+03  0.44755827419E+03  0.89765146243E+03  0.65864270000E+03 0.  1.
    8880022    1    1    2    0    0 -0.29634173792E+03  0.28955328926E+03 -0.77881668508E+03  0.89532486558E+03  0.15294330000E+03 0.  0.
<mgrwt>
<rscale>  0 0.67538784E+03</rscale>
<asrwt>0</asrwt>
<pdfrwt beam="1">  1        1 0.16340267E+00 0.77811936E+03</pdfrwt>
<pdfrwt beam="2">  1       -1 0.11243984E+00 0.77811936E+03</pdfrwt>
<totfact> 0.10099626E+01</totfact>
</mgrwt>
</event>
<event>
 4    1  0.2514307E-008  0.1431246E+04  0.7818608E-02  0.8959776E-01
          1   -1    0    0  501    0  0.00000000000E+00  0.00000000000E+00  0.35866732672E+04  0.35866732672E+04  0.50400000000E-02 0. -1.
         -1   -1    0    0    0  501 -0.00000000000E+00 -0.00000000000E+00 -0.74423642528E+03  0.74423642530E+03  0.50400000000E-02 0.  1.
    8880023    1    1    2    0    0  0.11921397253E+04  0.43983961069E+03  0.26833409152E+03  0.14561831611E+04  0.65864270000E+03 0.  0.
    8880022    1    1    2    0    0 -0.11921397253E+04 -0.43983961069E+03  0.25741027504E+04  0.28747265314E+04  0.15294330000E+03 0.  0.
<mgrwt>
<rscale>  0 0.13917993E+04</rscale>
<asrwt>0</asrwt>
<pdfrwt beam="1">  1        1 0.55179589E+00 0.14312464E+04</pdfrwt>
<pdfrwt beam="2">  1       -1 0.11449791E+00 0.14312464E+04</pdfrwt>
<totfact> 0.14355240E-01</totfact>
</mgrwt>
</event>
<event>
 4    1  0.2514307E-008  0.1320335E+04  0.7818608E-02  0.9048195E-01
         -1   -1    0    0    0  501 -0.00000000000E+00  0.00000000000E+00  0.14168592293E+04  0.14168592293E+04  0.50400000000E-02 0.  1.
          1   -1    0    0  501    0  0.00000000000E+00 -0.00000000000E+00 -0.23718654227E+04  0.23718654227E+04  0.50400000000E-02 0. -1.
    8880023    1    1    2    0    0 -0.45363616058E+02  0.11434230075E+04  0.90417147864E+03  0.16002531989E+04  0.65864270000E+03 0.  0.
    8880022    1    1    2    0    0  0.45363616058E+02 -0.11434230075E+04 -0.18591776720E+04  0.21884714531E+04  0.15294330000E+03 0.  0.
<mgrwt>
<rscale>  0 0.12767662E+04</rscale>
<asrwt>0</asrwt>
<pdfrwt beam="1">  1        1 0.36490237E+00 0.13203349E+04</pdfrwt>
<pdfrwt beam="2">  1       -1 0.21797834E+00 0.13203349E+04</pdfrwt>
<totfact> 0.18241265E-01</totfact>
</mgrwt>
</event>
<event>
 4    1  0.2514307E-008  0.8190683E+03  0.7818608E-02  0.9670989E-01
          1   -1    0    0  501    0  0.00000000000E+00  0.00000000000E+00  0.67384303799E+03  0.67384303801E+03  0.50400000000E-02 0. -1.
         -1   -1    0    0    0  501 -0.00000000000E+00 -0.00000000000E+00 -0.12356704037E+04  0.12356704037E+04  0.50400000000E-02 0.  1.
    8880023    1    1    2    0    0 -0.39986875901E+03  0.27779061475E+03 -0.96020526138E+03  0.12620883489E+04  0.65864270000E+03 0.  1.
    8880022    1    1    2    0    0  0.39986875901E+03 -0.27779061475E+03  0.39837789569E+03  0.64742509286E+03  0.15294330000E+03 0.  0.
<mgrwt>
<rscale>  0 0.72770695E+03</rscale>
<asrwt>0</asrwt>
<pdfrwt beam="1">  1        1 0.10366816E+00 0.81906829E+03</pdfrwt>
<pdfrwt beam="2">  1       -1 0.19010314E+00 0.81906829E+03</pdfrwt>
<totfact> 0.52214789E+00</totfact>
</mgrwt>
</event>
<event>
 4    1  0.2514307E-008  0.9735030E+03  0.7818608E-02  0.9417075E-01
          1   -1    0    0  501    0  0.00000000000E+00  0.00000000000E+00  0.41891107398E+04  0.41891107398E+04  0.50400000000E-02 0. -1.
         -1   -1    0    0    0  501 -0.00000000000E+00 -0.00000000000E+00 -0.22005805798E+03  0.22005805804E+03  0.50400000000E-02 0.  1.
    8880023    1    1    2    0    0 -0.18572686564E+03 -0.69238969840E+03  0.32082952114E+04  0.33527401231E+04  0.65864270000E+03 0. -1.
    8880022    1    1    2    0    0  0.18572686564E+03  0.69238969840E+03  0.76075747040E+03  0.10564286748E+04  0.15294330000E+03 0.  0.
<mgrwt>
<rscale>  0 0.90683660E+03</rscale>
<asrwt>0</asrwt>
<pdfrwt beam="1">  1        1 0.64447852E+00 0.97350304E+03</pdfrwt>
<pdfrwt beam="2">  1       -1 0.33855089E-01 0.97350304E+03</pdfrwt>
<totfact> 0.56748652E-01</totfact>
</mgrwt>
</event>
<event>
 4    1  0.2514307E-008  0.1073508E+04  0.7818608E-02  0.9291141E-01
          1   -1    0    0  501    0  0.00000000000E+00  0.00000000000E+00  0.12566577196E+04  0.12566577196E+04  0.50400000000E-02 0. -1.
         -1   -1    0    0    0  501 -0.00000000000E+00 -0.00000000000E+00 -0.91500279878E+03  0.91500279879E+03  0.50400000000E-02 0.  1.
    8880023    1    1    2    0    0 -0.73820987265E+02 -0.84448776716E+03  0.65208181660E+03  0.12560374313E+04  0.65864270000E+03 0.  0.
    8880022    1    1    2    0    0  0.73820987265E+02  0.84448776716E+03 -0.31042689575E+03  0.91562308712E+03  0.15294330000E+03 0.  0.
<mgrwt>
<rscale>  0 0.10160252E+04</rscale>
<asrwt>0</asrwt>
<pdfrwt beam="1">  1        1 0.19333196E+00 0.10735080E+04</pdfrwt>
<pdfrwt beam="2">  1       -1 0.14076966E+00 0.10735080E+04</pdfrwt>
<totfact> 0.39953018E+00</totfact>
</mgrwt>
</event>
<event>
 4    1  0.2514307E-008  0.1470925E+04  0.7818608E-02  0.8930445E-01
          1   -1    0    0  501    0  0.00000000000E+00  0.00000000000E+00  0.33903183368E+04  0.33903183368E+04  0.50400000000E-02 0. -1.
         -1   -1    0    0    0  501 -0.00000000000E+00 -0.00000000000E+00 -0.58945056897E+03  0.58945056899E+03  0.50400000000E-02 0.  1.
    8880023    1    1    2    0    0  0.12223315423E+04  0.48550449611E+03  0.11727978526E+04  0.18812426809E+04  0.65864270000E+03 0.  1.
    8880022    1    1    2    0    0 -0.12223315423E+04 -0.48550449611E+03  0.16280699152E+04  0.20985262249E+04  0.15294330000E+03 0. -1.
<mgrwt>
<rscale>  0 0.14327544E+04</rscale>
<asrwt>0</asrwt>
<pdfrwt beam="1">  1        1 0.52158743E+00 0.14709246E+04</pdfrwt>
<pdfrwt beam="2">  1       -1 0.90684704E-01 0.14709246E+04</pdfrwt>
<totfact> 0.34968525E-01</totfact>
</mgrwt>
</event>
<event>
 4    1  0.2514307E-008  0.6729833E+03  0.7818608E-02  0.1013609E+00
         -1   -1    0    0    0  501 -0.00000000000E+00  0.00000000000E+00  0.42238032152E+03  0.42238032155E+03  0.50400000000E-02 0.  1.
          1   -1    0    0  501    0  0.00000000000E+00 -0.00000000000E+00 -0.69197131034E+03  0.69197131036E+03  0.50400000000E-02 0. -1.
    8880023    1    1    2    0    0  0.75670720443E+02  0.11562980737E+03  0.11047266983E+03  0.68199026923E+03  0.65864270000E+03 0.  1.
    8880022    1    1    2    0    0 -0.75670720443E+02 -0.11562980737E+03 -0.38006365866E+03  0.43236136267E+03  0.15294330000E+03 0.  0.
<mgrwt>
<rscale>  0 0.50065257E+03</rscale>
<asrwt>0</asrwt>
<pdfrwt beam="1">  1        1 0.10645712E+00 0.67298330E+03</pdfrwt>
<pdfrwt beam="2">  1       -1 0.64981588E-01 0.67298330E+03</pdfrwt>
<totfact> 0.68399079E+01</totfact>
</mgrwt>
</event>
<event>
 4    1  0.2514307E-008  0.1074664E+04  0.7818608E-02  0.9289803E-01
          1   -1    0    0  501    0  0.00000000000E+00  0.00000000000E+00  0.18230901975E+04  0.18230901975E+04  0.50400000000E-02 0. -1.
         -1   -1    0    0    0  501 -0.00000000000E+00 -0.00000000000E+00 -0.65556911802E+03  0.65556911804E+03  0.50400000000E-02 0.  1.
    8880023    1    1    2    0    0  0.21892819780E+03 -0.82046489092E+03  0.62230396211E+02  0.10764641292E+04  0.65864270000E+03 0.  0.
    8880022    1    1    2    0    0 -0.21892819780E+03  0.82046489092E+03  0.11052906833E+04  0.14021951863E+04  0.15294330000E+03 0.  0.
<mgrwt>
<rscale>  0 0.10172704E+04</rscale>
<asrwt>0</asrwt>
<pdfrwt beam="1">  1        1 0.28047541E+00 0.10746639E+04</pdfrwt>
<pdfrwt beam="2">  1       -1 0.10085679E+00 0.10746639E+04</pdfrwt>
<totfact> 0.36704071E+00</totfact>
</mgrwt>
</event>
<event>
 4    1  0.2514307E-008  0.6723849E+03  0.7818608E-02  0.1014008E+00
         -1   -1    0    0    0  501 -0.00000000000E+00  0.00000000000E+00  0.81323474364E+03  0.81323474366E+03  0.50400000000E-02 0.  1.
          1   -1    0    0  501    0  0.00000000000E+00 -0.00000000000E+00 -0.80288020505E+03  0.80288020506E+03  0.50400000000E-02 0. -1.
    8880023    1    1    2    0    0  0.11759317145E+03  0.66806003390E+02  0.65574394185E+03  0.93920259774E+03  0.65864270000E+03 0.  0.
    8880022    1    1    2    0    0 -0.11759317145E+03 -0.66806003390E+02 -0.64538940326E+03  0.67691235098E+03  0.15294330000E+03 0. -1.
<mgrwt>
<rscale>  0 0.49912362E+03</rscale>
<asrwt>0</asrwt>
<pdfrwt beam="1">  1        1 0.12352003E+00 0.67238486E+03</pdfrwt>
<pdfrwt beam="2">  1       -1 0.12511304E+00 0.67238486E+03</pdfrwt>
<totfact> 0.12773455E+01</totfact>
</mgrwt>
</event>
<event>
 4    1  0.2514307E-008  0.7205052E+03  0.7818608E-02  0.9920880E-01
         -1   -1    0    0    0  501 -0.00000000000E+00  0.00000000000E+00  0.11861924560E+04  0.11861924560E+04  0.50400000000E-02 0.  1.
          1   -1    0    0  501    0  0.00000000000E+00 -0.00000000000E+00 -0.71801886963E+03  0.71801886964E+03  0.50400000000E-02 0. -1.
    8880023    1    1    2    0    0 -0.29151903843E+03 -0.18280627779E+02  0.10274968260E+04  0.12549412197E+04  0.65864270000E+03 0.  1.
    8880022    1    1    2    0    0  0.29151903843E+03  0.18280627779E+02 -0.55932323963E+03  0.64927010598E+03  0.15294330000E+03 0.  0.
<mgrwt>
<rscale>  0 0.59259928E+03</rscale>
<asrwt>0</asrwt>
<pdfrwt beam="1">  1        1 0.11046444E+00 0.72050520E+03</pdfrwt>
<pdfrwt beam="2">  1       -1 0.18249115E+00 0.72050520E+03</pdfrwt>
<totfact> 0.54418057E+00</totfact>
</mgrwt>
</event>
<event>
 4    1  0.2514307E-008  0.1401298E+04  0.7818608E-02  0.8982675E-01
         -1   -1    0    0    0  501 -0.00000000000E+00  0.00000000000E+00  0.13746087941E+04  0.13746087941E+04  0.50400000000E-02 0.  1.
          1   -1    0    0  501    0  0.00000000000E+00 -0.00000000000E+00 -0.35719551258E+04  0.35719551258E+04  0.50400000000E-02 0. -1.
    8880023    1    1    2    0    0  0.36006296140E+03 -0.11832917159E+04  0.86055832805E+03  0.16444438158E+04  0.65864270000E+03 0.  1.
    8880022    1    1    2    0    0 -0.36006296140E+03  0.11832917159E+04 -0.30579046597E+04  0.33021201041E+04  0.15294330000E+03 0.  0.
<mgrwt>
<rscale>  0 0.13608234E+04</rscale>
<asrwt>0</asrwt>
<pdfrwt beam="1">  1        1 0.54953156E+00 0.14012976E+04</pdfrwt>
<pdfrwt beam="2">  1       -1 0.21147828E+00 0.14012976E+04</pdfrwt>
<totfact> 0.26600322E-02</totfact>
</mgrwt>
</event>
<event>
 4    1  0.2514307E-008  0.1180484E+04  0.7818608E-02  0.9176331E-01
         -1   -1    0    0    0  501 -0.00000000000E+00  0.00000000000E+00  0.16514483816E+04  0.16514483816E+04  0.50400000000E-02 0.  1.
          1   -1    0    0  501    0  0.00000000000E+00 -0.00000000000E+00 -0.17727229037E+04  0.17727229037E+04  0.50400000000E-02 0. -1.
    8880023    1    1    2    0    0  0.84889626388E+03  0.48898630959E+03  0.12582265338E+04  0.17253048121E+04  0.65864270000E+03 0.  0.
    8880022    1    1    2    0    0 -0.84889626388E+03 -0.48898630959E+03 -0.13795010559E+04  0.16988664733E+04  0.15294330000E+03 0.  0.
<mgrwt>
<rscale>  0 0.11301111E+04</rscale>
<asrwt>0</asrwt>
<pdfrwt beam="1">  1        1 0.27272660E+00 0.11804841E+04</pdfrwt>
<pdfrwt beam="2">  1       -1 0.25406898E+00 0.11804841E+04</pdfrwt>
<totfact> 0.27460300E-01</totfact>
</mgrwt>
</event>
<event>
 4    1  0.2514307E-008  0.7104596E+03  0.7818608E-02  0.9956298E-01
          1   -1    0    0  501    0  0.00000000000E+00  0.00000000000E+00  0.10827457633E+04  0.10827457633E+04  0.50400000000E-02 0. -1.
         -1   -1    0    0    0  501 -0.00000000000E+00 -0.00000000000E+00 -0.73117026371E+03  0.73117026373E+03  0.50400000000E-02 0.  1.
    8880023    1    1    2    0    0  0.25256772311E+03  0.84570415459E+02 -0.52610461090E+03  0.88404687534E+03  0.65864270000E+03 0.  1.
    8880022    1    1    2    0    0 -0.25256772311E+03 -0.84570415459E+02  0.87768011045E+03  0.92986915167E+03  0.15294330000E+03 0.  0.
<mgrwt>
<rscale>  0 0.57608718E+03</rscale>
<asrwt>0</asrwt>
<pdfrwt beam="1">  1        1 0.16657627E+00 0.71045958E+03</pdfrwt>
<pdfrwt beam="2">  1       -1 0.11248773E+00 0.71045958E+03</pdfrwt>
<totfact> 0.98278726E+00</totfact>
</mgrwt>
</event>
<event>
 4    1  0.2514307E-008  0.8459712E+03  0.7818608E-02  0.9619022E-01
         -1   -1    0    0    0  501 -0.00000000000E+00  0.00000000000E+00  0.62924010569E+03  0.62924010571E+03  0.50400000000E-02 0.  1.
          1   -1    0    0  501    0  0.00000000000E+00 -0.00000000000E+00 -0.10543085428E+04  0.10543085428E+04  0.50400000000E-02 0. -1.
    8880023    1    1    2    0    0  0.14095715600E+03 -0.51184771506E+03  0.17923505512E+03  0.86474991442E+03  0.65864270000E+03 0. -1.
    8880022    1    1    2    0    0 -0.14095715600E+03  0.51184771506E+03 -0.60430349224E+03  0.81879873412E+03  0.15294330000E+03 0.  0.
<mgrwt>
<rscale>  0 0.76049855E+03</rscale>
<asrwt>0</asrwt>
<pdfrwt beam="1">  1        1 0.16220131E+00 0.84597116E+03</pdfrwt>
<pdfrwt beam="2">  1       -1 0.96806171E-01 0.84597116E+03</pdfrwt>
<totfact> 0.14365184E+01</totfact>
</mgrwt>
</event>
<event>
 4    1  0.2514307E-008  0.7868510E+03  0.7818608E-02  0.9739983E-01
         -1   -1    0    0    0  501 -0.00000000000E+00  0.00000000000E+00  0.51807100894E+03  0.51807100897E+03  0.50400000000E-02 0.  1.
          1   -1    0    0  501    0  0.00000000000E+00 -0.00000000000E+00 -0.18015951612E+04  0.18015951612E+04  0.50400000000E-02 0. -1.
    8880023    1    1    2    0    0  0.27963651312E+03 -0.32730375841E+03  0.16226970464E+03  0.80340898243E+03  0.65864270000E+03 0.  1.
    8880022    1    1    2    0    0 -0.27963651312E+03  0.32730375841E+03 -0.14457938569E+04  0.15162571877E+04  0.15294330000E+03 0.  0.
<mgrwt>
<rscale>  0 0.68685308E+03</rscale>
<asrwt>0</asrwt>
<pdfrwt beam="1">  1        1 0.27716848E+00 0.78685103E+03</pdfrwt>
<pdfrwt beam="2">  1       -1 0.79703233E-01 0.78685103E+03</pdfrwt>
<totfact> 0.66383285E+00</totfact>
</mgrwt>
</event>
<event>
 4    1  0.2514307E-008  0.8676332E+03  0.7818608E-02  0.9580127E-01
          1   -1    0    0  501    0  0.00000000000E+00  0.00000000000E+00  0.11269760322E+04  0.11269760322E+04  0.50400000000E-02 0. -1.
         -1   -1    0    0    0  501 -0.00000000000E+00 -0.00000000000E+00 -0.13392552637E+04  0.13392552637E+04  0.50400000000E-02 0.  1.
    8880023    1    1    2    0    0  0.23460757209E+03  0.51374739220E+03 -0.11012499766E+04  0.14019767520E+04  0.65864270000E+03 0.  1.
    8880022    1    1    2    0    0 -0.23460757209E+03 -0.51374739220E+03  0.88897074507E+03  0.10642545440E+04  0.15294330000E+03 0.  0.
<mgrwt>
<rscale>  0 0.78625582E+03</rscale>
<asrwt>0</asrwt>
<pdfrwt beam="1">  1        1 0.17338093E+00 0.86763316E+03</pdfrwt>
<pdfrwt beam="2">  1       -1 0.20603927E+00 0.86763316E+03</pdfrwt>
<totfact> 0.16965678E+00</totfact>
</mgrwt>
</event>
<event>
 4    1  0.2514307E-008  0.7319254E+03  0.7818608E-02  0.9884124E-01
          1   -1    0    0  501    0  0.00000000000E+00  0.00000000000E+00  0.20728184937E+04  0.20728184937E+04  0.50400000000E-02 0. -1.
         -1   -1    0    0    0  501 -0.00000000000E+00 -0.00000000000E+00 -0.57026539604E+03  0.57026539606E+03  0.50400000000E-02 0.  1.
    8880023    1    1    2    0    0 -0.16766850469E+03  0.27164656114E+03 -0.31103711833E+03  0.79527283173E+03  0.65864270000E+03 0.  0.
    8880022    1    1    2    0    0  0.16766850469E+03 -0.27164656114E+03  0.18135902160E+04  0.18478110580E+04  0.15294330000E+03 0.  0.
<mgrwt>
<rscale>  0 0.61036886E+03</rscale>
<asrwt>0</asrwt>
<pdfrwt beam="1">  1        1 0.31889516E+00 0.73192540E+03</pdfrwt>
<pdfrwt beam="2">  1       -1 0.87733136E-01 0.73192540E+03</pdfrwt>
<totfact> 0.35894215E+00</totfact>
</mgrwt>
</event>
<event>
 4    1  0.2514307E-008  0.1573934E+04  0.7818608E-02  0.8859119E-01
         -1   -1    0    0    0  501 -0.00000000000E+00  0.00000000000E+00  0.67553542410E+03  0.67553542412E+03  0.50400000000E-02 0.  1.
          1   -1    0    0  501    0  0.00000000000E+00 -0.00000000000E+00 -0.48648286181E+04  0.48648286181E+04  0.50400000000E-02 0. -1.
    8880023    1    1    2    0    0  0.13841045086E+04 -0.35736845614E+03 -0.37014593663E+04  0.40221970552E+04  0.65864270000E+03 0. -1.
    8880022    1    1    2    0    0 -0.13841045086E+04  0.35736845614E+03 -0.48783382778E+03  0.15181669871E+04  0.15294330000E+03 0.  0.
<mgrwt>
<rscale>  0 0.15386982E+04</rscale>
<asrwt>0</asrwt>
<pdfrwt beam="1">  1        1 0.74843515E+00 0.15739338E+04</pdfrwt>
<pdfrwt beam="2">  1       -1 0.10392853E+00 0.15739338E+04</pdfrwt>
<totfact> 0.10809497E-02</totfact>
</mgrwt>
</event>
<event>
 4    1  0.2514307E-008  0.6803466E+03  0.7818608E-02  0.1009128E+00
          1   -1    0    0  501    0  0.00000000000E+00  0.00000000000E+00  0.55252641814E+03  0.55252641816E+03  0.50400000000E-02 0. -1.
         -1   -1    0    0    0  501 -0.00000000000E+00 -0.00000000000E+00 -0.10147956485E+04  0.10147956485E+04  0.50400000000E-02 0.  1.
    8880023    1    1    2    0    0 -0.15059413914E+03 -0.79891482105E+02 -0.86712888191E+03  0.11021723766E+04  0.65864270000E+03 0.  0.
    8880022    1    1    2    0    0  0.15059413914E+03  0.79891482105E+02  0.40485965157E+03  0.46514969004E+03  0.15294330000E+03 0. -1.
<mgrwt>
<rscale>  0 0.51822556E+03</rscale>
<asrwt>0</asrwt>
<pdfrwt beam="1">  1        1 0.85004064E-01 0.68034657E+03</pdfrwt>
<pdfrwt beam="2">  1       -1 0.15612241E+00 0.68034657E+03</pdfrwt>
<totfact> 0.12517591E+01</totfact>
</mgrwt>
</event>
<event>
 4    1  0.2514307E-008  0.1158603E+04  0.7818608E-02  0.9198453E-01
         -1   -1    0    0    0  501 -0.00000000000E+00  0.00000000000E+00  0.12413541656E+04  0.12413541657E+04  0.50400000000E-02 0.  1.
          1   -1    0    0  501    0  0.00000000000E+00 -0.00000000000E+00 -0.13840277561E+04  0.13840277561E+04  0.50400000000E-02 0. -1.
    8880023    1    1    2    0    0 -0.86583038000E+03 -0.39860670621E+03  0.69172592582E+03  0.13493867184E+04  0.65864270000E+03 0.  0.
    8880022    1    1    2    0    0  0.86583038000E+03  0.39860670621E+03 -0.83439951628E+03  0.12759952033E+04  0.15294330000E+03 0.  0.
<mgrwt>
<rscale>  0 0.11069408E+04</rscale>
<asrwt>0</asrwt>
<pdfrwt beam="1">  1        1 0.21292735E+00 0.11586025E+04</pdfrwt>
<pdfrwt beam="2">  1       -1 0.19097756E+00 0.11586025E+04</pdfrwt>
<totfact> 0.13504999E+00</totfact>
</mgrwt>
</event>
<event>
 4    1  0.2514307E-008  0.7688815E+03  0.7818608E-02  0.9782634E-01
          1   -1    0    0  501    0  0.00000000000E+00  0.00000000000E+00  0.65840795392E+03  0.65840795394E+03  0.50400000000E-02 0. -1.
         -1   -1    0    0    0  501 -0.00000000000E+00 -0.00000000000E+00 -0.68138132804E+03  0.68138132806E+03  0.50400000000E-02 0.  1.
    8880023    1    1    2    0    0  0.97626155848E+02 -0.38449661347E+03 -0.30762578603E+03  0.82813787655E+03  0.65864270000E+03 0.  1.
    8880022    1    1    2    0    0 -0.97626155848E+02  0.38449661347E+03  0.28465241191E+03  0.51165140545E+03  0.15294330000E+03 0.  0.
<mgrwt>
<rscale>  0 0.66302879E+03</rscale>
<asrwt>0</asrwt>
<pdfrwt beam="1">  1        1 0.10129353E+00 0.76888147E+03</pdfrwt>
<pdfrwt beam="2">  1       -1 0.10482790E+00 0.76888147E+03</pdfrwt>
<totfact> 0.26131984E+01</totfact>
</mgrwt>
</event>
<event>
 4    1  0.2514307E-008  0.1960340E+04  0.7818608E-02  0.8638671E-01
          1   -1    0    0  501    0  0.00000000000E+00  0.00000000000E+00  0.31663620779E+04  0.31663620779E+04  0.50400000000E-02 0. -1.
         -1   -1    0    0    0  501 -0.00000000000E+00 -0.00000000000E+00 -0.13705672583E+04  0.13705672583E+04  0.50400000000E-02 0.  1.
    8880023    1    1    2    0    0 -0.63828008362E+03 -0.17325479759E+04  0.51915862559E+01  0.19603471919E+04  0.65864270000E+03 0.  0.
    8880022    1    1    2    0    0  0.63828008362E+03  0.17325479759E+04  0.17906032334E+04  0.25765821443E+04  0.15294330000E+03 0.  0.
<mgrwt>
<rscale>  0 0.19328590E+04</rscale>
<asrwt>0</asrwt>
<pdfrwt beam="1">  1        1 0.48713263E+00 0.19603403E+04</pdfrwt>
<pdfrwt beam="2">  1       -1 0.21085650E+00 0.19603403E+04</pdfrwt>
<totfact> 0.51248928E-02</totfact>
</mgrwt>
</event>
<event>
 4    1  0.2514307E-008  0.7724553E+03  0.7818608E-02  0.9773868E-01
          1   -1    0    0  501    0  0.00000000000E+00  0.00000000000E+00  0.16044342529E+04  0.16044342529E+04  0.50400000000E-02 0. -1.
         -1   -1    0    0    0  501 -0.00000000000E+00 -0.00000000000E+00 -0.30652858986E+03  0.30652858991E+03  0.50400000000E-02 0.  1.
    8880023    1    1    2    0    0 -0.40224799159E+03  0.32765297702E+02  0.30897442626E+03  0.83195697835E+03  0.65864270000E+03 0.  1.
    8880022    1    1    2    0    0  0.40224799159E+03 -0.32765297702E+02  0.98893123682E+03  0.10790058645E+04  0.15294330000E+03 0.  0.
<mgrwt>
<rscale>  0 0.66784011E+03</rscale>
<asrwt>0</asrwt>
<pdfrwt beam="1">  1        1 0.24683604E+00 0.77245532E+03</pdfrwt>
<pdfrwt beam="2">  1       -1 0.47158244E-01 0.77245532E+03</pdfrwt>
<totfact> 0.25627980E+01</totfact>
</mgrwt>
</event>
<event>
 4    1  0.2514307E-008  0.1091955E+04  0.7818608E-02  0.9270067E-01
         -1   -1    0    0    0  501 -0.00000000000E+00  0.00000000000E+00  0.57269327026E+03  0.57269327028E+03  0.50400000000E-02 0.  1.
          1   -1    0    0  501    0  0.00000000000E+00 -0.00000000000E+00 -0.34063819645E+04  0.34063819645E+04  0.50400000000E-02 0. -1.
    8880023    1    1    2    0    0 -0.25592448388E+03  0.83250085923E+03 -0.89138123892E+02  0.10955869812E+04  0.65864270000E+03 0.  0.
    8880022    1    1    2    0    0  0.25592448388E+03 -0.83250085923E+03 -0.27445505704E+04  0.28834882535E+04  0.15294330000E+03 0.  0.
<mgrwt>
<rscale>  0 0.10358590E+04</rscale>
<asrwt>0</asrwt>
<pdfrwt beam="1">  1        1 0.52405875E+00 0.10919548E+04</pdfrwt>
<pdfrwt beam="2">  1       -1 0.88106659E-01 0.10919548E+04</pdfrwt>
<totfact> 0.38227427E-01</totfact>
</mgrwt>
</event>
<event>
 4    1  0.2514307E-008  0.8115730E+03  0.7818608E-02  0.9686310E-01
          1   -1    0    0  501    0  0.00000000000E+00  0.00000000000E+00  0.13855833481E+04  0.13855833482E+04  0.50400000000E-02 0. -1.
         -1   -1    0    0    0  501 -0.00000000000E+00 -0.00000000000E+00 -0.14596233585E+04  0.14596233585E+04  0.50400000000E-02 0.  1.
    8880023    1    1    2    0    0 -0.52750481651E+02  0.47123029554E+03 -0.12939919754E+04  0.15274377380E+04  0.65864270000E+03 0.  1.
    8880022    1    1    2    0    0  0.52750481651E+02 -0.47123029554E+03  0.12199519651E+04  0.13177689687E+04  0.15294330000E+03 0.  0.
<mgrwt>
<rscale>  0 0.71837794E+03</rscale>
<asrwt>0</asrwt>
<pdfrwt beam="1">  1        1 0.21316667E+00 0.81157305E+03</pdfrwt>
<pdfrwt beam="2">  1       -1 0.22455744E+00 0.81157305E+03</pdfrwt>
<totfact> 0.84018246E-01</totfact>
</mgrwt>
</event>
<event>
 4    1  0.2514307E-008  0.9041692E+03  0.7818608E-02  0.9519372E-01
         -1   -1    0    0    0  501 -0.00000000000E+00  0.00000000000E+00  0.17821026700E+04  0.17821026700E+04  0.50400000000E-02 0.  1.
          1   -1    0    0  501    0  0.00000000000E+00 -0.00000000000E+00 -0.98386562369E+03  0.98386562370E+03  0.50400000000E-02 0. -1.
    8880023    1    1    2    0    0  0.60969124454E+03 -0.10949124661E+03  0.15410685620E+04  0.17867328468E+04  0.65864270000E+03 0.  1.
    8880022    1    1    2    0    0 -0.60969124454E+03  0.10949124661E+03 -0.74283151570E+03  0.97923544691E+03  0.15294330000E+03 0.  0.
<mgrwt>
<rscale>  0 0.82870579E+03</rscale>
<asrwt>0</asrwt>
<pdfrwt beam="1">  1        1 0.15136394E+00 0.90416921E+03</pdfrwt>
<pdfrwt beam="2">  1       -1 0.27416964E+00 0.90416921E+03</pdfrwt>
<totfact> 0.77631927E-01</totfact>
</mgrwt>
</event>
<event>
 4    1  0.2514307E-008  0.7598229E+03  0.7818608E-02  0.9805566E-01
         -1   -1    0    0    0  501 -0.00000000000E+00  0.00000000000E+00  0.63211710767E+03  0.63211710769E+03  0.50400000000E-02 0.  1.
          1   -1    0    0  501    0  0.00000000000E+00 -0.00000000000E+00 -0.17842215683E+04  0.17842215683E+04  0.50400000000E-02 0. -1.
    8880023    1    1    2    0    0  0.29731802762E+03  0.23478206823E+03  0.36660214204E+03  0.84363971334E+03  0.65864270000E+03 0.  1.
    8880022    1    1    2    0    0 -0.29731802762E+03 -0.23478206823E+03 -0.15187066026E+04  0.15726989626E+04  0.15294330000E+03 0.  0.
<mgrwt>
<rscale>  0 0.65064683E+03</rscale>
<asrwt>0</asrwt>
<pdfrwt beam="1">  1        1 0.27449562E+00 0.75982290E+03</pdfrwt>
<pdfrwt beam="2">  1       -1 0.97248787E-01 0.75982290E+03</pdfrwt>
<totfact> 0.44325467E+00</totfact>
</mgrwt>
</event>
<event>
 4    1  0.2514307E-008  0.1150127E+04  0.7818608E-02  0.9207196E-01
          1   -1    0    0  501    0  0.00000000000E+00  0.00000000000E+00  0.40250795209E+04  0.40250795209E+04  0.50400000000E-02 0. -1.
         -1   -1    0    0    0  501 -0.00000000000E+00 -0.00000000000E+00 -0.33730139199E+03  0.33730139203E+03  0.50400000000E-02 0.  1.
    8880023    1    1    2    0    0 -0.20663985174E+03  0.91993564280E+03  0.10513167048E+04  0.15582229094E+04  0.65864270000E+03 0.  0.
    8880022    1    1    2    0    0  0.20663985174E+03 -0.91993564280E+03  0.26364614240E+04  0.28041580035E+04  0.15294330000E+03 0.  0.
<mgrwt>
<rscale>  0 0.10979458E+04</rscale>
<asrwt>0</asrwt>
<pdfrwt beam="1">  1        1 0.61924303E+00 0.11501269E+04</pdfrwt>
<pdfrwt beam="2">  1       -1 0.51892520E-01 0.11501269E+04</pdfrwt>
<totfact> 0.35044440E-01</totfact>
</mgrwt>
</event>
<event>
 4    1  0.2514307E-008  0.6776564E+03  0.7818608E-02  0.1010682E+00
          1   -1    0    0  501    0  0.00000000000E+00  0.00000000000E+00  0.92269315229E+03  0.92269315231E+03  0.50400000000E-02 0. -1.
         -1   -1    0    0    0  501 -0.00000000000E+00 -0.00000000000E+00 -0.11378574096E+04  0.11378574096E+04  0.50400000000E-02 0.  1.
    8880023    1    1    2    0    0 -0.86944342628E+02 -0.13359893139E+03 -0.10207565050E+04  0.12252191812E+04  0.65864270000E+03 0.  1.
    8880022    1    1    2    0    0  0.86944342628E+02  0.13359893139E+03  0.80559224766E+03  0.83533138076E+03  0.15294330000E+03 0.  0.
<mgrwt>
<rscale>  0 0.51204631E+03</rscale>
<asrwt>0</asrwt>
<pdfrwt beam="1">  1        1 0.14195279E+00 0.67765640E+03</pdfrwt>
<pdfrwt beam="2">  1       -1 0.17505499E+00 0.67765640E+03</pdfrwt>
<totfact> 0.41387349E+00</totfact>
</mgrwt>
</event>
<event>
 4    1  0.2514307E-008  0.1243058E+04  0.7818608E-02  0.9116362E-01
         -1   -1    0    0    0  501 -0.00000000000E+00  0.00000000000E+00  0.11805041579E+04  0.11805041579E+04  0.50400000000E-02 0.  1.
          1   -1    0    0  501    0  0.00000000000E+00 -0.00000000000E+00 -0.19507625552E+04  0.19507625552E+04  0.50400000000E-02 0. -1.
    8880023    1    1    2    0    0 -0.87298079119E+03  0.59100644078E+03  0.61249356874E+03  0.13857642847E+04  0.65864270000E+03 0.  0.
    8880022    1    1    2    0    0  0.87298079119E+03 -0.59100644078E+03 -0.13827519660E+04  0.17455024284E+04  0.15294330000E+03 0.  0.
<mgrwt>
<rscale>  0 0.11960034E+04</rscale>
<asrwt>0</asrwt>
<pdfrwt beam="1">  1        1 0.30011732E+00 0.12430584E+04</pdfrwt>
<pdfrwt beam="2">  1       -1 0.18161602E+00 0.12430584E+04</pdfrwt>
<totfact> 0.63643137E-01</totfact>
</mgrwt>
</event>
<event>
 4    1  0.2514307E-008  0.9100378E+03  0.7818608E-02  0.9510106E-01
         -1   -1    0    0    0  501 -0.00000000000E+00  0.00000000000E+00  0.14603379104E+04  0.14603379105E+04  0.50400000000E-02 0.  1.
          1   -1    0    0  501    0  0.00000000000E+00 -0.00000000000E+00 -0.13486373101E+04  0.13486373101E+04  0.50400000000E-02 0. -1.
    8880023    1    1    2    0    0  0.40299495523E+03 -0.48161560476E+03  0.12223721390E+04  0.15239299122E+04  0.65864270000E+03 0.  0.
    8880022    1    1    2    0    0 -0.40299495523E+03  0.48161560476E+03 -0.11106715387E+04  0.12850453084E+04  0.15294330000E+03 0.  0.
<mgrwt>
<rscale>  0 0.83542822E+03</rscale>
<asrwt>0</asrwt>
<pdfrwt beam="1">  1        1 0.20748266E+00 0.91003776E+03</pdfrwt>
<pdfrwt beam="2">  1       -1 0.22466737E+00 0.91003776E+03</pdfrwt>
<totfact> 0.87458056E-01</totfact>
</mgrwt>
</event>
<event>
 4    1  0.2514307E-008  0.6959069E+03  0.7818608E-02  0.1001462E+00
          1   -1    0    0  501    0  0.00000000000E+00  0.00000000000E+00  0.26496357751E+03  0.26496357756E+03  0.50400000000E-02 0. -1.
         -1   -1    0    0    0  501 -0.00000000000E+00 -0.00000000000E+00 -0.12510949972E+04  0.12510949972E+04  0.50400000000E-02 0.  1.
    8880023    1    1    2    0    0  0.10751263157E+03 -0.19727436752E+03 -0.10276608319E+04  0.12411176954E+04  0.65864270000E+03 0.  1.
    8880022    1    1    2    0    0 -0.10751263157E+03  0.19727436752E+03  0.41529412301E+02  0.27494087933E+03  0.15294330000E+03 0.  1.
<mgrwt>
<rscale>  0 0.55013620E+03</rscale>
<asrwt>0</asrwt>
<pdfrwt beam="1">  1        1 0.40763628E-01 0.69590685E+03</pdfrwt>
<pdfrwt beam="2">  1       -1 0.19247615E+00 0.69590685E+03</pdfrwt>
<totfact> 0.18078571E+01</totfact>
</mgrwt>
</event>
<event>
 4    1  0.2514307E-008  0.8459250E+03  0.7818608E-02  0.9619108E-01
          1   -1    0    0  501    0  0.00000000000E+00  0.00000000000E+00  0.33907789924E+03  0.33907789928E+03  0.50400000000E-02 0. -1.
         -1   -1    0    0    0  501 -0.00000000000E+00 -0.00000000000E+00 -0.17483401350E+04  0.17483401350E+04  0.50400000000E-02 0.  1.
    8880023    1    1    2    0    0 -0.34412480341E+03  0.40417441671E+03 -0.12556843316E+04  0.15140449750E+04  0.65864270000E+03 0.  1.
    8880022    1    1    2    0    0  0.34412480341E+03 -0.40417441671E+03 -0.15357790414E+03  0.57337305927E+03  0.15294330000E+03 0.  0.
<mgrwt>
<rscale>  0 0.76044306E+03</rscale>
<asrwt>0</asrwt>
<pdfrwt beam="1">  1        1 0.52165832E-01 0.84592496E+03</pdfrwt>
<pdfrwt beam="2">  1       -1 0.26897540E+00 0.84592496E+03</pdfrwt>
<totfact> 0.40325371E+00</totfact>
</mgrwt>
</event>
<event>
 4    1  0.2514307E-008  0.9159137E+03  0.7818608E-02  0.9500953E-01
          1   -1    0    0  501    0  0.00000000000E+00  0.00000000000E+00  0.22717247273E+04  0.22717247273E+04  0.50400000000E-02 0. -1.
         -1   -1    0    0    0  501 -0.00000000000E+00 -0.00000000000E+00 -0.39936303340E+03  0.39936303344E+03  0.50400000000E-02 0.  1.
    8880023    1    1    2    0    0 -0.48391008980E+03 -0.41342317073E+03  0.17908126591E+04  0.20114442273E+04  0.65864270000E+03 0.  1.
    8880022    1    1    2    0    0  0.48391008980E+03  0.41342317073E+03  0.81549034725E+02  0.65964353342E+03  0.15294330000E+03 0.  0.
<mgrwt>
<rscale>  0 0.84213584E+03</rscale>
<asrwt>0</asrwt>
<pdfrwt beam="1">  1        1 0.34949611E+00 0.91591370E+03</pdfrwt>
<pdfrwt beam="2">  1       -1 0.61440466E-01 0.91591370E+03</pdfrwt>
<totfact> 0.53688053E+00</totfact>
</mgrwt>
</event>
<event>
 4    1  0.2514307E-008  0.1470515E+04  0.7818608E-02  0.8930742E-01
         -1   -1    0    0    0  501 -0.00000000000E+00  0.00000000000E+00  0.13181423167E+04  0.13181423167E+04  0.50400000000E-02 0.  1.
          1   -1    0    0  501    0  0.00000000000E+00 -0.00000000000E+00 -0.18511120704E+04  0.18511120704E+04  0.50400000000E-02 0. -1.
    8880023    1    1    2    0    0 -0.12549150038E+04 -0.39216286463E+03  0.43034674404E+03  0.15321918632E+04  0.65864270000E+03 0.  0.
    8880022    1    1    2    0    0  0.12549150038E+04  0.39216286463E+03 -0.96331649774E+03  0.16370625239E+04  0.15294330000E+03 0.  0.
<mgrwt>
<rscale>  0 0.14323318E+04</rscale>
<asrwt>0</asrwt>
<pdfrwt beam="1">  1        1 0.28478647E+00 0.14705147E+04</pdfrwt>
<pdfrwt beam="2">  1       -1 0.20279113E+00 0.14705147E+04</pdfrwt>
<totfact> 0.51377370E-01</totfact>
</mgrwt>
</event>
<event>
 4    1  0.2514307E-008  0.7574342E+03  0.7818608E-02  0.9811796E-01
          1   -1    0    0  501    0  0.00000000000E+00  0.00000000000E+00  0.50061625883E+03  0.50061625885E+03  0.50400000000E-02 0. -1.
         -1   -1    0    0    0  501 -0.00000000000E+00 -0.00000000000E+00 -0.10207611132E+04  0.10207611132E+04  0.50400000000E-02 0.  1.
    8880023    1    1    2    0    0 -0.10349708995E+03  0.35942270850E+03 -0.74206397696E+03  0.10603610155E+04  0.65864270000E+03 0.  0.
    8880022    1    1    2    0    0  0.10349708995E+03 -0.35942270850E+03  0.22191912261E+03  0.46101635655E+03  0.15294330000E+03 0. -1.
<mgrwt>
<rscale>  0 0.64733331E+03</rscale>
<asrwt>0</asrwt>
<pdfrwt beam="1">  1        1 0.77017886E-01 0.75743418E+03</pdfrwt>
<pdfrwt beam="2">  1       -1 0.15704017E+00 0.75743418E+03</pdfrwt>
<totfact> 0.13992741E+01</totfact>
</mgrwt>
</event>
<event>
 4    1  0.2514307E-008  0.1114473E+04  0.7818608E-02  0.9245111E-01
         -1   -1    0    0    0  501 -0.00000000000E+00  0.00000000000E+00  0.21504675614E+04  0.21504675614E+04  0.50400000000E-02 0.  1.
          1   -1    0    0  501    0  0.00000000000E+00 -0.00000000000E+00 -0.93356220166E+03  0.93356220168E+03  0.50400000000E-02 0. -1.
    8880023    1    1    2    0    0 -0.49280075581E+03 -0.75192271784E+03  0.17147141418E+04  0.20450660510E+04  0.65864270000E+03 0.  0.
    8880022    1    1    2    0    0  0.49280075581E+03  0.75192271784E+03 -0.49780878207E+03  0.10389637121E+04  0.15294330000E+03 0.  0.
<mgrwt>
<rscale>  0 0.10599701E+04</rscale>
<asrwt>0</asrwt>
<pdfrwt beam="1">  1        1 0.14362496E+00 0.11144732E+04</pdfrwt>
<pdfrwt beam="2">  1       -1 0.33084116E+00 0.11144732E+04</pdfrwt>
<totfact> 0.35520125E-01</totfact>
</mgrwt>
</event>
<event>
 4    1  0.2514307E-008  0.9340084E+03  0.7818608E-02  0.9473506E-01
          1   -1    0    0  501    0  0.00000000000E+00  0.00000000000E+00  0.10649298300E+04  0.10649298300E+04  0.50400000000E-02 0. -1.
         -1   -1    0    0    0  501 -0.00000000000E+00 -0.00000000000E+00 -0.13039981852E+04  0.13039981852E+04  0.50400000000E-02 0.  1.
    8880023    1    1    2    0    0 -0.65885811580E+03 -0.66839049427E+02 -0.98661275216E+03  0.13585935390E+04  0.65864270000E+03 0.  0.
    8880022    1    1    2    0    0  0.65885811580E+03  0.66839049427E+02  0.74754439697E+03  0.10103344762E+04  0.15294330000E+03 0.  0.
<mgrwt>
<rscale>  0 0.86265635E+03</rscale>
<asrwt>0</asrwt>
<pdfrwt beam="1">  1        1 0.16383536E+00 0.93400839E+03</pdfrwt>
<pdfrwt beam="2">  1       -1 0.20061511E+00 0.93400839E+03</pdfrwt>
<totfact> 0.20365305E+00</totfact>
</mgrwt>
</event>
<event>
 4    1  0.2514307E-008  0.1183038E+04  0.7818608E-02  0.9173789E-01
         -1   -1    0    0    0  501 -0.00000000000E+00  0.00000000000E+00  0.11758086561E+04  0.11758086561E+04  0.50400000000E-02 0.  1.
          1   -1    0    0  501    0  0.00000000000E+00 -0.00000000000E+00 -0.39917190223E+04  0.39917190223E+04  0.50400000000E-02 0. -1.
    8880023    1    1    2    0    0  0.32507821501E+02  0.98219785343E+03  0.79290242683E+03  0.14241747949E+04  0.65864270000E+03 0.  1.
    8880022    1    1    2    0    0 -0.32507821501E+02 -0.98219785343E+03 -0.36088127931E+04  0.37433528835E+04  0.15294330000E+03 0.  0.
<mgrwt>
<rscale>  0 0.11328110E+04</rscale>
<asrwt>0</asrwt>
<pdfrwt beam="1">  1        1 0.61411061E+00 0.11830383E+04</pdfrwt>
<pdfrwt beam="2">  1       -1 0.18089364E+00 0.11830383E+04</pdfrwt>
<totfact> 0.20284097E-02</totfact>
</mgrwt>
</event>
<event>
 4    1  0.2514307E-008  0.7530228E+03  0.7818608E-02  0.9823517E-01
          1   -1    0    0  501    0  0.00000000000E+00  0.00000000000E+00  0.20325927866E+04  0.20325927866E+04  0.50400000000E-02 0. -1.
         -1   -1    0    0    0  501 -0.00000000000E+00 -0.00000000000E+00 -0.25310280131E+03  0.25310280136E+03  0.50400000000E-02 0.  1.
    8880023    1    1    2    0    0  0.35904596380E+03  0.65720542895E+02  0.40430493533E+03  0.85469636765E+03  0.65864270000E+03 0.  1.
    8880022    1    1    2    0    0 -0.35904596380E+03 -0.65720542895E+02  0.13751850500E+04  0.14309992203E+04  0.15294330000E+03 0.  0.
<mgrwt>
<rscale>  0 0.64115598E+03</rscale>
<asrwt>0</asrwt>
<pdfrwt beam="1">  1        1 0.31270659E+00 0.75302284E+03</pdfrwt>
<pdfrwt beam="2">  1       -1 0.38938891E-01 0.75302284E+03</pdfrwt>
<totfact> 0.18866582E+01</totfact>
</mgrwt>
</event>
<event>
 4    1  0.2514307E-008  0.8143859E+03  0.7818608E-02  0.9680513E-01
         -1   -1    0    0    0  501 -0.00000000000E+00  0.00000000000E+00  0.65416172602E+03  0.65416172604E+03  0.50400000000E-02 0.  1.
          1   -1    0    0  501    0  0.00000000000E+00 -0.00000000000E+00 -0.77327460617E+03  0.77327460618E+03  0.50400000000E-02 0. -1.
    8880023    1    1    2    0    0  0.43789965155E+03  0.19405700285E+03  0.19127939841E+03  0.83654781077E+03  0.65864270000E+03 0.  1.
    8880022    1    1    2    0    0 -0.43789965155E+03 -0.19405700285E+03 -0.31039227856E+03  0.59088852145E+03  0.15294330000E+03 0.  0.
<mgrwt>
<rscale>  0 0.72189011E+03</rscale>
<asrwt>0</asrwt>
<pdfrwt beam="1">  1        1 0.11896532E+00 0.81438592E+03</pdfrwt>
<pdfrwt beam="2">  1       -1 0.10064027E+00 0.81438592E+03</pdfrwt>
<totfact> 0.22356702E+01</totfact>
</mgrwt>
</event>
<event>
 4    1  0.2514307E-008  0.8495948E+03  0.7818608E-02  0.9612347E-01
          1   -1    0    0  501    0  0.00000000000E+00  0.00000000000E+00  0.45117143209E+03  0.45117143211E+03  0.50400000000E-02 0. -1.
         -1   -1    0    0    0  501 -0.00000000000E+00 -0.00000000000E+00 -0.13475388792E+04  0.13475388792E+04  0.50400000000E-02 0.  1.
    8880023    1    1    2    0    0  0.50488904812E+03  0.18190144023E+03 -0.90407674310E+03  0.12406313105E+04  0.65864270000E+03 0.  0.
    8880022    1    1    2    0    0 -0.50488904812E+03 -0.18190144023E+03  0.77092960327E+01  0.55807900079E+03  0.15294330000E+03 0.  0.
<mgrwt>
<rscale>  0 0.76484325E+03</rscale>
<asrwt>0</asrwt>
<pdfrwt beam="1">  1        1 0.69410990E-01 0.84959478E+03</pdfrwt>
<pdfrwt beam="2">  1       -1 0.20731367E+00 0.84959478E+03</pdfrwt>
<totfact> 0.69878229E+00</totfact>
</mgrwt>
</event>
<event>
 4    1  0.2514307E-008  0.1293374E+04  0.7818608E-02  0.9071303E-01
         -1   -1    0    0    0  501 -0.00000000000E+00  0.00000000000E+00  0.12518688752E+04  0.12518688752E+04  0.50400000000E-02 0.  1.
          1   -1    0    0  501    0  0.00000000000E+00 -0.00000000000E+00 -0.15744251492E+04  0.15744251493E+04  0.50400000000E-02 0. -1.
    8880023    1    1    2    0    0  0.10382689122E+04 -0.40125383401E+03  0.54825409411E+03  0.14047774669E+04  0.65864270000E+03 0.  0.
    8880022    1    1    2    0    0 -0.10382689122E+04  0.40125383401E+03 -0.87081036812E+03  0.14215165576E+04  0.15294330000E+03 0.  0.
<mgrwt>
<rscale>  0 0.12486558E+04</rscale>
<asrwt>0</asrwt>
<pdfrwt beam="1">  1        1 0.24221925E+00 0.12933743E+04</pdfrwt>
<pdfrwt beam="2">  1       -1 0.19259521E+00 0.12933743E+04</pdfrwt>
<totfact> 0.95409075E-01</totfact>
</mgrwt>
</event>
<event>
 4    1  0.2514307E-008  0.1171207E+04  0.7818608E-02  0.9185632E-01
         -1   -1    0    0    0  501 -0.00000000000E+00  0.00000000000E+00  0.10122987094E+04  0.10122987094E+04  0.50400000000E-02 0.  1.
          1   -1    0    0  501    0  0.00000000000E+00 -0.00000000000E+00 -0.27027662650E+04  0.27027662650E+04  0.50400000000E-02 0. -1.
    8880023    1    1    2    0    0 -0.93994244582E+03  0.23328997737E+03  0.53167223940E+03  0.12862354339E+04  0.65864270000E+03 0.  0.
    8880022    1    1    2    0    0  0.93994244582E+03 -0.23328997737E+03 -0.22221397951E+04  0.24288295405E+04  0.15294330000E+03 0.  0.
<mgrwt>
<rscale>  0 0.11202968E+04</rscale>
<asrwt>0</asrwt>
<pdfrwt beam="1">  1        1 0.41581019E+00 0.11712072E+04</pdfrwt>
<pdfrwt beam="2">  1       -1 0.15573826E+00 0.11712072E+04</pdfrwt>
<totfact> 0.30562035E-01</totfact>
</mgrwt>
</event>
<event>
 4    1  0.2514307E-008  0.7436105E+03  0.7818608E-02  0.9849552E-01
          1   -1    0    0  501    0  0.00000000000E+00  0.00000000000E+00  0.32579165689E+04  0.32579165689E+04  0.50400000000E-02 0. -1.
         -1   -1    0    0    0  501 -0.00000000000E+00 -0.00000000000E+00 -0.29353783588E+03  0.29353783592E+03  0.50400000000E-02 0.  1.
    8880023    1    1    2    0    0  0.17924943546E+03 -0.29498469186E+03  0.21191284242E+03  0.77321639118E+03  0.65864270000E+03 0.  1.
    8880022    1    1    2    0    0 -0.17924943546E+03  0.29498469186E+03  0.27524658906E+04  0.27782380137E+04  0.15294330000E+03 0.  0.
<mgrwt>
<rscale>  0 0.62769757E+03</rscale>
<asrwt>0</asrwt>
<pdfrwt beam="1">  1        1 0.50121793E+00 0.74361047E+03</pdfrwt>
<pdfrwt beam="2">  1       -1 0.45159668E-01 0.74361047E+03</pdfrwt>
<totfact> 0.20231262E+00</totfact>
</mgrwt>
</event>
<event>
 4    1  0.2514307E-008  0.8905412E+03  0.7818608E-02  0.9541390E-01
          1   -1    0    0  501    0  0.00000000000E+00  0.00000000000E+00  0.83222888011E+03  0.83222888012E+03  0.50400000000E-02 0. -1.
         -1   -1    0    0    0  501 -0.00000000000E+00 -0.00000000000E+00 -0.11314102800E+04  0.11314102801E+04  0.50400000000E-02 0.  1.
    8880023    1    1    2    0    0 -0.44927572287E+03 -0.39674261416E+03 -0.77711258113E+03  0.11819338167E+04  0.65864270000E+03 0.  1.
    8880022    1    1    2    0    0  0.44927572287E+03  0.39674261416E+03  0.47793118119E+03  0.78170534348E+03  0.15294330000E+03 0.  0.
<mgrwt>
<rscale>  0 0.81299900E+03</rscale>
<asrwt>0</asrwt>
<pdfrwt beam="1">  1        1 0.12803521E+00 0.89054117E+03</pdfrwt>
<pdfrwt beam="2">  1       -1 0.17406312E+00 0.89054117E+03</pdfrwt>
<totfact> 0.48410383E+00</totfact>
</mgrwt>
</event>
<event>
 4    1  0.2514307E-008  0.1248999E+04  0.7818608E-02  0.9110903E-01
         -1   -1    0    0    0  501 -0.00000000000E+00  0.00000000000E+00  0.82950990987E+03  0.82950990989E+03  0.50400000000E-02 0.  1.
          1   -1    0    0  501    0  0.00000000000E+00 -0.00000000000E+00 -0.23158075301E+04  0.23158075301E+04  0.50400000000E-02 0. -1.
    8880023    1    1    2    0    0  0.84645044766E+03 -0.64008675219E+03  0.75078537678E+02  0.12512539326E+04  0.65864270000E+03 0.  1.
    8880022    1    1    2    0    0 -0.84645044766E+03  0.64008675219E+03 -0.15613761579E+04  0.18940635074E+04  0.15294330000E+03 0.  0.
<mgrwt>
<rscale>  0 0.12022344E+04</rscale>
<asrwt>0</asrwt>
<pdfrwt beam="1">  1        1 0.35627808E+00 0.12489994E+04</pdfrwt>
<pdfrwt beam="2">  1       -1 0.12761691E+00 0.12489994E+04</pdfrwt>
<totfact> 0.94540785E-01</totfact>
</mgrwt>
</event>
<event>
 4    1  0.2514307E-008  0.1075311E+04  0.7818608E-02  0.9289055E-01
         -1   -1    0    0    0  501 -0.00000000000E+00  0.00000000000E+00  0.13699996889E+04  0.13699996889E+04  0.50400000000E-02 0.  1.
          1   -1    0    0  501    0  0.00000000000E+00 -0.00000000000E+00 -0.14940642786E+04  0.14940642786E+04  0.50400000000E-02 0. -1.
    8880023    1    1    2    0    0 -0.81560547454E+03  0.23931633963E+03  0.98509389760E+03  0.14583225960E+04  0.65864270000E+03 0.  1.
    8880022    1    1    2    0    0  0.81560547454E+03 -0.23931633963E+03 -0.11091584873E+04  0.14057413715E+04  0.15294330000E+03 0.  0.
<mgrwt>
<rscale>  0 0.10179679E+04</rscale>
<asrwt>0</asrwt>
<pdfrwt beam="1">  1        1 0.22985604E+00 0.10753115E+04</pdfrwt>
<pdfrwt beam="2">  1       -1 0.21076918E+00 0.10753115E+04</pdfrwt>
<totfact> 0.83596477E-01</totfact>
</mgrwt>
</event>
<event>
 4    1  0.2514307E-008  0.8578511E+03  0.7818608E-02  0.9597397E-01
         -1   -1    0    0    0  501 -0.00000000000E+00  0.00000000000E+00  0.77750663225E+03  0.77750663227E+03  0.50400000000E-02 0.  1.
          1   -1    0    0  501    0  0.00000000000E+00 -0.00000000000E+00 -0.21673756990E+04  0.21673756990E+04  0.50400000000E-02 0. -1.
    8880023    1    1    2    0    0 -0.14295740943E+03  0.53071786314E+03  0.48477242002E+03  0.98534906335E+03  0.65864270000E+03 0.  1.
    8880022    1    1    2    0    0  0.14295740943E+03 -0.53071786314E+03 -0.18746414868E+04  0.19595332680E+04  0.15294330000E+03 0.  0.
<mgrwt>
<rscale>  0 0.77468674E+03</rscale>
<asrwt>0</asrwt>
<pdfrwt beam="1">  1        1 0.33344241E+00 0.85785108E+03</pdfrwt>
<pdfrwt beam="2">  1       -1 0.11961641E+00 0.85785108E+03</pdfrwt>
<totfact> 0.14840129E+00</totfact>
</mgrwt>
</event>
<event>
 4    1  0.2514307E-008  0.8184506E+03  0.7818608E-02  0.9672236E-01
         -1   -1    0    0    0  501 -0.00000000000E+00  0.00000000000E+00  0.36401483245E+03  0.36401483249E+03  0.50400000000E-02 0.  1.
          1   -1    0    0  501    0  0.00000000000E+00 -0.00000000000E+00 -0.33917499054E+04  0.33917499054E+04  0.50400000000E-02 0. -1.
    8880023    1    1    2    0    0  0.42462922485E+03  0.23609560304E+03 -0.14848856121E+03  0.83181137973E+03  0.65864270000E+03 0.  1.
    8880022    1    1    2    0    0 -0.42462922485E+03 -0.23609560304E+03 -0.28792465117E+04  0.29239533581E+04  0.15294330000E+03 0.  0.
<mgrwt>
<rscale>  0 0.72694162E+03</rscale>
<asrwt>0</asrwt>
<pdfrwt beam="1">  1        1 0.52180766E+00 0.81845056E+03</pdfrwt>
<pdfrwt beam="2">  1       -1 0.56002284E-01 0.81845056E+03</pdfrwt>
<totfact> 0.10501804E+00</totfact>
</mgrwt>
</event>
<event>
 4    1  0.2514307E-008  0.7419837E+03  0.7818608E-02  0.9854206E-01
         -1   -1    0    0    0  501 -0.00000000000E+00  0.00000000000E+00  0.34921505219E+03  0.34921505223E+03  0.50400000000E-02 0.  1.
          1   -1    0    0  501    0  0.00000000000E+00 -0.00000000000E+00 -0.10700628253E+04  0.10700628253E+04  0.50400000000E-02 0. -1.
    8880023    1    1    2    0    0  0.25024241610E+03  0.23261187731E+03 -0.18339098465E+03  0.76431146256E+03  0.65864270000E+03 0. -1.
    8880022    1    1    2    0    0 -0.25024241610E+03 -0.23261187731E+03 -0.53745678843E+03  0.65496641496E+03  0.15294330000E+03 0.  0.
<mgrwt>
<rscale>  0 0.62532925E+03</rscale>
<asrwt>0</asrwt>
<pdfrwt beam="1">  1        1 0.16462505E+00 0.74198366E+03</pdfrwt>
<pdfrwt beam="2">  1       -1 0.53725393E-01 0.74198366E+03</pdfrwt>
<totfact> 0.47908225E+01</totfact>
</mgrwt>
</event>
<event>
 4    1  0.2514307E-008  0.1015234E+04  0.7818608E-02  0.9361892E-01
          1   -1    0    0  501    0  0.00000000000E+00  0.00000000000E+00  0.16116315831E+04  0.16116315831E+04  0.50400000000E-02 0. -1.
         -1   -1    0    0    0  501 -0.00000000000E+00 -0.00000000000E+00 -0.10768098448E+04  0.10768098448E+04  0.50400000000E-02 0.  1.
    8880023    1    1    2    0    0 -0.62477266304E+03 -0.45447739032E+03 -0.69337467069E+03  0.12294182441E+04  0.65864270000E+03 0.  1.
    8880022    1    1    2    0    0  0.62477266304E+03  0.45447739032E+03  0.12281964089E+04  0.14590231837E+04  0.15294330000E+03 0.  0.
<mgrwt>
<rscale>  0 0.95279264E+03</rscale>
<asrwt>0</asrwt>
<pdfrwt beam="1">  1        1 0.24794332E+00 0.10152343E+04</pdfrwt>
<pdfrwt beam="2">  1       -1 0.16566305E+00 0.10152343E+04</pdfrwt>
<totfact> 0.14582507E+00</totfact>
</mgrwt>
</event>
<event>
 4    1  0.2840405E-008  0.7816173E+03  0.7818608E-02  0.9752051E-01
         -1   -1    0    0    0  501 -0.00000000000E+00  0.00000000000E+00  0.25195318094E+04  0.25195318094E+04  0.50400000000E-02 0.  1.
          1   -1    0    0  501    0  0.00000000000E+00 -0.00000000000E+00 -0.19038047933E+04  0.19038047933E+04  0.50400000000E-02 0. -1.
    8880023    1    1    2    0    0 -0.27862830431E+03  0.31540724816E+03  0.24310456489E+04  0.25536069818E+04  0.65864270000E+03 0.  1.
    8880022    1    1    2    0    0  0.27862830431E+03 -0.31540724816E+03 -0.18153186327E+04  0.18697296209E+04  0.15294330000E+03 0.  0.
<mgrwt>
<rscale>  0 0.68000462E+03</rscale>
<asrwt>0</asrwt>
<pdfrwt beam="1">  1        1 0.29289304E+00 0.78161734E+03</pdfrwt>
<pdfrwt beam="2">  1       -1 0.38762028E+00 0.78161734E+03</pdfrwt>
<totfact> 0.32820632E-02</totfact>
</mgrwt>
</event>
<event>
 4    1  0.2514307E-008  0.1466484E+04  0.7818608E-02  0.8933673E-01
         -1   -1    0    0    0  501 -0.00000000000E+00  0.00000000000E+00  0.10395292327E+04  0.10395292327E+04  0.50400000000E-02 0.  1.
          1   -1    0    0  501    0  0.00000000000E+00 -0.00000000000E+00 -0.20632800500E+04  0.20632800500E+04  0.50400000000E-02 0. -1.
    8880023    1    1    2    0    0 -0.10165671213E+04 -0.82665298112E+03 -0.10152687928E+04  0.17836324709E+04  0.65864270000E+03 0.  0.
    8880022    1    1    2    0    0  0.10165671213E+04  0.82665298112E+03 -0.84820244773E+01  0.13191768119E+04  0.15294330000E+03 0.  0.
<mgrwt>
<rscale>  0 0.14281749E+04</rscale>
<asrwt>0</asrwt>
<pdfrwt beam="1">  1        1 0.31742770E+00 0.14664836E+04</pdfrwt>
<pdfrwt beam="2">  1       -1 0.15992757E+00 0.14664836E+04</pdfrwt>
<totfact> 0.75197259E-01</totfact>
</mgrwt>
</event>
<event>
 4    1  0.2514307E-008  0.1123112E+04  0.7818608E-02  0.9235750E-01
          1   -1    0    0  501    0  0.00000000000E+00  0.00000000000E+00  0.27861065885E+04  0.27861065885E+04  0.50400000000E-02 0. -1.
         -1   -1    0    0    0  501 -0.00000000000E+00 -0.00000000000E+00 -0.48873189379E+03  0.48873189382E+03  0.50400000000E-02 0.  1.
    8880023    1    1    2    0    0  0.80070224439E+03 -0.43179479458E+03  0.44991852682E+03  0.12098792154E+04  0.65864270000E+03 0.  1.
    8880022    1    1    2    0    0 -0.80070224439E+03  0.43179479458E+03  0.18474561679E+04  0.20649592669E+04  0.15294330000E+03 0.  0.
<mgrwt>
<rscale>  0 0.10691931E+04</rscale>
<asrwt>0</asrwt>
<pdfrwt beam="1">  1        1 0.42863178E+00 0.11231122E+04</pdfrwt>
<pdfrwt beam="2">  1       -1 0.75189522E-01 0.11231122E+04</pdfrwt>
<totfact> 0.15251520E+00</totfact>
</mgrwt>
</event>
<event>
 4    1  0.2514307E-008  0.9514526E+03  0.7818608E-02  0.9448027E-01
          1   -1    0    0  501    0  0.00000000000E+00  0.00000000000E+00  0.81501863269E+03  0.81501863271E+03  0.50400000000E-02 0. -1.
         -1   -1    0    0    0  501 -0.00000000000E+00 -0.00000000000E+00 -0.24542515765E+04  0.24542515765E+04  0.50400000000E-02 0.  1.
    8880023    1    1    2    0    0 -0.66805898589E+03  0.15858443283E+03 -0.21822283936E+04  0.23806265560E+04  0.65864270000E+03 0.  1.
    8880022    1    1    2    0    0  0.66805898589E+03 -0.15858443283E+03  0.54299544977E+03  0.88864365325E+03  0.15294330000E+03 0.  0.
<mgrwt>
<rscale>  0 0.88226459E+03</rscale>
<asrwt>0</asrwt>
<pdfrwt beam="1">  1        1 0.12538748E+00 0.95145259E+03</pdfrwt>
<pdfrwt beam="2">  1       -1 0.37757716E+00 0.95145259E+03</pdfrwt>
<totfact> 0.22501831E-01</totfact>
</mgrwt>
</event>
<event>
 4    1  0.2514307E-008  0.7237743E+03  0.7818608E-02  0.9910016E-01
         -1   -1    0    0    0  501 -0.00000000000E+00  0.00000000000E+00  0.24733259427E+03  0.24733259432E+03  0.50400000000E-02 0.  1.
          1   -1    0    0  501    0  0.00000000000E+00 -0.00000000000E+00 -0.19363386641E+04  0.19363386641E+04  0.50400000000E-02 0. -1.
    8880023    1    1    2    0    0  0.16164851079E+03  0.25280195719E+03 -0.35187472729E+03  0.80477642894E+03  0.65864270000E+03 0.  0.
    8880022    1    1    2    0    0 -0.16164851079E+03 -0.25280195719E+03 -0.13371313426E+04  0.13788948295E+04  0.15294330000E+03 0.  0.
<mgrwt>
<rscale>  0 0.59778322E+03</rscale>
<asrwt>0</asrwt>
<pdfrwt beam="1">  1        1 0.29789825E+00 0.72377433E+03</pdfrwt>
<pdfrwt beam="2">  1       -1 0.38051170E-01 0.72377433E+03</pdfrwt>
<totfact> 0.22902064E+01</totfact>
</mgrwt>
</event>
<event>
 4    1  0.2514307E-008  0.6670944E+03  0.7818608E-02  0.1017837E+00
         -1   -1    0    0    0  501 -0.00000000000E+00  0.00000000000E+00  0.12796993729E+04  0.12796993729E+04  0.50400000000E-02 0.  1.
          1   -1    0    0  501    0  0.00000000000E+00 -0.00000000000E+00 -0.94556059789E+03  0.94556059790E+03  0.50400000000E-02 0. -1.
    8880023    1    1    2    0    0 -0.59825950223E+02 -0.87324801559E+02  0.11819903160E+04  0.13572457694E+04  0.65864270000E+03 0.  1.
    8880022    1    1    2    0    0  0.59825950223E+02  0.87324801559E+02 -0.84785154096E+03  0.86801420139E+03  0.15294330000E+03 0.  0.
<mgrwt>
<rscale>  0 0.48475174E+03</rscale>
<asrwt>0</asrwt>
<pdfrwt beam="1">  1        1 0.14547086E+00 0.66709442E+03</pdfrwt>
<pdfrwt beam="2">  1       -1 0.19687683E+00 0.66709442E+03</pdfrwt>
<totfact> 0.27938730E+00</totfact>
</mgrwt>
</event>
<event>
 4    1  0.2514307E-008  0.9022028E+03  0.7818608E-02  0.9522505E-01
         -1   -1    0    0    0  501 -0.00000000000E+00  0.00000000000E+00  0.58044803673E+03  0.58044803675E+03  0.50400000000E-02 0.  1.
          1   -1    0    0  501    0  0.00000000000E+00 -0.00000000000E+00 -0.26667893865E+04  0.26667893865E+04  0.50400000000E-02 0. -1.
    8880023    1    1    2    0    0 -0.41748373072E+03 -0.45372566591E+03  0.15693359036E+03  0.91574996771E+03  0.65864270000E+03 0.  0.
    8880022    1    1    2    0    0  0.41748373072E+03  0.45372566591E+03 -0.22432749401E+04  0.23314874555E+04  0.15294330000E+03 0.  0.
<mgrwt>
<rscale>  0 0.82644787E+03</rscale>
<asrwt>0</asrwt>
<pdfrwt beam="1">  1        1 0.41027528E+00 0.90220278E+03</pdfrwt>
<pdfrwt beam="2">  1       -1 0.89299700E-01 0.90220278E+03</pdfrwt>
<totfact> 0.13217895E+00</totfact>
</mgrwt>
</event>
<event>
 4    1  0.2514307E-008  0.1137765E+04  0.7818608E-02  0.9220130E-01
          1   -1    0    0  501    0  0.00000000000E+00  0.00000000000E+00  0.15817281275E+04  0.15817281275E+04  0.50400000000E-02 0. -1.
         -1   -1    0    0    0  501 -0.00000000000E+00 -0.00000000000E+00 -0.18847746889E+04  0.18847746889E+04  0.50400000000E-02 0.  1.
    8880023    1    1    2    0    0  0.23317523162E+03  0.89795753927E+03 -0.15387768417E+04  0.19137248511E+04  0.65864270000E+03 0.  0.
    8880022    1    1    2    0    0 -0.23317523162E+03 -0.89795753927E+03  0.12357302802E+04  0.15527779653E+04  0.15294330000E+03 0.  0.
<mgrwt>
<rscale>  0 0.10848044E+04</rscale>
<asrwt>0</asrwt>
<pdfrwt beam="1">  1        1 0.24334279E+00 0.11377648E+04</pdfrwt>
<pdfrwt beam="2">  1       -1 0.28996534E+00 0.11377648E+04</pdfrwt>
<totfact> 0.21879920E-01</totfact>
</mgrwt>
</event>
<event>
 4    1  0.2514307E-008  0.1062324E+04  0.7818608E-02  0.9304211E-01
         -1   -1    0    0    0  501 -0.00000000000E+00  0.00000000000E+00  0.19836172353E+04  0.19836172353E+04  0.50400000000E-02 0.  1.
          1   -1    0    0  501    0  0.00000000000E+00 -0.00000000000E+00 -0.11229475406E+04  0.11229475406E+04  0.50400000000E-02 0. -1.
    8880023    1    1    2    0    0 -0.39523640327E+03  0.73383238733E+03  0.16408377720E+04  0.19547072895E+04  0.65864270000E+03 0.  0.
    8880022    1    1    2    0    0  0.39523640327E+03 -0.73383238733E+03 -0.78016807731E+03  0.11518574864E+04  0.15294330000E+03 0.  0.
<mgrwt>
<rscale>  0 0.10039610E+04</rscale>
<asrwt>0</asrwt>
<pdfrwt beam="1">  1        1 0.17276116E+00 0.10623239E+04</pdfrwt>
<pdfrwt beam="2">  1       -1 0.30517188E+00 0.10623239E+04</pdfrwt>
<totfact> 0.37434603E-01</totfact>
</mgrwt>
</event>
<event>
 4    1  0.2514307E-008  0.7760102E+03  0.7818608E-02  0.9765294E-01
          1   -1    0    0  501    0  0.00000000000E+00  0.00000000000E+00  0.14232970019E+04  0.14232970019E+04  0.50400000000E-02 0. -1.
         -1   -1    0    0    0  501 -0.00000000000E+00 -0.00000000000E+00 -0.29930866597E+03  0.29930866601E+03  0.50400000000E-02 0.  1.
    8880023    1    1    2    0    0  0.67774001585E+02  0.40470759448E+03  0.39145305001E+03  0.86915317922E+03  0.65864270000E+03 0.  1.
    8880022    1    1    2    0    0 -0.67774001585E+02 -0.40470759448E+03  0.73253528591E+03  0.85345248869E+03  0.15294330000E+03 0.  1.
<mgrwt>
<rscale>  0 0.67258789E+03</rscale>
<asrwt>0</asrwt>
<pdfrwt beam="1">  1        1 0.21896877E+00 0.77601015E+03</pdfrwt>
<pdfrwt beam="2">  1       -1 0.46047487E-01 0.77601015E+03</pdfrwt>
<totfact> 0.35637169E+01</totfact>
</mgrwt>
</event>
<event>
 4    1  0.2514307E-008  0.6753503E+03  0.7818608E-02  0.1012086E+00
          1   -1    0    0  501    0  0.00000000000E+00  0.00000000000E+00  0.28321730451E+04  0.28321730451E+04  0.50400000000E-02 0. -1.
         -1   -1    0    0    0  501 -0.00000000000E+00 -0.00000000000E+00 -0.65759519634E+03  0.65759519636E+03  0.50400000000E-02 0.  1.
    8880023    1    1    2    0    0 -0.24744406225E+02 -0.14722616828E+03 -0.47876149614E+03  0.82783489097E+03  0.65864270000E+03 0.  1.
    8880022    1    1    2    0    0  0.24744406225E+02  0.14722616828E+03  0.26533393449E+04  0.26619333505E+04  0.15294330000E+03 0.  0.
<mgrwt>
<rscale>  0 0.50653793E+03</rscale>
<asrwt>0</asrwt>
<pdfrwt beam="1">  1        1 0.43571893E+00 0.67535031E+03</pdfrwt>
<pdfrwt beam="2">  1       -1 0.10116849E+00 0.67535031E+03</pdfrwt>
<totfact> 0.80375090E-01</totfact>
</mgrwt>
</event>
<event>
 4    1  0.2514307E-008  0.1165703E+04  0.7818608E-02  0.9191205E-01
          1   -1    0    0  501    0  0.00000000000E+00  0.00000000000E+00  0.23006923303E+04  0.23006923303E+04  0.50400000000E-02 0. -1.
         -1   -1    0    0    0  501 -0.00000000000E+00 -0.00000000000E+00 -0.16556930022E+04  0.16556930022E+04  0.50400000000E-02 0.  1.
    8880023    1    1    2    0    0  0.43530527966E+03  0.85764921312E+03 -0.13213669638E+04  0.17620651857E+04  0.65864270000E+03 0.  0.
    8880022    1    1    2    0    0 -0.43530527966E+03 -0.85764921312E+03  0.19663662920E+04  0.21943201468E+04  0.15294330000E+03 0.  0.
<mgrwt>
<rscale>  0 0.11144674E+04</rscale>
<asrwt>0</asrwt>
<pdfrwt beam="1">  1        1 0.35395267E+00 0.11657028E+04</pdfrwt>
<pdfrwt beam="2">  1       -1 0.25472200E+00 0.11657028E+04</pdfrwt>
<totfact> 0.11963949E-01</totfact>
</mgrwt>
</event>
<event>
 4    1  0.2514307E-008  0.8456588E+03  0.7818608E-02  0.9619601E-01
          1   -1    0    0  501    0  0.00000000000E+00  0.00000000000E+00  0.24102981648E+04  0.24102981648E+04  0.50400000000E-02 0. -1.
         -1   -1    0    0    0  501 -0.00000000000E+00 -0.00000000000E+00 -0.32189822231E+03  0.32189822235E+03  0.50400000000E-02 0.  1.
    8880023    1    1    2    0    0  0.51781901845E+03  0.11485647181E+03  0.36234224881E+03  0.92001666100E+03  0.65864270000E+03 0.  1.
    8880022    1    1    2    0    0 -0.51781901845E+03 -0.11485647181E+03  0.17260576937E+04  0.18121797262E+04  0.15294330000E+03 0.  0.
<mgrwt>
<rscale>  0 0.76012326E+03</rscale>
<asrwt>0</asrwt>
<pdfrwt beam="1">  1        1 0.37081509E+00 0.84565877E+03</pdfrwt>
<pdfrwt beam="2">  1       -1 0.49522805E-01 0.84565877E+03</pdfrwt>
<totfact> 0.66376362E+00</totfact>
</mgrwt>
</event>
<event>
 4    1  0.2514307E-008  0.1080516E+04  0.7818608E-02  0.9283066E-01
         -1   -1    0    0    0  501 -0.00000000000E+00  0.00000000000E+00  0.32155185300E+04  0.32155185300E+04  0.50400000000E-02 0.  1.
          1   -1    0    0  501    0  0.00000000000E+00 -0.00000000000E+00 -0.15142400318E+04  0.15142400318E+04  0.50400000000E-02 0. -1.
    8880023    1    1    2    0    0 -0.67340004385E+03  0.52937408176E+03  0.29874852223E+04  0.31768825438E+04  0.65864270000E+03 0.  0.
    8880022    1    1    2    0    0  0.67340004385E+03 -0.52937408176E+03 -0.12862067241E+04  0.15528760181E+04  0.15294330000E+03 0.  0.
<mgrwt>
<rscale>  0 0.10235693E+04</rscale>
<asrwt>0</asrwt>
<pdfrwt beam="1">  1        1 0.23296001E+00 0.10805160E+04</pdfrwt>
<pdfrwt beam="2">  1       -1 0.49469516E+00 0.10805160E+04</pdfrwt>
<totfact> 0.10383743E-02</totfact>
</mgrwt>
</event>
<event>
 4    1  0.2514307E-008  0.7302098E+03  0.7818608E-02  0.9889442E-01
          1   -1    0    0  501    0  0.00000000000E+00  0.00000000000E+00  0.13238020472E+04  0.13238020472E+04  0.50400000000E-02 0. -1.
         -1   -1    0    0    0  501 -0.00000000000E+00 -0.00000000000E+00 -0.31036082435E+03  0.31036082439E+03  0.50400000000E-02 0.  1.
    8880023    1    1    2    0    0 -0.21970433048E+03  0.22611082348E+03  0.21340878371E+03  0.76075594809E+03  0.65864270000E+03 0.  0.
    8880022    1    1    2    0    0  0.21970433048E+03 -0.22611082348E+03  0.80003243916E+03  0.87340692352E+03  0.15294330000E+03 0.  0.
<mgrwt>
<rscale>  0 0.60775719E+03</rscale>
<asrwt>0</asrwt>
<pdfrwt beam="1">  1        1 0.20366185E+00 0.73020977E+03</pdfrwt>
<pdfrwt beam="2">  1       -1 0.47747820E-01 0.73020977E+03</pdfrwt>
<totfact> 0.39271933E+01</totfact>
</mgrwt>
</event>
<event>
 4    1  0.2514307E-008  0.1044708E+04  0.7818608E-02  0.9325271E-01
         -1   -1    0    0    0  501 -0.00000000000E+00  0.00000000000E+00  0.54038208360E+03  0.54038208363E+03  0.50400000000E-02 0.  1.
          1   -1    0    0  501    0  0.00000000000E+00 -0.00000000000E+00 -0.34739796788E+04  0.34739796788E+04  0.50400000000E-02 0. -1.
    8880023    1    1    2    0    0  0.43961763871E+03 -0.68142491106E+03 -0.84453621131E+02  0.10481155461E+04  0.65864270000E+03 0.  0.
    8880022    1    1    2    0    0 -0.43961763871E+03  0.68142491106E+03 -0.28491439741E+04  0.29662462163E+04  0.15294330000E+03 0.  0.
<mgrwt>
<rscale>  0 0.98489299E+03</rscale>
<asrwt>0</asrwt>
<pdfrwt beam="1">  1        1 0.53445840E+00 0.10447075E+04</pdfrwt>
<pdfrwt beam="2">  1       -1 0.83135707E-01 0.10447075E+04</pdfrwt>
<totfact> 0.38787391E-01</totfact>
</mgrwt>
</event>
<event>
 4    1  0.2514307E-008  0.9897533E+03  0.7818608E-02  0.9395088E-01
         -1   -1    0    0    0  501 -0.00000000000E+00  0.00000000000E+00  0.46814369524E+03  0.46814369527E+03  0.50400000000E-02 0.  1.
          1   -1    0    0  501    0  0.00000000000E+00 -0.00000000000E+00 -0.21252982070E+04  0.21252982070E+04  0.50400000000E-02 0. -1.
    8880023    1    1    2    0    0  0.36447590968E+03 -0.64261855640E+03 -0.15390098696E+04  0.18297985908E+04  0.65864270000E+03 0.  0.
    8880022    1    1    2    0    0 -0.36447590968E+03  0.64261855640E+03 -0.11814464220E+03  0.76364331155E+03  0.15294330000E+03 0.  0.
<mgrwt>
<rscale>  0 0.92481027E+03</rscale>
<asrwt>0</asrwt>
<pdfrwt beam="1">  1        1 0.32696895E+00 0.98975325E+03</pdfrwt>
<pdfrwt beam="2">  1       -1 0.72022109E-01 0.98975325E+03</pdfrwt>
<totfact> 0.48341046E+00</totfact>
</mgrwt>
</event>
<event>
 4    1  0.2514307E-008  0.1148770E+04  0.7818608E-02  0.9208605E-01
          1   -1    0    0  501    0  0.00000000000E+00  0.00000000000E+00  0.19830000745E+04  0.19830000745E+04  0.50400000000E-02 0. -1.
         -1   -1    0    0    0  501 -0.00000000000E+00 -0.00000000000E+00 -0.85969505111E+03  0.85969505113E+03  0.50400000000E-02 0.  1.
    8880023    1    1    2    0    0  0.55611968425E+02  0.93955876836E+03 -0.24529379257E+03  0.11746670257E+04  0.65864270000E+03 0.  0.
    8880022    1    1    2    0    0 -0.55611968425E+02 -0.93955876836E+03  0.13685988159E+04  0.16680281000E+04  0.15294330000E+03 0.  0.
<mgrwt>
<rscale>  0 0.10965051E+04</rscale>
<asrwt>0</asrwt>
<pdfrwt beam="1">  1        1 0.30507693E+00 0.11487705E+04</pdfrwt>
<pdfrwt beam="2">  1       -1 0.13226078E+00 0.11487705E+04</pdfrwt>
<totfact> 0.14708358E+00</totfact>
</mgrwt>
</event>
<event>
 4    1  0.2514307E-008  0.6681519E+03  0.7818608E-02  0.1017024E+00
          1   -1    0    0  501    0  0.00000000000E+00  0.00000000000E+00  0.14930456186E+04  0.14930456186E+04  0.50400000000E-02 0. -1.
         -1   -1    0    0    0  501 -0.00000000000E+00 -0.00000000000E+00 -0.19779080043E+03  0.19779080049E+03  0.50400000000E-02 0.  1.
    8880023    1    1    2    0    0 -0.59882383116E+02  0.95031123732E+02  0.40659459715E+03  0.78214205039E+03  0.65864270000E+03 0.  1.
    8880022    1    1    2    0    0  0.59882383116E+02 -0.95031123732E+02  0.88866022104E+03  0.90869436873E+03  0.15294330000E+03 0.  0.
<mgrwt>
<rscale>  0 0.48776093E+03</rscale>
<asrwt>0</asrwt>
<pdfrwt beam="1">  1        1 0.22969932E+00 0.66815194E+03</pdfrwt>
<pdfrwt beam="2">  1       -1 0.30429355E-01 0.66815194E+03</pdfrwt>
<totfact> 0.68099179E+01</totfact>
</mgrwt>
</event>
<event>
 4    1  0.3212802E-008  0.1094716E+04  0.7818608E-02  0.9266962E-01
          1   -1    0    0  501    0  0.00000000000E+00  0.00000000000E+00  0.16552756397E+04  0.16552756397E+04  0.50400000000E-02 0. -1.
         -1   -1    0    0    0  501 -0.00000000000E+00 -0.00000000000E+00 -0.18637673254E+04  0.18637673254E+04  0.50400000000E-02 0.  1.
    8880023    1    1    2    0    0 -0.71659226387E+03 -0.50108793187E+03 -0.15577637075E+04  0.19039515652E+04  0.65864270000E+03 0.  1.
    8880022    1    1    2    0    0  0.71659226387E+03  0.50108793187E+03  0.13492720218E+04  0.16150913999E+04  0.15294330000E+03 0.  0.
<mgrwt>
<rscale>  0 0.10388216E+04</rscale>
<asrwt>0</asrwt>
<pdfrwt beam="1">  1        1 0.25465779E+00 0.10947163E+04</pdfrwt>
<pdfrwt beam="2">  1       -1 0.28673343E+00 0.10947163E+04</pdfrwt>
<totfact> 0.20586486E-01</totfact>
</mgrwt>
</event>
<event>
 4    1  0.2514307E-008  0.1009094E+04  0.7818608E-02  0.9369756E-01
         -1   -1    0    0    0  501 -0.00000000000E+00  0.00000000000E+00  0.88308792276E+03  0.88308792278E+03  0.50400000000E-02 0.  1.
          1   -1    0    0  501    0  0.00000000000E+00 -0.00000000000E+00 -0.16382189425E+04  0.16382189425E+04  0.50400000000E-02 0. -1.
    8880023    1    1    2    0    0 -0.67694294652E+03 -0.35525848371E+03  0.43473996553E+03  0.10987581112E+04  0.65864270000E+03 0.  1.
    8880022    1    1    2    0    0  0.67694294652E+03  0.35525848371E+03 -0.11898709853E+04  0.14225487541E+04  0.15294330000E+03 0.  0.
<mgrwt>
<rscale>  0 0.94607033E+03</rscale>
<asrwt>0</asrwt>
<pdfrwt beam="1">  1        1 0.25203368E+00 0.10090939E+04</pdfrwt>
<pdfrwt beam="2">  1       -1 0.13585968E+00 0.10090939E+04</pdfrwt>
<totfact> 0.23936226E+00</totfact>
</mgrwt>
</event>
<event>
 4    1  0.2514307E-008  0.1228693E+04  0.7818608E-02  0.9129723E-01
         -1   -1    0    0    0  501 -0.00000000000E+00  0.00000000000E+00  0.88160536977E+03  0.88160536978E+03  0.50400000000E-02 0.  1.
          1   -1    0    0  501    0  0.00000000000E+00 -0.00000000000E+00 -0.16793650714E+04  0.16793650714E+04  0.50400000000E-02 0. -1.
    8880023    1    1    2    0    0  0.47381115484E+03 -0.92270178853E+03  0.23872122770E+02  0.12289246053E+04  0.65864270000E+03 0.  1.
    8880022    1    1    2    0    0 -0.47381115484E+03  0.92270178853E+03 -0.82163182441E+03  0.13320458359E+04  0.15294330000E+03 0.  0.
<mgrwt>
<rscale>  0 0.11809197E+04</rscale>
<asrwt>0</asrwt>
<pdfrwt beam="1">  1        1 0.25836386E+00 0.12286927E+04</pdfrwt>
<pdfrwt beam="2">  1       -1 0.13563160E+00 0.12286927E+04</pdfrwt>
<totfact> 0.21936571E+00</totfact>
</mgrwt>
</event>
<event>
 4    1  0.2514307E-008  0.8128361E+03  0.7818608E-02  0.9683699E-01
          1   -1    0    0  501    0  0.00000000000E+00  0.00000000000E+00  0.80365727965E+03  0.80365727966E+03  0.50400000000E-02 0. -1.
         -1   -1    0    0    0  501 -0.00000000000E+00 -0.00000000000E+00 -0.23012502101E+04  0.23012502101E+04  0.50400000000E-02 0.  1.
    8880023    1    1    2    0    0  0.44975516222E+03 -0.15688418613E+03 -0.21408738534E+04  0.22899876454E+04  0.65864270000E+03 0.  1.
    8880022    1    1    2    0    0 -0.44975516222E+03  0.15688418613E+03  0.64328092296E+03  0.81491984432E+03  0.15294330000E+03 0.  0.
<mgrwt>
<rscale>  0 0.71995671E+03</rscale>
<asrwt>0</asrwt>
<pdfrwt beam="1">  1        1 0.12363958E+00 0.81283612E+03</pdfrwt>
<pdfrwt beam="2">  1       -1 0.35403849E+00 0.81283612E+03</pdfrwt>
<totfact> 0.33868587E-01</totfact>
</mgrwt>
</event>
<event>
 4    1  0.2514307E-008  0.7793488E+03  0.7818608E-02  0.9757369E-01
          1   -1    0    0  501    0  0.00000000000E+00  0.00000000000E+00  0.23029602879E+04  0.23029602879E+04  0.50400000000E-02 0. -1.
         -1   -1    0    0    0  501 -0.00000000000E+00 -0.00000000000E+00 -0.25631645641E+03  0.25631645646E+03  0.50400000000E-02 0.  1.
    8880023    1    1    2    0    0 -0.40028971929E+03  0.11550989118E+03  0.44535259315E+03  0.89762104076E+03  0.65864270000E+03 0.  0.
    8880022    1    1    2    0    0  0.40028971929E+03 -0.11550989118E+03  0.16012912383E+04  0.16616557036E+04  0.15294330000E+03 0. -1.
<mgrwt>
<rscale>  0 0.67701429E+03</rscale>
<asrwt>0</asrwt>
<pdfrwt beam="1">  1        1 0.35430157E+00 0.77934883E+03</pdfrwt>
<pdfrwt beam="2">  1       -1 0.39433302E-01 0.77934883E+03</pdfrwt>
<totfact> 0.12095055E+01</totfact>
</mgrwt>
</event>
<event>
 4    1  0.2514307E-008  0.2003601E+04  0.7818608E-02  0.8617558E-01
          1   -1    0    0  501    0  0.00000000000E+00  0.00000000000E+00  0.45250463333E+04  0.45250463333E+04  0.50400000000E-02 0. -1.
         -1   -1    0    0    0  501 -0.00000000000E+00 -0.00000000000E+00 -0.85286854918E+03  0.85286854920E+03  0.50400000000E-02 0.  1.
    8880023    1    1    2    0    0 -0.92563184384E+03  0.16503974962E+04  0.15704124958E+04  0.25457045821E+04  0.65864270000E+03 0.  0.
    8880022    1    1    2    0    0  0.92563184384E+03 -0.16503974962E+04  0.21017652883E+04  0.28322103005E+04  0.15294330000E+03 0.  0.
<mgrwt>
<rscale>  0 0.19767715E+04</rscale>
<asrwt>0</asrwt>
<pdfrwt beam="1">  1        1 0.69616098E+00 0.20036009E+04</pdfrwt>
<pdfrwt beam="2">  1       -1 0.13121054E+00 0.20036009E+04</pdfrwt>
<totfact> 0.13692264E-02</totfact>
</mgrwt>
</event>
<event>
 4    1  0.2514307E-008  0.7275269E+03  0.7818608E-02  0.9897894E-01
          1   -1    0    0  501    0  0.00000000000E+00  0.00000000000E+00  0.40162132729E+03  0.40162132732E+03  0.50400000000E-02 0. -1.
         -1   -1    0    0    0  501 -0.00000000000E+00 -0.00000000000E+00 -0.75955619013E+03  0.75955619015E+03  0.50400000000E-02 0.  1.
    8880023    1    1    2    0    0 -0.98804863452E+02  0.29278459348E+03 -0.36994525227E+03  0.81618313825E+03  0.65864270000E+03 0. -1.
    8880022    1    1    2    0    0  0.98804863452E+02 -0.29278459348E+03  0.12010389429E+02  0.34499437922E+03  0.15294330000E+03 0.  0.
<mgrwt>
<rscale>  0 0.60363439E+03</rscale>
<asrwt>0</asrwt>
<pdfrwt beam="1">  1        1 0.61787897E-01 0.72752692E+03</pdfrwt>
<pdfrwt beam="2">  1       -1 0.11685480E+00 0.72752692E+03</pdfrwt>
<totfact> 0.40352108E+01</totfact>
</mgrwt>
</event>
<event>
 4    1  0.2514307E-008  0.6709375E+03  0.7818608E-02  0.1015000E+00
         -1   -1    0    0    0  501 -0.00000000000E+00  0.00000000000E+00  0.24279640653E+03  0.24279640658E+03  0.50400000000E-02 0.  1.
          1   -1    0    0  501    0  0.00000000000E+00 -0.00000000000E+00 -0.20480513586E+04  0.20480513586E+04  0.50400000000E-02 0. -1.
    8880023    1    1    2    0    0  0.61183555636E+02 -0.11226534501E+03 -0.23942168621E+03  0.71237622452E+03  0.65864270000E+03 0. -1.
    8880022    1    1    2    0    0 -0.61183555636E+02  0.11226534501E+03 -0.15658332658E+04  0.15784715406E+04  0.15294330000E+03 0. -1.
<mgrwt>
<rscale>  0 0.49535107E+03</rscale>
<asrwt>0</asrwt>
<pdfrwt beam="1">  1        1 0.31508481E+00 0.67093751E+03</pdfrwt>
<pdfrwt beam="2">  1       -1 0.37353295E-01 0.67093751E+03</pdfrwt>
<totfact> 0.20102826E+01</totfact>
</mgrwt>
</event>
<event>
 4    1  0.2514307E-008  0.7632712E+03  0.7818608E-02  0.9796711E-01
          1   -1    0    0  501    0  0.00000000000E+00  0.00000000000E+00  0.20222983083E+04  0.20222983083E+04  0.50400000000E-02 0. -1.
         -1   -1    0    0    0  501 -0.00000000000E+00 -0.00000000000E+00 -0.18124774640E+03  0.18124774647E+03  0.50400000000E-02 0.  1.
    8880023    1    1    2    0    0  0.37462821939E+03 -0.91795876773E+02  0.93482911104E+03  0.12068506365E+04  0.65864270000E+03 0.  0.
    8880022    1    1    2    0    0 -0.37462821939E+03  0.91795876773E+02  0.90622145089E+03  0.99669541828E+03  0.15294330000E+03 0.  0.
<mgrwt>
<rscale>  0 0.65539347E+03</rscale>
<asrwt>0</asrwt>
<pdfrwt beam="1">  1        1 0.31112282E+00 0.76327124E+03</pdfrwt>
<pdfrwt beam="2">  1       -1 0.27884268E-01 0.76327124E+03</pdfrwt>
<totfact> 0.34537608E+01</totfact>
</mgrwt>
</event>
<event>
 4    1  0.2514307E-008  0.8595943E+03  0.7818608E-02  0.9594285E-01
         -1   -1    0    0    0  501 -0.00000000000E+00  0.00000000000E+00  0.16866877766E+03  0.16866877774E+03  0.50400000000E-02 0.  1.
          1   -1    0    0  501    0  0.00000000000E+00 -0.00000000000E+00 -0.39596777740E+04  0.39596777740E+04  0.50400000000E-02 0. -1.
    8880023    1    1    2    0    0  0.42001880774E+03 -0.35871493195E+03 -0.12086534470E+04  0.14831539240E+04  0.65864270000E+03 0.  1.
    8880022    1    1    2    0    0 -0.42001880774E+03  0.35871493195E+03 -0.25823555494E+04  0.26451926277E+04  0.15294330000E+03 0.  0.
<mgrwt>
<rscale>  0 0.77675563E+03</rscale>
<asrwt>0</asrwt>
<pdfrwt beam="1">  1        1 0.60918113E+00 0.85959433E+03</pdfrwt>
<pdfrwt beam="2">  1       -1 0.25949046E-01 0.85959433E+03</pdfrwt>
<totfact> 0.14711976E+00</totfact>
</mgrwt>
</event>
<event>
 4    1  0.2514307E-008  0.9450935E+03  0.7818608E-02  0.9457209E-01
         -1   -1    0    0    0  501 -0.00000000000E+00  0.00000000000E+00  0.10693270863E+04  0.10693270863E+04  0.50400000000E-02 0.  1.
          1   -1    0    0  501    0  0.00000000000E+00 -0.00000000000E+00 -0.19972572723E+04  0.19972572723E+04  0.50400000000E-02 0. -1.
    8880023    1    1    2    0    0  0.18279927542E+03  0.65266830801E+03  0.77829021841E+03  0.12243109759E+04  0.65864270000E+03 0.  0.
    8880022    1    1    2    0    0 -0.18279927542E+03 -0.65266830801E+03 -0.17062204044E+04  0.18422733827E+04  0.15294330000E+03 0.  0.
<mgrwt>
<rscale>  0 0.87513508E+03</rscale>
<asrwt>0</asrwt>
<pdfrwt beam="1">  1        1 0.30727035E+00 0.94509349E+03</pdfrwt>
<pdfrwt beam="2">  1       -1 0.16451186E+00 0.94509349E+03</pdfrwt>
<totfact> 0.82543914E-01</totfact>
</mgrwt>
</event>
<event>
 4    1  0.2514307E-008  0.7801856E+03  0.7818608E-02  0.9755401E-01
          1   -1    0    0  501    0  0.00000000000E+00  0.00000000000E+00  0.10630985991E+04  0.10630985991E+04  0.50400000000E-02 0. -1.
         -1   -1    0    0    0  501 -0.00000000000E+00 -0.00000000000E+00 -0.66807321529E+03  0.66807321531E+03  0.50400000000E-02 0.  1.
    8880023    1    1    2    0    0  0.94084960832E+02  0.40746460360E+03 -0.35639079452E+03  0.85773188568E+03  0.65864270000E+03 0.  1.
    8880022    1    1    2    0    0 -0.94084960832E+02 -0.40746460360E+03  0.75141617828E+03  0.87343992869E+03  0.15294330000E+03 0.  0.
<mgrwt>
<rscale>  0 0.67811892E+03</rscale>
<asrwt>0</asrwt>
<pdfrwt beam="1">  1        1 0.16355363E+00 0.78018561E+03</pdfrwt>
<pdfrwt beam="2">  1       -1 0.10278050E+00 0.78018561E+03</pdfrwt>
<totfact> 0.12438382E+01</totfact>
</mgrwt>
</event>
<event>
 4    1  0.2514307E-008  0.6837794E+03  0.7818608E-02  0.1007262E+00
         -1   -1    0    0    0  501 -0.00000000000E+00  0.00000000000E+00  0.74207605403E+03  0.74207605404E+03  0.50400000000E-02 0.  1.
          1   -1    0    0  501    0  0.00000000000E+00 -0.00000000000E+00 -0.75970957366E+03  0.75970957367E+03  0.50400000000E-02 0. -1.
    8880023    1    1    2    0    0  0.15246619906E+03 -0.10246020061E+03  0.55538375333E+03  0.88091166089E+03  0.65864270000E+03 0.  1.
    8880022    1    1    2    0    0 -0.15246619906E+03  0.10246020061E+03 -0.57301727296E+03  0.62087396683E+03  0.15294330000E+03 0.  0.
<mgrwt>
<rscale>  0 0.52577561E+03</rscale>
<asrwt>0</asrwt>
<pdfrwt beam="1">  1        1 0.11687840E+00 0.68377938E+03</pdfrwt>
<pdfrwt beam="2">  1       -1 0.11416555E+00 0.68377938E+03</pdfrwt>
<totfact> 0.17378278E+01</totfact>
</mgrwt>
</event>
<event>
 4    1  0.2514307E-008  0.9831453E+03  0.7818608E-02  0.9403949E-01
          1   -1    0    0  501    0  0.00000000000E+00  0.00000000000E+00  0.39474787167E+03  0.39474787170E+03  0.50400000000E-02 0. -1.
         -1   -1    0    0    0  501 -0.00000000000E+00 -0.00000000000E+00 -0.20875900261E+04  0.20875900261E+04  0.50400000000E-02 0.  1.
    8880023    1    1    2    0    0  0.71783868571E+03 -0.13218177746E+03 -0.13274459890E+04  0.16518739241E+04  0.65864270000E+03 0.  0.
    8880022    1    1    2    0    0 -0.71783868571E+03  0.13218177746E+03 -0.36539616545E+03  0.83046397378E+03  0.15294330000E+03 0.  0.
<mgrwt>
<rscale>  0 0.91751432E+03</rscale>
<asrwt>0</asrwt>
<pdfrwt beam="1">  1        1 0.60730443E-01 0.98314526E+03</pdfrwt>
<pdfrwt beam="2">  1       -1 0.32116769E+00 0.98314526E+03</pdfrwt>
<totfact> 0.14973669E+00</totfact>
</mgrwt>
</event>
<event>
 4    1  0.2514307E-008  0.1648804E+04  0.7818608E-02  0.8811133E-01
         -1   -1    0    0    0  501 -0.00000000000E+00  0.00000000000E+00  0.13024450003E+04  0.13024450003E+04  0.50400000000E-02 0.  1.
          1   -1    0    0  501    0  0.00000000000E+00 -0.00000000000E+00 -0.28942433211E+04  0.28942433211E+04  0.50400000000E-02 0. -1.
    8880023    1    1    2    0    0 -0.83976001093E+03 -0.12567999745E+04  0.39512651750E+03  0.16954876062E+04  0.65864270000E+03 0.  1.
    8880022    1    1    2    0    0  0.83976001093E+03  0.12567999745E+04 -0.19869248382E+04  0.25012007152E+04  0.15294330000E+03 0.  0.
<mgrwt>
<rscale>  0 0.16154158E+04</rscale>
<asrwt>0</asrwt>
<pdfrwt beam="1">  1        1 0.44526820E+00 0.16488036E+04</pdfrwt>
<pdfrwt beam="2">  1       -1 0.20037615E+00 0.16488036E+04</pdfrwt>
<totfact> 0.99195647E-02</totfact>
</mgrwt>
</event>
<event>
 4    1  0.2514307E-008  0.1152218E+04  0.7818608E-02  0.9205030E-01
          1   -1    0    0  501    0  0.00000000000E+00  0.00000000000E+00  0.13157602513E+04  0.13157602513E+04  0.50400000000E-02 0. -1.
         -1   -1    0    0    0  501 -0.00000000000E+00 -0.00000000000E+00 -0.12627890806E+04  0.12627890806E+04  0.50400000000E-02 0.  1.
    8880023    1    1    2    0    0  0.40578337198E+03 -0.85389465039E+03 -0.71059190587E+03  0.13537161009E+04  0.65864270000E+03 0.  0.
    8880022    1    1    2    0    0 -0.40578337198E+03  0.85389465039E+03  0.76356307656E+03  0.12248332310E+04  0.15294330000E+03 0.  0.
<mgrwt>
<rscale>  0 0.11001662E+04</rscale>
<asrwt>0</asrwt>
<pdfrwt beam="1">  1        1 0.20242465E+00 0.11522180E+04</pdfrwt>
<pdfrwt beam="2">  1       -1 0.19427524E+00 0.11522180E+04</pdfrwt>
<totfact> 0.14326719E+00</totfact>
</mgrwt>
</event>
<event>
 4    1  0.2514307E-008  0.9781130E+03  0.7818608E-02  0.9410770E-01
         -1   -1    0    0    0  501 -0.00000000000E+00  0.00000000000E+00  0.12245013921E+04  0.12245013921E+04  0.50400000000E-02 0.  1.
          1   -1    0    0  501    0  0.00000000000E+00 -0.00000000000E+00 -0.10403668470E+04  0.10403668471E+04  0.50400000000E-02 0. -1.
    8880023    1    1    2    0    0  0.46629751258E+03 -0.55268561228E+03  0.83039296007E+03  0.12830656377E+04  0.65864270000E+03 0.  0.
    8880022    1    1    2    0    0 -0.46629751258E+03  0.55268561228E+03 -0.64625841502E+03  0.98180260147E+03  0.15294330000E+03 0.  0.
<mgrwt>
<rscale>  0 0.91194639E+03</rscale>
<asrwt>0</asrwt>
<pdfrwt beam="1">  1        1 0.16005644E+00 0.97811296E+03</pdfrwt>
<pdfrwt beam="2">  1       -1 0.18838483E+00 0.97811296E+03</pdfrwt>
<totfact> 0.25704557E+00</totfact>
</mgrwt>
</event>
<event>
 4    1  0.2514307E-008  0.8831613E+03  0.7818608E-02  0.9553622E-01
          1   -1    0    0  501    0  0.00000000000E+00  0.00000000000E+00  0.12323255804E+04  0.12323255804E+04  0.50400000000E-02 0. -1.
         -1   -1    0    0    0  501 -0.00000000000E+00 -0.00000000000E+00 -0.93396776425E+03  0.93396776426E+03  0.50400000000E-02 0.  1.
    8880023    1    1    2    0    0  0.27736214886E+03 -0.51887763555E+03  0.93491064544E+03  0.12860917088E+04  0.65864270000E+03 0. -1.
    8880022    1    1    2    0    0 -0.27736214886E+03  0.51887763555E+03 -0.63655282928E+03  0.88020163586E+03  0.15294330000E+03 0.  0.
<mgrwt>
<rscale>  0 0.80443320E+03</rscale>
<asrwt>0</asrwt>
<pdfrwt beam="1">  1        1 0.18958855E+00 0.88316135E+03</pdfrwt>
<pdfrwt beam="2">  1       -1 0.14368735E+00 0.88316135E+03</pdfrwt>
<totfact> 0.40364374E+00</totfact>
</mgrwt>
</event>
<event>
 4    1  0.2514307E-008  0.7266098E+03  0.7818608E-02  0.9900824E-01
         -1   -1    0    0    0  501 -0.00000000000E+00  0.00000000000E+00  0.97451081124E+03  0.97451081125E+03  0.50400000000E-02 0.  1.
          1   -1    0    0  501    0  0.00000000000E+00 -0.00000000000E+00 -0.13426091408E+04  0.13426091408E+04  0.50400000000E-02 0. -1.
    8880023    1    1    2    0    0 -0.30212931484E+03  0.53566788341E+02  0.81117462219E+03  0.10890206599E+04  0.65864270000E+03 0.  1.
    8880022    1    1    2    0    0  0.30212931484E+03 -0.53566788341E+02 -0.11792729517E+04  0.12280992921E+04  0.15294330000E+03 0.  0.
<mgrwt>
<rscale>  0 0.60221365E+03</rscale>
<asrwt>0</asrwt>
<pdfrwt beam="1">  1        1 0.20655525E+00 0.72660975E+03</pdfrwt>
<pdfrwt beam="2">  1       -1 0.14992474E+00 0.72660975E+03</pdfrwt>
<totfact> 0.30854296E+00</totfact>
</mgrwt>
</event>
<event>
 4    1  0.2514307E-008  0.8932557E+03  0.7818608E-02  0.9536946E-01
          1   -1    0    0  501    0  0.00000000000E+00  0.00000000000E+00  0.59659027191E+03  0.59659027193E+03  0.50400000000E-02 0. -1.
         -1   -1    0    0    0  501 -0.00000000000E+00 -0.00000000000E+00 -0.22187768263E+04  0.22187768263E+04  0.50400000000E-02 0.  1.
    8880023    1    1    2    0    0  0.57976707081E+03  0.16722953941E+03 -0.19257316714E+04  0.21228161135E+04  0.65864270000E+03 0.  0.
    8880022    1    1    2    0    0 -0.57976707081E+03 -0.16722953941E+03  0.30354511707E+03  0.69255098467E+03  0.15294330000E+03 0.  0.
<mgrwt>
<rscale>  0 0.81613881E+03</rscale>
<asrwt>0</asrwt>
<pdfrwt beam="1">  1        1 0.91783120E-01 0.89325572E+03</pdfrwt>
<pdfrwt beam="2">  1       -1 0.34135028E+00 0.89325572E+03</pdfrwt>
<totfact> 0.63463953E-01</totfact>
</mgrwt>
</event>
<event>
 4    1  0.2514307E-008  0.2124769E+04  0.7818608E-02  0.8561417E-01
          1   -1    0    0  501    0  0.00000000000E+00  0.00000000000E+00  0.30029385232E+04  0.30029385232E+04  0.50400000000E-02 0. -1.
         -1   -1    0    0    0  501 -0.00000000000E+00 -0.00000000000E+00 -0.19976801672E+04  0.19976801672E+04  0.50400000000E-02 0.  1.
    8880023    1    1    2    0    0 -0.81674956863E+03  0.18476343019E+04 -0.81634928020E+03  0.22761961086E+04  0.65864270000E+03 0.  0.
    8880022    1    1    2    0    0  0.81674956863E+03 -0.18476343019E+04  0.18216076362E+04  0.27244225819E+04  0.15294330000E+03 0.  0.
<mgrwt>
<rscale>  0 0.20996052E+04</rscale>
<asrwt>0</asrwt>
<pdfrwt beam="1">  1        1 0.46199054E+00 0.21247688E+04</pdfrwt>
<pdfrwt beam="2">  1       -1 0.30733541E+00 0.21247688E+04</pdfrwt>
<totfact> 0.15370808E-02</totfact>
</mgrwt>
</event>
<event>
 4    1  0.2514307E-008  0.8385490E+03  0.7818608E-02  0.9632922E-01
          1   -1    0    0  501    0  0.00000000000E+00  0.00000000000E+00  0.26234058175E+04  0.26234058175E+04  0.50400000000E-02 0. -1.
         -1   -1    0    0    0  501 -0.00000000000E+00 -0.00000000000E+00 -0.24514533529E+03  0.24514533534E+03  0.50400000000E-02 0.  1.
    8880023    1    1    2    0    0  0.23938762506E+03  0.46048643113E+03  0.66003584635E+03  0.10671512138E+04  0.65864270000E+03 0.  1.
    8880022    1    1    2    0    0 -0.23938762506E+03 -0.46048643113E+03  0.17182246358E+04  0.18013999391E+04  0.15294330000E+03 0. -1.
<mgrwt>
<rscale>  0 0.75154964E+03</rscale>
<asrwt>0</asrwt>
<pdfrwt beam="1">  1        1 0.40360089E+00 0.83854898E+03</pdfrwt>
<pdfrwt beam="2">  1       -1 0.37714667E-01 0.83854898E+03</pdfrwt>
<totfact> 0.78536086E+00</totfact>
</mgrwt>
</event>
<event>
 4    1  0.2514307E-008  0.1122165E+04  0.7818608E-02  0.9236771E-01
         -1   -1    0    0    0  501 -0.00000000000E+00  0.00000000000E+00  0.10922680178E+04  0.10922680178E+04  0.50400000000E-02 0.  1.
          1   -1    0    0  501    0  0.00000000000E+00 -0.00000000000E+00 -0.15209368362E+04  0.15209368362E+04  0.50400000000E-02 0. -1.
    8880023    1    1    2    0    0  0.76787251958E+03 -0.48560852756E+03  0.56648685856E+03  0.12570447150E+04  0.65864270000E+03 0.  0.
    8880022    1    1    2    0    0 -0.76787251958E+03  0.48560852756E+03 -0.99515567690E+03  0.13561601390E+04  0.15294330000E+03 0.  0.
<mgrwt>
<rscale>  0 0.10681825E+04</rscale>
<asrwt>0</asrwt>
<pdfrwt beam="1">  1        1 0.23399028E+00 0.11221649E+04</pdfrwt>
<pdfrwt beam="2">  1       -1 0.16804123E+00 0.11221649E+04</pdfrwt>
<totfact> 0.15929372E+00</totfact>
</mgrwt>
</event>
<event>
 4    1  0.2514307E-008  0.7182818E+03  0.7818608E-02  0.9928443E-01
         -1   -1    0    0    0  501 -0.00000000000E+00  0.00000000000E+00  0.95250568162E+03  0.95250568163E+03  0.50400000000E-02 0.  1.
          1   -1    0    0  501    0  0.00000000000E+00 -0.00000000000E+00 -0.29764247052E+03  0.29764247056E+03  0.50400000000E-02 0. -1.
    8880023    1    1    2    0    0  0.24946418410E+03  0.14101823320E+03  0.32900482449E+03  0.79004613918E+03  0.65864270000E+03 0. -1.
    8880022    1    1    2    0    0 -0.24946418410E+03 -0.14101823320E+03  0.32585838661E+03  0.46010201301E+03  0.15294330000E+03 0. -1.
<mgrwt>
<rscale>  0 0.58902392E+03</rscale>
<asrwt>0</asrwt>
<pdfrwt beam="1">  1        1 0.45791150E-01 0.71828179E+03</pdfrwt>
<pdfrwt beam="2">  1       -1 0.14653933E+00 0.71828179E+03</pdfrwt>
<totfact> 0.33734262E+01</totfact>
</mgrwt>
</event>
<event>
 4    1  0.2514307E-008  0.6868546E+03  0.7818608E-02  0.1005685E+00
         -1   -1    0    0    0  501 -0.00000000000E+00  0.00000000000E+00  0.71209192328E+03  0.71209192330E+03  0.50400000000E-02 0.  1.
          1   -1    0    0  501    0  0.00000000000E+00 -0.00000000000E+00 -0.67270247359E+03  0.67270247361E+03  0.50400000000E-02 0. -1.
    8880023    1    1    2    0    0 -0.87088625387E+02 -0.17428321049E+03  0.50830270143E+03  0.85448283112E+03  0.65864270000E+03 0.  0.
    8880022    1    1    2    0    0  0.87088625387E+02  0.17428321049E+03 -0.46891325174E+03  0.53031156578E+03  0.15294330000E+03 0.  0.
<mgrwt>
<rscale>  0 0.53226275E+03</rscale>
<asrwt>0</asrwt>
<pdfrwt beam="1">  1        1 0.10349269E+00 0.68685462E+03</pdfrwt>
<pdfrwt beam="2">  1       -1 0.10955260E+00 0.68685462E+03</pdfrwt>
<totfact> 0.23042378E+01</totfact>
</mgrwt>
</event>
<event>
 4    1  0.2514307E-008  0.8255708E+03  0.7818608E-02  0.9658013E-01
          1   -1    0    0  501    0  0.00000000000E+00  0.00000000000E+00  0.16489741401E+04  0.16489741401E+04  0.50400000000E-02 0. -1.
         -1   -1    0    0    0  501 -0.00000000000E+00 -0.00000000000E+00 -0.19789546873E+04  0.19789546873E+04  0.50400000000E-02 0.  1.
    8880023    1    1    2    0    0 -0.32109493985E+03 -0.38033527400E+03 -0.18474938138E+04  0.20235613357E+04  0.65864270000E+03 0.  1.
    8880022    1    1    2    0    0  0.32109493985E+03  0.38033527400E+03  0.15175132667E+04  0.16043674917E+04  0.15294330000E+03 0.  0.
<mgrwt>
<rscale>  0 0.73572690E+03</rscale>
<asrwt>0</asrwt>
<pdfrwt beam="1">  1        1 0.25368833E+00 0.82557076E+03</pdfrwt>
<pdfrwt beam="2">  1       -1 0.30445457E+00 0.82557076E+03</pdfrwt>
<totfact> 0.16869572E-01</totfact>
</mgrwt>
</event>
<event>
 4    1  0.2514307E-008  0.8612722E+03  0.7818608E-02  0.9591304E-01
          1   -1    0    0  501    0  0.00000000000E+00  0.00000000000E+00  0.99088993543E+03  0.99088993545E+03  0.50400000000E-02 0. -1.
         -1   -1    0    0    0  501 -0.00000000000E+00 -0.00000000000E+00 -0.67423161497E+03  0.67423161499E+03  0.50400000000E-02 0.  1.
    8880023    1    1    2    0    0 -0.45944974630E+03  0.31126439775E+03 -0.20824157871E+03  0.88608936121E+03  0.65864270000E+03 0.  1.
    8880022    1    1    2    0    0  0.45944974630E+03 -0.31126439775E+03  0.52489989917E+03  0.77903218922E+03  0.15294330000E+03 0.  0.
<mgrwt>
<rscale>  0 0.77874393E+03</rscale>
<asrwt>0</asrwt>
<pdfrwt beam="1">  1        1 0.15244460E+00 0.86127220E+03</pdfrwt>
<pdfrwt beam="2">  1       -1 0.10372794E+00 0.86127220E+03</pdfrwt>
<totfact> 0.13703321E+01</totfact>
</mgrwt>
</event>
<event>
 4    1  0.2514307E-008  0.1759967E+04  0.7818608E-02  0.8745010E-01
          1   -1    0    0  501    0  0.00000000000E+00  0.00000000000E+00  0.27963577782E+04  0.27963577782E+04  0.50400000000E-02 0. -1.
         -1   -1    0    0    0  501 -0.00000000000E+00 -0.00000000000E+00 -0.12167061177E+04  0.12167061177E+04  0.50400000000E-02 0.  1.
    8880023    1    1    2    0    0 -0.56438512412E+03 -0.15313861234E+04  0.34379325687E+02  0.17603028635E+04  0.65864270000E+03 0.  0.
    8880022    1    1    2    0    0  0.56438512412E+03  0.15313861234E+04  0.15452723348E+04  0.22527610323E+04  0.15294330000E+03 0.  0.
<mgrwt>
<rscale>  0 0.17289730E+04</rscale>
<asrwt>0</asrwt>
<pdfrwt beam="1">  1        1 0.43020889E+00 0.17599671E+04</pdfrwt>
<pdfrwt beam="2">  1       -1 0.18718556E+00 0.17599671E+04</pdfrwt>
<totfact> 0.14253914E-01</totfact>
</mgrwt>
</event>
<event>
 4    1  0.2514307E-008  0.8904035E+03  0.7818608E-02  0.9541616E-01
          1   -1    0    0  501    0  0.00000000000E+00  0.00000000000E+00  0.30009371205E+04  0.30009371205E+04  0.50400000000E-02 0. -1.
         -1   -1    0    0    0  501 -0.00000000000E+00 -0.00000000000E+00 -0.76154532425E+03  0.76154532427E+03  0.50400000000E-02 0.  1.
    8880023    1    1    2    0    0 -0.57415283763E+03  0.17133815476E+03 -0.45368270262E+03  0.99932299341E+03  0.65864270000E+03 0.  1.
    8880022    1    1    2    0    0  0.57415283763E+03 -0.17133815476E+03  0.26930744989E+04  0.27631594514E+04  0.15294330000E+03 0.  0.
<mgrwt>
<rscale>  0 0.81283964E+03</rscale>
<asrwt>0</asrwt>
<pdfrwt beam="1">  1        1 0.46168264E+00 0.89040353E+03</pdfrwt>
<pdfrwt beam="2">  1       -1 0.11716082E+00 0.89040353E+03</pdfrwt>
<totfact> 0.41111947E-01</totfact>
</mgrwt>
</event>
<event>
 4    1  0.2514307E-008  0.1459887E+04  0.7818608E-02  0.8938493E-01
         -1   -1    0    0    0  501 -0.00000000000E+00  0.00000000000E+00  0.96083148694E+03  0.96083148695E+03  0.50400000000E-02 0.  1.
          1   -1    0    0  501    0  0.00000000000E+00 -0.00000000000E+00 -0.21314644260E+04  0.21314644260E+04  0.50400000000E-02 0. -1.
    8880023    1    1    2    0    0 -0.11460365287E+04 -0.61972547377E+03 -0.99975571314E+03  0.17694013339E+04  0.65864270000E+03 0.  1.
    8880022    1    1    2    0    0  0.11460365287E+04  0.61972547377E+03 -0.17087722592E+03  0.13228945791E+04  0.15294330000E+03 0.  0.
<mgrwt>
<rscale>  0 0.14213705E+04</rscale>
<asrwt>0</asrwt>
<pdfrwt beam="1">  1        1 0.32791760E+00 0.14598868E+04</pdfrwt>
<pdfrwt beam="2">  1       -1 0.14782023E+00 0.14598868E+04</pdfrwt>
<totfact> 0.83988184E-01</totfact>
</mgrwt>
</event>
<event>
 4    1  0.2514307E-008  0.7271016E+03  0.7818608E-02  0.9899250E-01
          1   -1    0    0  501    0  0.00000000000E+00  0.00000000000E+00  0.70009477590E+03  0.70009477592E+03  0.50400000000E-02 0. -1.
         -1   -1    0    0    0  501 -0.00000000000E+00 -0.00000000000E+00 -0.49675035808E+03  0.49675035811E+03  0.50400000000E-02 0.  1.
    8880023    1    1    2    0    0  0.13613746762E+02  0.30770305817E+03 -0.10539430604E+03  0.73470039616E+03  0.65864270000E+03 0.  1.
    8880022    1    1    2    0    0 -0.13613746762E+02 -0.30770305817E+03  0.30873872387E+03  0.46214473787E+03  0.15294330000E+03 0.  0.
<mgrwt>
<rscale>  0 0.60297625E+03</rscale>
<asrwt>0</asrwt>
<pdfrwt beam="1">  1        1 0.10770689E+00 0.72710158E+03</pdfrwt>
<pdfrwt beam="2">  1       -1 0.76423132E-01 0.72710158E+03</pdfrwt>
<totfact> 0.47971669E+01</totfact>
</mgrwt>
</event>
<event>
 4    1  0.2514307E-008  0.1252960E+04  0.7818608E-02  0.9107285E-01
         -1   -1    0    0    0  501 -0.00000000000E+00  0.00000000000E+00  0.49236273358E+03  0.49236273361E+03  0.50400000000E-02 0.  1.
          1   -1    0    0  501    0  0.00000000000E+00 -0.00000000000E+00 -0.39115948581E+04  0.39115948581E+04  0.50400000000E-02 0. -1.
    8880023    1    1    2    0    0 -0.27193952215E+03 -0.10306052555E+04 -0.60625050473E+03  0.13919224753E+04  0.65864270000E+03 0.  0.
    8880022    1    1    2    0    0  0.27193952215E+03  0.10306052555E+04 -0.28129816198E+04  0.30120351164E+04  0.15294330000E+03 0.  0.
<mgrwt>
<rscale>  0 0.12063859E+04</rscale>
<asrwt>0</asrwt>
<pdfrwt beam="1">  1        1 0.60178380E+00 0.12529599E+04</pdfrwt>
<pdfrwt beam="2">  1       -1 0.75748115E-01 0.12529599E+04</pdfrwt>
<totfact> 0.20192945E-01</totfact>
</mgrwt>
</event>
<event>
 4    1  0.2514307E-008  0.7330710E+03  0.7818608E-02  0.9880611E-01
          1   -1    0    0  501    0  0.00000000000E+00  0.00000000000E+00  0.47495571502E+03  0.47495571504E+03  0.50400000000E-02 0. -1.
         -1   -1    0    0    0  501 -0.00000000000E+00 -0.00000000000E+00 -0.12923236891E+04  0.12923236891E+04  0.50400000000E-02 0.  1.
    8880023    1    1    2    0    0  0.15789452583E+03 -0.28045004953E+03 -0.10934932673E+04  0.13164804000E+04  0.65864270000E+03 0.  1.
    8880022    1    1    2    0    0 -0.15789452583E+03  0.28045004953E+03  0.27612529326E+03  0.45079900417E+03  0.15294330000E+03 0.  0.
<mgrwt>
<rscale>  0 0.61210247E+03</rscale>
<asrwt>0</asrwt>
<pdfrwt beam="1">  1        1 0.73070110E-01 0.73307102E+03</pdfrwt>
<pdfrwt beam="2">  1       -1 0.19881903E+00 0.73307102E+03</pdfrwt>
<totfact> 0.75553166E+00</totfact>
</mgrwt>
</event>
<event>
 4    1  0.2514307E-008  0.7663881E+03  0.7818608E-02  0.9788841E-01
          1   -1    0    0  501    0  0.00000000000E+00  0.00000000000E+00  0.12142452538E+04  0.12142452538E+04  0.50400000000E-02 0. -1.
         -1   -1    0    0    0  501 -0.00000000000E+00 -0.00000000000E+00 -0.10418215911E+04  0.10418215911E+04  0.50400000000E-02 0.  1.
    8880023    1    1    2    0    0 -0.14462052198E+03 -0.36417775262E+03 -0.85360277484E+03  0.11471653910E+04  0.65864270000E+03 0.  1.
    8880022    1    1    2    0    0  0.14462052198E+03  0.36417775262E+03  0.10260264375E+04  0.11089014539E+04  0.15294330000E+03 0.  0.
<mgrwt>
<rscale>  0 0.65964826E+03</rscale>
<asrwt>0</asrwt>
<pdfrwt beam="1">  1        1 0.18680696E+00 0.76638811E+03</pdfrwt>
<pdfrwt beam="2">  1       -1 0.16028024E+00 0.76638811E+03</pdfrwt>
<totfact> 0.31504779E+00</totfact>
</mgrwt>
</event>
<event>
 4    1  0.2514307E-008  0.1189995E+04  0.7818608E-02  0.9166909E-01
         -1   -1    0    0    0  501 -0.00000000000E+00  0.00000000000E+00  0.11005176131E+04  0.11005176131E+04  0.50400000000E-02 0.  1.
          1   -1    0    0  501    0  0.00000000000E+00 -0.00000000000E+00 -0.19926642016E+04  0.19926642016E+04  0.50400000000E-02 0. -1.
    8880023    1    1    2    0    0  0.53294527732E+03  0.83561235401E+03 -0.15044553498E+04  0.19181957097E+04  0.65864270000E+03 0.  0.
    8880022    1    1    2    0    0 -0.53294527732E+03 -0.83561235401E+03  0.61230876135E+03  0.11749861050E+04  0.15294330000E+03 0.  0.
<mgrwt>
<rscale>  0 0.11401603E+04</rscale>
<asrwt>0</asrwt>
<pdfrwt beam="1">  1        1 0.30656372E+00 0.11899953E+04</pdfrwt>
<pdfrwt beam="2">  1       -1 0.16931040E+00 0.11899953E+04</pdfrwt>
<totfact> 0.73801321E-01</totfact>
</mgrwt>
</event>
<event>
 4    1  0.2514307E-008  0.1105833E+04  0.7818608E-02  0.9254589E-01
         -1   -1    0    0    0  501 -0.00000000000E+00  0.00000000000E+00  0.21157036699E+04  0.21157036699E+04  0.50400000000E-02 0.  1.
          1   -1    0    0  501    0  0.00000000000E+00 -0.00000000000E+00 -0.51770061039E+03  0.51770061041E+03  0.50400000000E-02 0. -1.
    8880023    1    1    2    0    0 -0.86306932839E+03  0.21016176892E+03  0.12454845893E+04  0.16655625786E+04  0.65864270000E+03 0.  1.
    8880022    1    1    2    0    0  0.86306932839E+03 -0.21016176892E+03  0.35251847019E+03  0.96784170171E+03  0.15294330000E+03 0. -1.
<mgrwt>
<rscale>  0 0.10507313E+04</rscale>
<asrwt>0</asrwt>
<pdfrwt beam="1">  1        1 0.79646249E-01 0.11058331E+04</pdfrwt>
<pdfrwt beam="2">  1       -1 0.32549287E+00 0.11058331E+04</pdfrwt>
<totfact> 0.95509103E-01</totfact>
</mgrwt>
</event>
<event>
 4    1  0.2514307E-008  0.1177075E+04  0.7818608E-02  0.9179735E-01
          1   -1    0    0  501    0  0.00000000000E+00  0.00000000000E+00  0.19209388326E+04  0.19209388326E+04  0.50400000000E-02 0. -1.
         -1   -1    0    0    0  501 -0.00000000000E+00 -0.00000000000E+00 -0.61303832649E+03  0.61303832651E+03  0.50400000000E-02 0.  1.
    8880023    1    1    2    0    0  0.63286488533E+03  0.74241393968E+03  0.61861407052E+03  0.13297330542E+04  0.65864270000E+03 0. -1.
    8880022    1    1    2    0    0 -0.63286488533E+03 -0.74241393968E+03  0.68928643557E+03  0.12042441049E+04  0.15294330000E+03 0.  1.
<mgrwt>
<rscale>  0 0.11265065E+04</rscale>
<asrwt>0</asrwt>
<pdfrwt beam="1">  1        1 0.29552905E+00 0.11770755E+04</pdfrwt>
<pdfrwt beam="2">  1       -1 0.94313589E-01 0.11770755E+04</pdfrwt>
<totfact> 0.36285078E+00</totfact>
</mgrwt>
</event>
<event>
 4    1  0.2514307E-008  0.6589425E+03  0.7818608E-02  0.1025267E+00
          1   -1    0    0  501    0  0.00000000000E+00  0.00000000000E+00  0.10824342232E+04  0.10824342232E+04  0.50400000000E-02 0. -1.
         -1   -1    0    0    0  501 -0.00000000000E+00 -0.00000000000E+00 -0.74510553347E+03  0.74510553349E+03  0.50400000000E-02 0.  1.
    8880023    1    1    2    0    0 -0.37937663480E+01  0.19510074090E+02 -0.59180941761E+03  0.88568822319E+03  0.65864270000E+03 0.  1.
    8880022    1    1    2    0    0  0.37937663480E+01 -0.19510074090E+02  0.92913810733E+03  0.94185153350E+03  0.15294330000E+03 0.  0.
<mgrwt>
<rscale>  0 0.45832906E+03</rscale>
<asrwt>0</asrwt>
<pdfrwt beam="1">  1        1 0.16652834E+00 0.65894252E+03</pdfrwt>
<pdfrwt beam="2">  1       -1 0.11463162E+00 0.65894252E+03</pdfrwt>
<totfact> 0.94775214E+00</totfact>
</mgrwt>
</event>
<event>
 4    1  0.2514307E-008  0.7249210E+03  0.7818608E-02  0.9906274E-01
          1   -1    0    0  501    0  0.00000000000E+00  0.00000000000E+00  0.25157796694E+04  0.25157796694E+04  0.50400000000E-02 0. -1.
         -1   -1    0    0    0  501 -0.00000000000E+00 -0.00000000000E+00 -0.13688563889E+03  0.13688563898E+03  0.50400000000E-02 0.  1.
    8880023    1    1    2    0    0 -0.27843288572E+03  0.11906041129E+03  0.10155057151E+04  0.12477028160E+04  0.65864270000E+03 0.  1.
    8880022    1    1    2    0    0  0.27843288572E+03 -0.11906041129E+03  0.13633883154E+04  0.14049624924E+04  0.15294330000E+03 0.  0.
<mgrwt>
<rscale>  0 0.59958203E+03</rscale>
<asrwt>0</asrwt>
<pdfrwt beam="1">  1        1 0.38704299E+00 0.72492100E+03</pdfrwt>
<pdfrwt beam="2">  1       -1 0.21059331E-01 0.72492100E+03</pdfrwt>
<totfact> 0.26006558E+01</totfact>
</mgrwt>
</event>
<event>
 4    1  0.2514307E-008  0.1103528E+04  0.7818608E-02  0.9257139E-01
         -1   -1    0    0    0  501 -0.00000000000E+00  0.00000000000E+00  0.11094070825E+04  0.11094070825E+04  0.50400000000E-02 0.  1.
          1   -1    0    0  501    0  0.00000000000E+00 -0.00000000000E+00 -0.22875519657E+04  0.22875519657E+04  0.50400000000E-02 0. -1.
    8880023    1    1    2    0    0  0.81336627199E+03  0.34985522253E+03  0.70564542752E+03  0.13098507720E+04  0.65864270000E+03 0.  1.
    8880022    1    1    2    0    0 -0.81336627199E+03 -0.34985522253E+03 -0.18837903107E+04  0.20871082763E+04  0.15294330000E+03 0.  0.
<mgrwt>
<rscale>  0 0.10482636E+04</rscale>
<asrwt>0</asrwt>
<pdfrwt beam="1">  1        1 0.35193107E+00 0.11035278E+04</pdfrwt>
<pdfrwt beam="2">  1       -1 0.17067801E+00 0.11035278E+04</pdfrwt>
<totfact> 0.46099047E-01</totfact>
</mgrwt>
</event>
<event>
 4    1  0.2514307E-008  0.1024729E+04  0.7818608E-02  0.9349896E-01
         -1   -1    0    0    0  501 -0.00000000000E+00  0.00000000000E+00  0.16996698273E+04  0.16996698273E+04  0.50400000000E-02 0.  1.
          1   -1    0    0  501    0  0.00000000000E+00 -0.00000000000E+00 -0.55630239867E+03  0.55630239870E+03  0.50400000000E-02 0. -1.
    8880023    1    1    2    0    0 -0.46273620246E+03  0.63414063697E+03  0.10215986953E+04  0.14469738218E+04  0.65864270000E+03 0.  0.
    8880022    1    1    2    0    0  0.46273620246E+03 -0.63414063697E+03  0.12176873333E+03  0.80899840418E+03  0.15294330000E+03 0.  0.
<mgrwt>
<rscale>  0 0.96316260E+03</rscale>
<asrwt>0</asrwt>
<pdfrwt beam="1">  1        1 0.85584986E-01 0.10247289E+04</pdfrwt>
<pdfrwt beam="2">  1       -1 0.26148766E+00 0.10247289E+04</pdfrwt>
<totfact> 0.22544586E+00</totfact>
</mgrwt>
</event>
<event>
 4    1  0.2514307E-008  0.1691696E+04  0.7818608E-02  0.8784937E-01
          1   -1    0    0  501    0  0.00000000000E+00  0.00000000000E+00  0.26408466345E+04  0.26408466345E+04  0.50400000000E-02 0. -1.
         -1   -1    0    0    0  501 -0.00000000000E+00 -0.00000000000E+00 -0.12013811792E+04  0.12013811792E+04  0.50400000000E-02 0.  1.
    8880023    1    1    2    0    0 -0.12393105359E+04  0.94452858636E+03 -0.34264087609E+02  0.16920428744E+04  0.65864270000E+03 0.  0.
    8880022    1    1    2    0    0  0.12393105359E+04 -0.94452858636E+03  0.14737295428E+04  0.21501849393E+04  0.15294330000E+03 0.  0.
<mgrwt>
<rscale>  0 0.16592769E+04</rscale>
<asrwt>0</asrwt>
<pdfrwt beam="1">  1        1 0.40628409E+00 0.16916959E+04</pdfrwt>
<pdfrwt beam="2">  1       -1 0.18482788E+00 0.16916959E+04</pdfrwt>
<totfact> 0.19233997E-01</totfact>
</mgrwt>
</event>
<event>
 4    1  0.2514307E-008  0.7684221E+03  0.7818608E-02  0.9783772E-01
          1   -1    0    0  501    0  0.00000000000E+00  0.00000000000E+00  0.65064000001E+03  0.65064000002E+03  0.50400000000E-02 0. -1.
         -1   -1    0    0    0  501 -0.00000000000E+00 -0.00000000000E+00 -0.12868966259E+04  0.12868966259E+04  0.50400000000E-02 0.  1.
    8880023    1    1    2    0    0  0.38599278004E+03  0.87589238530E+02 -0.10787595396E+04  0.13244601359E+04  0.65864270000E+03 0.  1.
    8880022    1    1    2    0    0 -0.38599278004E+03 -0.87589238530E+02  0.44250291375E+03  0.61307649004E+03  0.15294330000E+03 0.  0.
<mgrwt>
<rscale>  0 0.66240746E+03</rscale>
<asrwt>0</asrwt>
<pdfrwt beam="1">  1        1 0.10009846E+00 0.76842209E+03</pdfrwt>
<pdfrwt beam="2">  1       -1 0.19798410E+00 0.76842209E+03</pdfrwt>
<totfact> 0.48849411E+00</totfact>
</mgrwt>
</event>
<event>
 4    1  0.2514307E-008  0.9368618E+03  0.7818608E-02  0.9469275E-01
         -1   -1    0    0    0  501 -0.00000000000E+00  0.00000000000E+00  0.10512478314E+04  0.10512478314E+04  0.50400000000E-02 0.  1.
          1   -1    0    0  501    0  0.00000000000E+00 -0.00000000000E+00 -0.14265856156E+04  0.14265856156E+04  0.50400000000E-02 0. -1.
    8880023    1    1    2    0    0 -0.43228723375E+02 -0.66485417570E+03  0.72350723426E+03  0.11837114183E+04  0.65864270000E+03 0.  0.
    8880022    1    1    2    0    0  0.43228723375E+02  0.66485417570E+03 -0.10988450185E+04  0.12941220287E+04  0.15294330000E+03 0.  0.
<mgrwt>
<rscale>  0 0.86587484E+03</rscale>
<asrwt>0</asrwt>
<pdfrwt beam="1">  1        1 0.21947471E+00 0.93686178E+03</pdfrwt>
<pdfrwt beam="2">  1       -1 0.16173043E+00 0.93686178E+03</pdfrwt>
<totfact> 0.21165726E+00</totfact>
</mgrwt>
</event>
<event>
 4    1  0.2514307E-008  0.1073627E+04  0.7818608E-02  0.9291003E-01
         -1   -1    0    0    0  501 -0.00000000000E+00  0.00000000000E+00  0.38197565116E+03  0.38197565120E+03  0.50400000000E-02 0.  1.
          1   -1    0    0  501    0  0.00000000000E+00 -0.00000000000E+00 -0.26737890068E+04  0.26737890068E+04  0.50400000000E-02 0. -1.
    8880023    1    1    2    0    0  0.80386844007E+03  0.26955729258E+03 -0.82242510595E+03  0.13524270273E+04  0.65864270000E+03 0. -1.
    8880022    1    1    2    0    0 -0.80386844007E+03 -0.26955729258E+03 -0.14693882497E+04  0.17033376307E+04  0.15294330000E+03 0.  0.
<mgrwt>
<rscale>  0 0.10161539E+04</rscale>
<asrwt>0</asrwt>
<pdfrwt beam="1">  1        1 0.41135214E+00 0.10736274E+04</pdfrwt>
<pdfrwt beam="2">  1       -1 0.58765486E-01 0.10736274E+04</pdfrwt>
<totfact> 0.30399789E+00</totfact>
</mgrwt>
</event>
<event>
 4    1  0.2514307E-008  0.7234892E+03  0.7818608E-02  0.9910952E-01
         -1   -1    0    0    0  501 -0.00000000000E+00  0.00000000000E+00  0.18687767322E+03  0.18687767329E+03  0.50400000000E-02 0.  1.
          1   -1    0    0  501    0  0.00000000000E+00 -0.00000000000E+00 -0.19669360863E+04  0.19669360863E+04  0.50400000000E-02 0. -1.
    8880023    1    1    2    0    0  0.29937480096E+03 -0.10817378953E+01 -0.64242247468E+03  0.96754497769E+03  0.65864270000E+03 0.  1.
    8880022    1    1    2    0    0 -0.29937480096E+03  0.10817378953E+01 -0.11376359384E+04  0.11862687819E+04  0.15294330000E+03 0.  1.
<mgrwt>
<rscale>  0 0.59733443E+03</rscale>
<asrwt>0</asrwt>
<pdfrwt beam="1">  1        1 0.30260554E+00 0.72348922E+03</pdfrwt>
<pdfrwt beam="2">  1       -1 0.28750413E-01 0.72348922E+03</pdfrwt>
<totfact> 0.35848389E+01</totfact>
</mgrwt>
</event>
<event>
 4    1  0.2514307E-008  0.9411926E+03  0.7818608E-02  0.9462901E-01
         -1   -1    0    0    0  501 -0.00000000000E+00  0.00000000000E+00  0.29114963097E+03  0.29114963102E+03  0.50400000000E-02 0.  1.
          1   -1    0    0  501    0  0.00000000000E+00 -0.00000000000E+00 -0.36442335880E+04  0.36442335880E+04  0.50400000000E-02 0. -1.
    8880023    1    1    2    0    0  0.49591418736E+03 -0.45398503525E+03 -0.64523732524E+03  0.11411286981E+04  0.65864270000E+03 0.  1.
    8880022    1    1    2    0    0 -0.49591418736E+03  0.45398503525E+03 -0.27078466318E+04  0.27942545210E+04  0.15294330000E+03 0.  0.
<mgrwt>
<rscale>  0 0.87075128E+03</rscale>
<asrwt>0</asrwt>
<pdfrwt beam="1">  1        1 0.56065129E+00 0.94119259E+03</pdfrwt>
<pdfrwt beam="2">  1       -1 0.44792253E-01 0.94119259E+03</pdfrwt>
<totfact> 0.99729841E-01</totfact>
</mgrwt>
</event>
<event>
 4    1  0.2514307E-008  0.1046401E+04  0.7818608E-02  0.9323221E-01
         -1   -1    0    0    0  501 -0.00000000000E+00  0.00000000000E+00  0.10478737117E+04  0.10478737117E+04  0.50400000000E-02 0.  1.
          1   -1    0    0  501    0  0.00000000000E+00 -0.00000000000E+00 -0.10837442523E+04  0.10837442523E+04  0.50400000000E-02 0. -1.
    8880023    1    1    2    0    0  0.21297070435E+03  0.78472154141E+03  0.48564168590E+03  0.11536041227E+04  0.65864270000E+03 0.  0.
    8880022    1    1    2    0    0 -0.21297070435E+03 -0.78472154141E+03 -0.52151222648E+03  0.97801384133E+03  0.15294330000E+03 0.  0.
<mgrwt>
<rscale>  0 0.98672944E+03</rscale>
<asrwt>0</asrwt>
<pdfrwt beam="1">  1        1 0.16672989E+00 0.10464008E+04</pdfrwt>
<pdfrwt beam="2">  1       -1 0.16121134E+00 0.10464008E+04</pdfrwt>
<totfact> 0.37228562E+00</totfact>
</mgrwt>
</event>
<event>
 4    1  0.2514307E-008  0.8731610E+03  0.7818608E-02  0.9570568E-01
         -1   -1    0    0    0  501 -0.00000000000E+00  0.00000000000E+00  0.43264979493E+03  0.43264979496E+03  0.50400000000E-02 0.  1.
          1   -1    0    0  501    0  0.00000000000E+00 -0.00000000000E+00 -0.22268878601E+04  0.22268878601E+04  0.50400000000E-02 0. -1.
    8880023    1    1    2    0    0  0.11747948261E+03 -0.56106910972E+03 -0.11762431766E+03  0.88104804698E+03  0.65864270000E+03 0.  1.
    8880022    1    1    2    0    0 -0.11747948261E+03  0.56106910972E+03 -0.16766137475E+04  0.17784896081E+04  0.15294330000E+03 0.  0.
<mgrwt>
<rscale>  0 0.79275191E+03</rscale>
<asrwt>0</asrwt>
<pdfrwt beam="1">  1        1 0.34259812E+00 0.87316103E+03</pdfrwt>
<pdfrwt beam="2">  1       -1 0.66561508E-01 0.87316103E+03</pdfrwt>
<totfact> 0.49324668E+00</totfact>
</mgrwt>
</event>
<event>
 4    1  0.2514307E-008  0.6800902E+03  0.7818608E-02  0.1009273E+00
          1   -1    0    0  501    0  0.00000000000E+00  0.00000000000E+00  0.88895803065E+03  0.88895803067E+03  0.50400000000E-02 0. -1.
         -1   -1    0    0    0  501 -0.00000000000E+00 -0.00000000000E+00 -0.97088762474E+03  0.97088762475E+03  0.50400000000E-02 0.  1.
    8880023    1    1    2    0    0 -0.16865806592E+03  0.16336191671E+02 -0.83270478220E+03  0.10751371424E+04  0.65864270000E+03 0.  1.
    8880022    1    1    2    0    0  0.16865806592E+03 -0.16336191671E+02  0.75077518811E+03  0.78470851305E+03  0.15294330000E+03 0.  0.
<mgrwt>
<rscale>  0 0.51764714E+03</rscale>
<asrwt>0</asrwt>
<pdfrwt beam="1">  1        1 0.13676277E+00 0.68009016E+03</pdfrwt>
<pdfrwt beam="2">  1       -1 0.14936733E+00 0.68009016E+03</pdfrwt>
<totfact> 0.68531959E+00</totfact>
</mgrwt>
</event>
<event>
 4    1  0.2514307E-008  0.7055012E+03  0.7818608E-02  0.9975102E-01
         -1   -1    0    0    0  501 -0.00000000000E+00  0.00000000000E+00  0.22621956445E+03  0.22621956451E+03  0.50400000000E-02 0.  1.
          1   -1    0    0  501    0  0.00000000000E+00 -0.00000000000E+00 -0.27186996371E+04  0.27186996371E+04  0.50400000000E-02 0. -1.
    8880023    1    1    2    0    0  0.10124642619E+03  0.23166990013E+03 -0.35996031771E+03  0.79202488473E+03  0.65864270000E+03 0.  1.
    8880022    1    1    2    0    0 -0.10124642619E+03 -0.23166990013E+03 -0.21325197549E+04  0.21528943169E+04  0.15294330000E+03 0.  0.
<mgrwt>
<rscale>  0 0.56755567E+03</rscale>
<asrwt>0</asrwt>
<pdfrwt beam="1">  1        1 0.41826146E+00 0.70550123E+03</pdfrwt>
<pdfrwt beam="2">  1       -1 0.34803012E-01 0.70550123E+03</pdfrwt>
<totfact> 0.79641030E+00</totfact>
</mgrwt>
</event>
<event>
 4    1  0.2514307E-008  0.6805898E+03  0.7818608E-02  0.1008992E+00
         -1   -1    0    0    0  501 -0.00000000000E+00  0.00000000000E+00  0.11310384743E+04  0.11310384743E+04  0.50400000000E-02 0.  1.
          1   -1    0    0  501    0  0.00000000000E+00 -0.00000000000E+00 -0.12251198404E+04  0.12251198404E+04  0.50400000000E-02 0. -1.
    8880023    1    1    2    0    0 -0.15616689814E+03 -0.70740576861E+02  0.10158132560E+04  0.12227342747E+04  0.65864270000E+03 0.  1.
    8880022    1    1    2    0    0  0.15616689814E+03  0.70740576861E+02 -0.11098946221E+04  0.11334240400E+04  0.15294330000E+03 0.  0.
<mgrwt>
<rscale>  0 0.51877241E+03</rscale>
<asrwt>0</asrwt>
<pdfrwt beam="1">  1        1 0.18847998E+00 0.68058984E+03</pdfrwt>
<pdfrwt beam="2">  1       -1 0.17400592E+00 0.68058984E+03</pdfrwt>
<totfact> 0.24902607E+00</totfact>
</mgrwt>
</event>
<event>
 4    1  0.2514307E-008  0.8740845E+03  0.7818608E-02  0.9568985E-01
          1   -1    0    0  501    0  0.00000000000E+00  0.00000000000E+00  0.14484784603E+04  0.14484784603E+04  0.50400000000E-02 0. -1.
         -1   -1    0    0    0  501 -0.00000000000E+00 -0.00000000000E+00 -0.47638340364E+03  0.47638340366E+03  0.50400000000E-02 0.  1.
    8880023    1    1    2    0    0 -0.25879276797E+03 -0.51306901601E+03  0.11490117573E+03  0.88160421867E+03  0.65864270000E+03 0.  1.
    8880022    1    1    2    0    0  0.25879276797E+03  0.51306901601E+03  0.85719388093E+03  0.10432576453E+04  0.15294330000E+03 0.  0.
<mgrwt>
<rscale>  0 0.79383436E+03</rscale>
<asrwt>0</asrwt>
<pdfrwt beam="1">  1        1 0.22284284E+00 0.87408450E+03</pdfrwt>
<pdfrwt beam="2">  1       -1 0.73289756E-01 0.87408450E+03</pdfrwt>
<totfact> 0.13590480E+01</totfact>
</mgrwt>
</event>
<event>
 4    1  0.2514307E-008  0.7901301E+03  0.7818608E-02  0.9732558E-01
         -1   -1    0    0    0  501 -0.00000000000E+00  0.00000000000E+00  0.53571134958E+03  0.53571134960E+03  0.50400000000E-02 0.  1.
          1   -1    0    0  501    0  0.00000000000E+00 -0.00000000000E+00 -0.13613108371E+04  0.13613108372E+04  0.50400000000E-02 0. -1.
    8880023    1    1    2    0    0 -0.33281306947E+03  0.28236639481E+03  0.16193944461E+03  0.80655434418E+03  0.65864270000E+03 0.  1.
    8880022    1    1    2    0    0  0.33281306947E+03 -0.28236639481E+03 -0.98753893218E+03  0.10904678426E+04  0.15294330000E+03 0.  0.
<mgrwt>
<rscale>  0 0.69110969E+03</rscale>
<asrwt>0</asrwt>
<pdfrwt beam="1">  1        1 0.20943243E+00 0.79013007E+03</pdfrwt>
<pdfrwt beam="2">  1       -1 0.82417131E-01 0.79013007E+03</pdfrwt>
<totfact> 0.12330648E+01</totfact>
</mgrwt>
</event>
<event>
 4    1  0.2514307E-008  0.9167067E+03  0.7818608E-02  0.9499727E-01
          1   -1    0    0  501    0  0.00000000000E+00  0.00000000000E+00  0.10411371709E+04  0.10411371709E+04  0.50400000000E-02 0. -1.
         -1   -1    0    0    0  501 -0.00000000000E+00 -0.00000000000E+00 -0.82765394346E+03  0.82765394347E+03  0.50400000000E-02 0.  1.
    8880023    1    1    2    0    0  0.62805667951E+03  0.10993557043E+03 -0.37241619210E+03  0.98946705288E+03  0.65864270000E+03 0.  0.
    8880022    1    1    2    0    0 -0.62805667951E+03 -0.10993557043E+03  0.58589941958E+03  0.87932406154E+03  0.15294330000E+03 0.  0.
<mgrwt>
<rscale>  0 0.84303940E+03</rscale>
<asrwt>0</asrwt>
<pdfrwt beam="1">  1        1 0.16017495E+00 0.91670673E+03</pdfrwt>
<pdfrwt beam="2">  1       -1 0.12733138E+00 0.91670673E+03</pdfrwt>
<totfact> 0.76024397E+00</totfact>
</mgrwt>
</event>
<event>
 4    1  0.2514307E-008  0.9406233E+03  0.7818608E-02  0.9463735E-01
          1   -1    0    0  501    0  0.00000000000E+00  0.00000000000E+00  0.21671326430E+04  0.21671326430E+04  0.50400000000E-02 0. -1.
         -1   -1    0    0    0  501 -0.00000000000E+00 -0.00000000000E+00 -0.91325487756E+03  0.91325487757E+03  0.50400000000E-02 0.  1.
    8880023    1    1    2    0    0 -0.10663663547E+03  0.66301629089E+03 -0.59117878431E+03  0.11109745881E+04  0.65864270000E+03 0.  1.
    8880022    1    1    2    0    0  0.10663663547E+03 -0.66301629089E+03  0.18450565498E+04  0.19694129326E+04  0.15294330000E+03 0.  0.
<mgrwt>
<rscale>  0 0.87011083E+03</rscale>
<asrwt>0</asrwt>
<pdfrwt beam="1">  1        1 0.33340502E+00 0.94062329E+03</pdfrwt>
<pdfrwt beam="2">  1       -1 0.14050075E+00 0.94062329E+03</pdfrwt>
<totfact> 0.97469624E-01</totfact>
</mgrwt>
</event>
<event>
 4    1  0.2514307E-008  0.1272428E+04  0.7818608E-02  0.9089743E-01
          1   -1    0    0  501    0  0.00000000000E+00  0.00000000000E+00  0.35991687784E+04  0.35991687784E+04  0.50400000000E-02 0. -1.
         -1   -1    0    0    0  501 -0.00000000000E+00 -0.00000000000E+00 -0.53266702062E+03  0.53266702064E+03  0.50400000000E-02 0.  1.
    8880023    1    1    2    0    0 -0.10331798137E+04 -0.34322511569E+03  0.55104076786E+03  0.13866218452E+04  0.65864270000E+03 0.  1.
    8880022    1    1    2    0    0  0.10331798137E+04  0.34322511569E+03  0.25154609899E+04  0.27452139538E+04  0.15294330000E+03 0.  0.
<mgrwt>
<rscale>  0 0.12267692E+04</rscale>
<asrwt>0</asrwt>
<pdfrwt beam="1">  1        1 0.55371826E+00 0.12724285E+04</pdfrwt>
<pdfrwt beam="2">  1       -1 0.81948774E-01 0.12724285E+04</pdfrwt>
<totfact> 0.30770736E-01</totfact>
</mgrwt>
</event>
<event>
 4    1  0.2514307E-008  0.1434782E+04  0.7818608E-02  0.8957117E-01
          1   -1    0    0  501    0  0.00000000000E+00  0.00000000000E+00  0.14713696572E+04  0.14713696572E+04  0.50400000000E-02 0. -1.
         -1   -1    0    0    0  501 -0.00000000000E+00 -0.00000000000E+00 -0.14066666551E+04  0.14066666551E+04  0.50400000000E-02 0.  1.
    8880023    1    1    2    0    0 -0.11808940690E+04  0.47987470009E+03 -0.43671833552E+03  0.14997745300E+04  0.65864270000E+03 0.  0.
    8880022    1    1    2    0    0  0.11808940690E+04 -0.47987470009E+03  0.50142133763E+03  0.13782617824E+04  0.15294330000E+03 0.  0.
<mgrwt>
<rscale>  0 0.13954530E+04</rscale>
<asrwt>0</asrwt>
<pdfrwt beam="1">  1        1 0.22636456E+00 0.14347825E+04</pdfrwt>
<pdfrwt beam="2">  1       -1 0.21641025E+00 0.14347825E+04</pdfrwt>
<totfact> 0.75973880E-01</totfact>
</mgrwt>
</event>
<event>
 4    1  0.2514307E-008  0.7586402E+03  0.7818608E-02  0.9808641E-01
          1   -1    0    0  501    0  0.00000000000E+00  0.00000000000E+00  0.13339623038E+04  0.13339623038E+04  0.50400000000E-02 0. -1.
         -1   -1    0    0    0  501 -0.00000000000E+00 -0.00000000000E+00 -0.46353026845E+03  0.46353026847E+03  0.50400000000E-02 0.  1.
    8880023    1    1    2    0    0 -0.56097772117E+02  0.37226047495E+03 -0.80969108045E+02  0.76294889997E+03  0.65864270000E+03 0.  1.
    8880022    1    1    2    0    0  0.56097772117E+02 -0.37226047495E+03  0.95140114339E+03  0.10345436723E+04  0.15294330000E+03 0.  0.
<mgrwt>
<rscale>  0 0.64900899E+03</rscale>
<asrwt>0</asrwt>
<pdfrwt beam="1">  1        1 0.20522497E+00 0.75864025E+03</pdfrwt>
<pdfrwt beam="2">  1       -1 0.71312350E-01 0.75864025E+03</pdfrwt>
<totfact> 0.17533938E+01</totfact>
</mgrwt>
</event>
<event>
 4    1  0.2514307E-008  0.8679436E+03  0.7818608E-02  0.9579587E-01
          1   -1    0    0  501    0  0.00000000000E+00  0.00000000000E+00  0.21641511737E+04  0.21641511737E+04  0.50400000000E-02 0. -1.
         -1   -1    0    0    0  501 -0.00000000000E+00 -0.00000000000E+00 -0.78382109473E+03  0.78382109475E+03  0.50400000000E-02 0.  1.
    8880023    1    1    2    0    0  0.37763354359E+03  0.42060520373E+03 -0.48404723464E+03  0.99379462782E+03  0.65864270000E+03 0.  1.
    8880022    1    1    2    0    0 -0.37763354359E+03 -0.42060520373E+03  0.18643773136E+04  0.19541776406E+04  0.15294330000E+03 0.  0.
<mgrwt>
<rscale>  0 0.78662136E+03</rscale>
<asrwt>0</asrwt>
<pdfrwt beam="1">  1        1 0.33294633E+00 0.86794357E+03</pdfrwt>
<pdfrwt beam="2">  1       -1 0.12058786E+00 0.86794357E+03</pdfrwt>
<totfact> 0.14595333E+00</totfact>
</mgrwt>
</event>
<event>
 4    1  0.2514307E-008  0.1070894E+04  0.7818608E-02  0.9294175E-01
          1   -1    0    0  501    0  0.00000000000E+00  0.00000000000E+00  0.43238500431E+04  0.43238500431E+04  0.50400000000E-02 0. -1.
         -1   -1    0    0    0  501 -0.00000000000E+00 -0.00000000000E+00 -0.43612893933E+03  0.43612893936E+03  0.50400000000E-02 0.  1.
    8880023    1    1    2    0    0  0.42495144321E+03  0.72967138475E+03  0.36061268994E+03  0.11299804322E+04  0.65864270000E+03 0.  0.
    8880022    1    1    2    0    0 -0.42495144321E+03 -0.72967138475E+03  0.35271084139E+04  0.36299985503E+04  0.15294330000E+03 0.  0.
<mgrwt>
<rscale>  0 0.10132085E+04</rscale>
<asrwt>0</asrwt>
<pdfrwt beam="1">  1        1 0.66520771E+00 0.10708941E+04</pdfrwt>
<pdfrwt beam="2">  1       -1 0.67096759E-01 0.10708941E+04</pdfrwt>
<totfact> 0.11413492E-01</totfact>
</mgrwt>
</event>
<event>
 4    1  0.2514307E-008  0.8491743E+03  0.7818608E-02  0.9613118E-01
          1   -1    0    0  501    0  0.00000000000E+00  0.00000000000E+00  0.82801520347E+03  0.82801520349E+03  0.50400000000E-02 0. -1.
         -1   -1    0    0    0  501 -0.00000000000E+00 -0.00000000000E+00 -0.14814557819E+04  0.14814557819E+04  0.50400000000E-02 0.  1.
    8880023    1    1    2    0    0  0.49887694587E+03 -0.19598105142E+03 -0.12383351757E+04  0.15015228914E+04  0.65864270000E+03 0. -1.
    8880022    1    1    2    0    0 -0.49887694587E+03  0.19598105142E+03  0.58489459730E+03  0.80794809400E+03  0.15294330000E+03 0.  0.
<mgrwt>
<rscale>  0 0.76433988E+03</rscale>
<asrwt>0</asrwt>
<pdfrwt beam="1">  1        1 0.12738695E+00 0.84917430E+03</pdfrwt>
<pdfrwt beam="2">  1       -1 0.22791627E+00 0.84917430E+03</pdfrwt>
<totfact> 0.20934230E+00</totfact>
</mgrwt>
</event>
<event>
 4    1  0.2514307E-008  0.1664945E+04  0.7818608E-02  0.8801170E-01
         -1   -1    0    0    0  501 -0.00000000000E+00  0.00000000000E+00  0.15141301423E+04  0.15141301423E+04  0.50400000000E-02 0.  1.
          1   -1    0    0  501    0  0.00000000000E+00 -0.00000000000E+00 -0.19870751073E+04  0.19870751073E+04  0.50400000000E-02 0. -1.
    8880023    1    1    2    0    0 -0.14904826870E+04  0.34160293411E+03  0.42898720676E+03  0.17193229582E+04  0.65864270000E+03 0.  0.
    8880022    1    1    2    0    0  0.14904826870E+04 -0.34160293411E+03 -0.90193217174E+03  0.17818822914E+04  0.15294330000E+03 0.  0.
<mgrwt>
<rscale>  0 0.16319288E+04</rscale>
<asrwt>0</asrwt>
<pdfrwt beam="1">  1        1 0.30570387E+00 0.16649449E+04</pdfrwt>
<pdfrwt beam="2">  1       -1 0.23294310E+00 0.16649449E+04</pdfrwt>
<totfact> 0.25435037E-01</totfact>
</mgrwt>
</event>
<event>
 4    1  0.2514307E-008  0.9484027E+03  0.7818608E-02  0.9452416E-01
          1   -1    0    0  501    0  0.00000000000E+00  0.00000000000E+00  0.21052112862E+04  0.21052112862E+04  0.50400000000E-02 0. -1.
         -1   -1    0    0    0  501 -0.00000000000E+00 -0.00000000000E+00 -0.45830446443E+03  0.45830446446E+03  0.50400000000E-02 0.  1.
    8880023    1    1    2    0    0  0.53578404649E+03  0.42260265139E+03  0.21870585983E+03  0.97329338065E+03  0.65864270000E+03 0.  0.
    8880022    1    1    2    0    0 -0.53578404649E+03 -0.42260265139E+03  0.14282009620E+04  0.15902223701E+04  0.15294330000E+03 0.  0.
<mgrwt>
<rscale>  0 0.87884780E+03</rscale>
<asrwt>0</asrwt>
<pdfrwt beam="1">  1        1 0.32387866E+00 0.94840274E+03</pdfrwt>
<pdfrwt beam="2">  1       -1 0.70508380E-01 0.94840274E+03</pdfrwt>
<totfact> 0.52397532E+00</totfact>
</mgrwt>
</event>
<event>
 4    1  0.2514307E-008  0.6721740E+03  0.7818608E-02  0.1014150E+00
         -1   -1    0    0    0  501 -0.00000000000E+00  0.00000000000E+00  0.12128867302E+04  0.12128867302E+04  0.50400000000E-02 0.  1.
          1   -1    0    0  501    0  0.00000000000E+00 -0.00000000000E+00 -0.43750195723E+03  0.43750195726E+03  0.50400000000E-02 0. -1.
    8880023    1    1    2    0    0  0.82246145653E+02 -0.10603425503E+03  0.10871113749E+04  0.12781349848E+04  0.65864270000E+03 0.  1.
    8880022    1    1    2    0    0 -0.82246145653E+02  0.10603425503E+03 -0.31172660198E+03  0.37225370261E+03  0.15294330000E+03 0.  0.
<mgrwt>
<rscale>  0 0.49858071E+03</rscale>
<asrwt>0</asrwt>
<pdfrwt beam="1">  1        1 0.67307996E-01 0.67217401E+03</pdfrwt>
<pdfrwt beam="2">  1       -1 0.18659795E+00 0.67217401E+03</pdfrwt>
<totfact> 0.10342921E+01</totfact>
</mgrwt>
</event>
<event>
 4    1  0.2514307E-008  0.8386935E+03  0.7818608E-02  0.9632649E-01
         -1   -1    0    0    0  501 -0.00000000000E+00  0.00000000000E+00  0.18705626168E+04  0.18705626168E+04  0.50400000000E-02 0.  1.
          1   -1    0    0  501    0  0.00000000000E+00 -0.00000000000E+00 -0.92628336427E+03  0.92628336429E+03  0.50400000000E-02 0. -1.
    8880023    1    1    2    0    0 -0.50874195898E+03  0.10381777329E+03  0.16833787138E+04  0.18807367204E+04  0.65864270000E+03 0.  1.
    8880022    1    1    2    0    0  0.50874195898E+03 -0.10381777329E+03 -0.73909946130E+03  0.91610926073E+03  0.15294330000E+03 0.  0.
<mgrwt>
<rscale>  0 0.75172449E+03</rscale>
<asrwt>0</asrwt>
<pdfrwt beam="1">  1        1 0.14250514E+00 0.83869346E+03</pdfrwt>
<pdfrwt beam="2">  1       -1 0.28777886E+00 0.83869346E+03</pdfrwt>
<totfact> 0.71384926E-01</totfact>
</mgrwt>
</event>
<event>
 4    1  0.2514307E-008  0.7125342E+03  0.7818608E-02  0.9948708E-01
         -1   -1    0    0    0  501 -0.00000000000E+00  0.00000000000E+00  0.53614582310E+03  0.53614582312E+03  0.50400000000E-02 0.  1.
          1   -1    0    0  501    0  0.00000000000E+00 -0.00000000000E+00 -0.14147697629E+04  0.14147697629E+04  0.50400000000E-02 0. -1.
    8880023    1    1    2    0    0 -0.53601512615E+02  0.26649886883E+03  0.26903041899E+03  0.76163136874E+03  0.65864270000E+03 0.  1.
    8880022    1    1    2    0    0  0.53601512615E+02 -0.26649886883E+03 -0.11476543588E+04  0.11892842173E+04  0.15294330000E+03 0.  0.
<mgrwt>
<rscale>  0 0.57957656E+03</rscale>
<asrwt>0</asrwt>
<pdfrwt beam="1">  1        1 0.21765688E+00 0.71253419E+03</pdfrwt>
<pdfrwt beam="2">  1       -1 0.82483974E-01 0.71253419E+03</pdfrwt>
<totfact> 0.11424144E+01</totfact>
</mgrwt>
</event>
<event>
 4    1  0.2514307E-008  0.1238820E+04  0.7818608E-02  0.9120280E-01
         -1   -1    0    0    0  501 -0.00000000000E+00  0.00000000000E+00  0.14555214823E+04  0.14555214823E+04  0.50400000000E-02 0.  1.
          1   -1    0    0  501    0  0.00000000000E+00 -0.00000000000E+00 -0.22386306351E+04  0.22386306351E+04  0.50400000000E-02 0. -1.
    8880023    1    1    2    0    0  0.50357823977E+03 -0.92047450331E+03  0.10184561992E+04  0.16037230405E+04  0.65864270000E+03 0.  0.
    8880022    1    1    2    0    0 -0.50357823977E+03  0.92047450331E+03 -0.18015653521E+04  0.20904290769E+04  0.15294330000E+03 0.  0.
<mgrwt>
<rscale>  0 0.11915555E+04</rscale>
<asrwt>0</asrwt>
<pdfrwt beam="1">  1        1 0.34440471E+00 0.12388198E+04</pdfrwt>
<pdfrwt beam="2">  1       -1 0.22392638E+00 0.12388198E+04</pdfrwt>
<totfact> 0.20766356E-01</totfact>
</mgrwt>
</event>
<event>
 4    1  0.2514307E-008  0.1099430E+04  0.7818608E-02  0.9261691E-01
         -1   -1    0    0    0  501 -0.00000000000E+00  0.00000000000E+00  0.87872916266E+03  0.87872916268E+03  0.50400000000E-02 0.  1.
          1   -1    0    0  501    0  0.00000000000E+00 -0.00000000000E+00 -0.26637192836E+04  0.26637192836E+04  0.50400000000E-02 0. -1.
    8880023    1    1    2    0    0  0.29467487773E+03 -0.82951977859E+03  0.40935857453E+03  0.11731670791E+04  0.65864270000E+03 0.  0.
    8880022    1    1    2    0    0 -0.29467487773E+03  0.82951977859E+03 -0.21943486954E+04  0.23692813672E+04  0.15294330000E+03 0.  0.
<mgrwt>
<rscale>  0 0.10438747E+04</rscale>
<asrwt>0</asrwt>
<pdfrwt beam="1">  1        1 0.40980296E+00 0.10994301E+04</pdfrwt>
<pdfrwt beam="2">  1       -1 0.13518910E+00 0.10994301E+04</pdfrwt>
<totfact> 0.47991869E-01</totfact>
</mgrwt>
</event>
<event>
 4    1  0.2514307E-008  0.1316875E+04  0.7818608E-02  0.9051123E-01
          1   -1    0    0  501    0  0.00000000000E+00  0.00000000000E+00  0.14904524769E+04  0.14904524769E+04  0.50400000000E-02 0. -1.
         -1   -1    0    0    0  501 -0.00000000000E+00 -0.00000000000E+00 -0.13530662939E+04  0.13530662939E+04  0.50400000000E-02 0.  1.
    8880023    1    1    2    0    0  0.11401232160E+04 -0.21619837714E+02 -0.63073830257E+03  0.14601333424E+04  0.65864270000E+03 0.  0.
    8880022    1    1    2    0    0 -0.11401232160E+04  0.21619837714E+02  0.76812448556E+03  0.13833854284E+04  0.15294330000E+03 0.  0.
<mgrwt>
<rscale>  0 0.12731619E+04</rscale>
<asrwt>0</asrwt>
<pdfrwt beam="1">  1        1 0.22930038E+00 0.13168745E+04</pdfrwt>
<pdfrwt beam="2">  1       -1 0.20816405E+00 0.13168745E+04</pdfrwt>
<totfact> 0.84909053E-01</totfact>
</mgrwt>
</event>
<event>
 4    1  0.2514307E-008  0.9983785E+03  0.7818608E-02  0.9383682E-01
          1   -1    0    0  501    0  0.00000000000E+00  0.00000000000E+00  0.17516301026E+04  0.17516301026E+04  0.50400000000E-02 0. -1.
         -1   -1    0    0    0  501 -0.00000000000E+00 -0.00000000000E+00 -0.64793874273E+03  0.64793874275E+03  0.50400000000E-02 0.  1.
    8880023    1    1    2    0    0  0.10812660822E+03 -0.74246757242E+03 -0.67073914046E+02  0.10006290900E+04  0.65864270000E+03 0.  1.
    8880022    1    1    2    0    0 -0.10812660822E+03  0.74246757242E+03  0.11707652739E+04  0.13989397553E+04  0.15294330000E+03 0.  0.
<mgrwt>
<rscale>  0 0.93430832E+03</rscale>
<asrwt>0</asrwt>
<pdfrwt beam="1">  1        1 0.26948155E+00 0.99837852E+03</pdfrwt>
<pdfrwt beam="2">  1       -1 0.99682885E-01 0.99837852E+03</pdfrwt>
<totfact> 0.42546219E+00</totfact>
</mgrwt>
</event>
<event>
 4    1  0.2514307E-008  0.1746279E+04  0.7818608E-02  0.8752849E-01
          1   -1    0    0  501    0  0.00000000000E+00  0.00000000000E+00  0.32896492584E+04  0.32896492584E+04  0.50400000000E-02 0. -1.
         -1   -1    0    0    0  501 -0.00000000000E+00 -0.00000000000E+00 -0.11188302303E+04  0.11188302303E+04  0.50400000000E-02 0.  1.
    8880023    1    1    2    0    0 -0.14168202612E+04 -0.77993722751E+03  0.63177192307E+02  0.17474218996E+04  0.65864270000E+03 0. -1.
    8880022    1    1    2    0    0  0.14168202612E+04  0.77993722751E+03  0.21076418358E+04  0.26610575891E+04  0.15294330000E+03 0.  0.
<mgrwt>
<rscale>  0 0.17150103E+04</rscale>
<asrwt>0</asrwt>
<pdfrwt beam="1">  1        1 0.50609986E+00 0.17462795E+04</pdfrwt>
<pdfrwt beam="2">  1       -1 0.17212773E+00 0.17462795E+04</pdfrwt>
<totfact> 0.79699323E-02</totfact>
</mgrwt>
</event>
<event>
 4    1  0.2514307E-008  0.7039868E+03  0.7818608E-02  0.9981048E-01
          1   -1    0    0  501    0  0.00000000000E+00  0.00000000000E+00  0.83885100416E+03  0.83885100417E+03  0.50400000000E-02 0. -1.
         -1   -1    0    0    0  501 -0.00000000000E+00 -0.00000000000E+00 -0.84626292348E+03  0.84626292350E+03  0.50400000000E-02 0.  1.
    8880023    1    1    2    0    0  0.28611910729E+02 -0.24691817154E+03 -0.66328549119E+03  0.96723579026E+03  0.65864270000E+03 0.  0.
    8880022    1    1    2    0    0 -0.28611910729E+02  0.24691817154E+03  0.65587357187E+03  0.71787813740E+03  0.15294330000E+03 0. -1.
<mgrwt>
<rscale>  0 0.56489129E+03</rscale>
<asrwt>0</asrwt>
<pdfrwt beam="1">  1        1 0.12905400E+00 0.70398681E+03</pdfrwt>
<pdfrwt beam="2">  1       -1 0.13019430E+00 0.70398681E+03</pdfrwt>
<totfact> 0.10729419E+01</totfact>
</mgrwt>
</event>
<event>
 4    1  0.2514307E-008  0.8831204E+03  0.7818608E-02  0.9553691E-01
         -1   -1    0    0    0  501 -0.00000000000E+00  0.00000000000E+00  0.18410462534E+04  0.18410462534E+04  0.50400000000E-02 0.  1.
          1   -1    0    0  501    0  0.00000000000E+00 -0.00000000000E+00 -0.75283225478E+03  0.75283225480E+03  0.50400000000E-02 0. -1.
    8880023    1    1    2    0    0 -0.58826837034E+03 -0.56286051693E+01  0.15812930324E+04  0.18111844791E+04  0.65864270000E+03 0.  1.
    8880022    1    1    2    0    0  0.58826837034E+03  0.56286051693E+01 -0.49307903374E+03  0.78269402915E+03  0.15294330000E+03 0. -1.
<mgrwt>
<rscale>  0 0.80438549E+03</rscale>
<asrwt>0</asrwt>
<pdfrwt beam="1">  1        1 0.11582035E+00 0.88312036E+03</pdfrwt>
<pdfrwt beam="2">  1       -1 0.28323788E+00 0.88312036E+03</pdfrwt>
<totfact> 0.10632456E+00</totfact>
</mgrwt>
</event>
<event>
 4    1  0.2514307E-008  0.6918088E+03  0.7818608E-02  0.1003304E+00
          1   -1    0    0  501    0  0.00000000000E+00  0.00000000000E+00  0.31999438770E+03  0.31999438774E+03  0.50400000000E-02 0. -1.
         -1   -1    0    0    0  501 -0.00000000000E+00 -0.00000000000E+00 -0.84416962066E+03  0.84416962068E+03  0.50400000000E-02 0.  1.
    8880023    1    1    2    0    0 -0.19425087766E+03 -0.83998491195E+02 -0.57328214283E+03  0.89847190916E+03  0.65864270000E+03 0.  1.
    8880022    1    1    2    0    0  0.19425087766E+03  0.83998491195E+02  0.49106909872E+02  0.26569209926E+03  0.15294330000E+03 0.  1.
<mgrwt>
<rscale>  0 0.54224718E+03</rscale>
<asrwt>0</asrwt>
<pdfrwt beam="1">  1        1 0.49229906E-01 0.69180876E+03</pdfrwt>
<pdfrwt beam="2">  1       -1 0.12987225E+00 0.69180876E+03</pdfrwt>
<totfact> 0.42041686E+01</totfact>
</mgrwt>
</event>
<event>
 4    1  0.2514307E-008  0.8724218E+03  0.7818608E-02  0.9571838E-01
          1   -1    0    0  501    0  0.00000000000E+00  0.00000000000E+00  0.19832456787E+04  0.19832456787E+04  0.50400000000E-02 0. -1.
         -1   -1    0    0    0  501 -0.00000000000E+00 -0.00000000000E+00 -0.40859363585E+03  0.40859363588E+03  0.50400000000E-02 0.  1.
    8880023    1    1    2    0    0  0.52991168133E+03  0.21564615508E+03  0.20000012208E+03  0.89505302039E+03  0.65864270000E+03 0.  1.
    8880022    1    1    2    0    0 -0.52991168133E+03 -0.21564615508E+03  0.13746519207E+04  0.14967862942E+04  0.15294330000E+03 0.  0.
<mgrwt>
<rscale>  0 0.79188491E+03</rscale>
<asrwt>0</asrwt>
<pdfrwt beam="1">  1        1 0.30511472E+00 0.87242184E+03</pdfrwt>
<pdfrwt beam="2">  1       -1 0.62860560E-01 0.87242184E+03</pdfrwt>
<totfact> 0.80702940E+00</totfact>
</mgrwt>
</event>
<event>
 4    1  0.2514307E-008  0.6849845E+03  0.7818608E-02  0.1006634E+00
          1   -1    0    0  501    0  0.00000000000E+00  0.00000000000E+00  0.44200252705E+04  0.44200252705E+04  0.50400000000E-02 0. -1.
         -1   -1    0    0    0  501 -0.00000000000E+00 -0.00000000000E+00 -0.75347723822E+03  0.75347723823E+03  0.50400000000E-02 0.  1.
    8880023    1    1    2    0    0  0.22808703529E+02  0.18674383191E+03 -0.59363543632E+03  0.90642524967E+03  0.65864270000E+03 0.  1.
    8880022    1    1    2    0    0 -0.22808703529E+02 -0.18674383191E+03  0.42601834686E+04  0.42670772590E+04  0.15294330000E+03 0.  0.
<mgrwt>
<rscale>  0 0.52834669E+03</rscale>
<asrwt>0</asrwt>
<pdfrwt beam="1">  1        1 0.68000389E+00 0.68498445E+03</pdfrwt>
<pdfrwt beam="2">  1       -1 0.11591958E+00 0.68498445E+03</pdfrwt>
<totfact> 0.30600861E-02</totfact>
</mgrwt>
</event>
<event>
 4    1  0.2514307E-008  0.7427614E+03  0.7818608E-02  0.9851975E-01
          1   -1    0    0  501    0  0.00000000000E+00  0.00000000000E+00  0.36960144074E+04  0.36960144074E+04  0.50400000000E-02 0. -1.
         -1   -1    0    0    0  501 -0.00000000000E+00 -0.00000000000E+00 -0.10466080032E+03  0.10466080044E+03  0.50400000000E-02 0.  1.
    8880023    1    1    2    0    0  0.34237577403E+03 -0.25751479638E+02  0.14778086898E+04  0.16539688749E+04  0.65864270000E+03 0.  1.
    8880022    1    1    2    0    0 -0.34237577403E+03  0.25751479638E+02  0.21135449173E+04  0.21467063329E+04  0.15294330000E+03 0.  0.
<mgrwt>
<rscale>  0 0.62646316E+03</rscale>
<asrwt>0</asrwt>
<pdfrwt beam="1">  1        1 0.56861752E+00 0.74276141E+03</pdfrwt>
<pdfrwt beam="2">  1       -1 0.16101664E-01 0.74276141E+03</pdfrwt>
<totfact> 0.55279142E+00</totfact>
</mgrwt>
</event>
<event>
 4    1  0.2514307E-008  0.8113942E+03  0.7818608E-02  0.9686680E-01
         -1   -1    0    0    0  501 -0.00000000000E+00  0.00000000000E+00  0.14790675058E+04  0.14790675058E+04  0.50400000000E-02 0.  1.
          1   -1    0    0  501    0  0.00000000000E+00 -0.00000000000E+00 -0.69551496414E+03  0.69551496416E+03  0.50400000000E-02 0. -1.
    8880023    1    1    2    0    0 -0.42385212860E+03  0.21189560430E+03  0.12513396951E+04  0.14913790976E+04  0.65864270000E+03 0.  1.
    8880022    1    1    2    0    0  0.42385212860E+03 -0.21189560430E+03 -0.46778715344E+03  0.68320337234E+03  0.15294330000E+03 0.  0.
<mgrwt>
<rscale>  0 0.71815419E+03</rscale>
<asrwt>0</asrwt>
<pdfrwt beam="1">  1        1 0.10700230E+00 0.81139422E+03</pdfrwt>
<pdfrwt beam="2">  1       -1 0.22754885E+00 0.81139422E+03</pdfrwt>
<totfact> 0.27821102E+00</totfact>
</mgrwt>
</event>
<event>
 4    1  0.2514307E-008  0.8607138E+03  0.7818608E-02  0.9592295E-01
         -1   -1    0    0    0  501 -0.00000000000E+00  0.00000000000E+00  0.54273073475E+03  0.54273073477E+03  0.50400000000E-02 0.  1.
          1   -1    0    0  501    0  0.00000000000E+00 -0.00000000000E+00 -0.14647634901E+04  0.14647634901E+04  0.50400000000E-02 0. -1.
    8880023    1    1    2    0    0  0.18106022780E+03 -0.52367479473E+03 -0.11082892750E+04  0.14032581445E+04  0.65864270000E+03 0.  0.
    8880022    1    1    2    0    0 -0.18106022780E+03  0.52367479473E+03  0.18625651963E+03  0.60423608039E+03  0.15294330000E+03 0.  0.
<mgrwt>
<rscale>  0 0.77808258E+03</rscale>
<asrwt>0</asrwt>
<pdfrwt beam="1">  1        1 0.22534823E+00 0.86071383E+03</pdfrwt>
<pdfrwt beam="2">  1       -1 0.83497037E-01 0.86071383E+03</pdfrwt>
<totfact> 0.10067473E+01</totfact>
</mgrwt>
</event>
<event>
 4    1  0.2514307E-008  0.7093977E+03  0.7818608E-02  0.9960244E-01
          1   -1    0    0  501    0  0.00000000000E+00  0.00000000000E+00  0.92498648274E+03  0.92498648275E+03  0.50400000000E-02 0. -1.
         -1   -1    0    0    0  501 -0.00000000000E+00 -0.00000000000E+00 -0.11681139401E+04  0.11681139401E+04  0.50400000000E-02 0.  1.
    8880023    1    1    2    0    0  0.13391346860E+03 -0.22694070660E+03 -0.10292281186E+04  0.12500222509E+04  0.65864270000E+03 0.  1.
    8880022    1    1    2    0    0 -0.13391346860E+03  0.22694070660E+03  0.78610066125E+03  0.84307817195E+03  0.15294330000E+03 0.  0.
<mgrwt>
<rscale>  0 0.57428353E+03</rscale>
<asrwt>0</asrwt>
<pdfrwt beam="1">  1        1 0.14230561E+00 0.70939771E+03</pdfrwt>
<pdfrwt beam="2">  1       -1 0.17970984E+00 0.70939771E+03</pdfrwt>
<totfact> 0.37952433E+00</totfact>
</mgrwt>
</event>
<event>
 4    1  0.2514307E-008  0.9187373E+03  0.7818608E-02  0.9496598E-01
          1   -1    0    0  501    0  0.00000000000E+00  0.00000000000E+00  0.10724366974E+04  0.10724366974E+04  0.50400000000E-02 0. -1.
         -1   -1    0    0    0  501 -0.00000000000E+00 -0.00000000000E+00 -0.37555350138E+04  0.37555350138E+04  0.50400000000E-02 0.  1.
    8880023    1    1    2    0    0 -0.51943307788E+03 -0.37477634197E+03 -0.35908459200E+04  0.37065148936E+04  0.65864270000E+03 0.  1.
    8880022    1    1    2    0    0  0.51943307788E+03  0.37477634197E+03  0.90774760360E+03  0.11214568176E+04  0.15294330000E+03 0.  0.
<mgrwt>
<rscale>  0 0.84535114E+03</rscale>
<asrwt>0</asrwt>
<pdfrwt beam="1">  1        1 0.16499026E+00 0.91873730E+03</pdfrwt>
<pdfrwt beam="2">  1       -1 0.57777461E+00 0.91873730E+03</pdfrwt>
<totfact> 0.73419496E-03</totfact>
</mgrwt>
</event>
<event>
 4    1  0.2514307E-008  0.7499090E+03  0.7818608E-02  0.9831969E-01
          1   -1    0    0  501    0  0.00000000000E+00  0.00000000000E+00  0.11703112207E+04  0.11703112207E+04  0.50400000000E-02 0. -1.
         -1   -1    0    0    0  501 -0.00000000000E+00 -0.00000000000E+00 -0.61467839293E+03  0.61467839295E+03  0.50400000000E-02 0.  1.
    8880023    1    1    2    0    0 -0.18845451146E+02  0.35804777076E+03 -0.32852851021E+03  0.81871517969E+03  0.65864270000E+03 0.  1.
    8880022    1    1    2    0    0  0.18845451146E+02 -0.35804777076E+03  0.88416133798E+03  0.96627443398E+03  0.15294330000E+03 0.  0.
<mgrwt>
<rscale>  0 0.63674750E+03</rscale>
<asrwt>0</asrwt>
<pdfrwt beam="1">  1        1 0.18004788E+00 0.74990904E+03</pdfrwt>
<pdfrwt beam="2">  1       -1 0.94565907E-01 0.74990904E+03</pdfrwt>
<totfact> 0.12559398E+01</totfact>
</mgrwt>
</event>
<event>
 4    1  0.2514307E-008  0.7232672E+03  0.7818608E-02  0.9911682E-01
          1   -1    0    0  501    0  0.00000000000E+00  0.00000000000E+00  0.18293680816E+04  0.18293680816E+04  0.50400000000E-02 0. -1.
         -1   -1    0    0    0  501 -0.00000000000E+00 -0.00000000000E+00 -0.49363894073E+03  0.49363894076E+03  0.50400000000E-02 0.  1.
    8880023    1    1    2    0    0  0.29692848970E+03 -0.33745528655E+02 -0.20048573721E+03  0.75053982292E+03  0.65864270000E+03 0.  1.
    8880022    1    1    2    0    0 -0.29692848970E+03  0.33745528655E+02  0.15362148781E+04  0.15724671994E+04  0.15294330000E+03 0.  0.
<mgrwt>
<rscale>  0 0.59698458E+03</rscale>
<asrwt>0</asrwt>
<pdfrwt beam="1">  1        1 0.28144124E+00 0.72326724E+03</pdfrwt>
<pdfrwt beam="2">  1       -1 0.75944454E-01 0.72326724E+03</pdfrwt>
<totfact> 0.71139358E+00</totfact>
</mgrwt>
</event>
<event>
 4    1  0.2514307E-008  0.1190147E+04  0.7818608E-02  0.9166760E-01
          1   -1    0    0  501    0  0.00000000000E+00  0.00000000000E+00  0.18006146952E+04  0.18006146952E+04  0.50400000000E-02 0. -1.
         -1   -1    0    0    0  501 -0.00000000000E+00 -0.00000000000E+00 -0.16808078951E+04  0.16808078951E+04  0.50400000000E-02 0.  1.
    8880023    1    1    2    0    0 -0.28700688460E+03  0.94882406188E+03 -0.12874661077E+04  0.17532881215E+04  0.65864270000E+03 0.  1.
    8880022    1    1    2    0    0  0.28700688460E+03 -0.94882406188E+03  0.14072729078E+04  0.17281344688E+04  0.15294330000E+03 0.  0.
<mgrwt>
<rscale>  0 0.11403206E+04</rscale>
<asrwt>0</asrwt>
<pdfrwt beam="1">  1        1 0.27701765E+00 0.11901472E+04</pdfrwt>
<pdfrwt beam="2">  1       -1 0.25858583E+00 0.11901472E+04</pdfrwt>
<totfact> 0.24537693E-01</totfact>
</mgrwt>
</event>
<event>
 4    1  0.2514307E-008  0.8020041E+03  0.7818608E-02  0.9706479E-01
          1   -1    0    0  501    0  0.00000000000E+00  0.00000000000E+00  0.74080327348E+03  0.74080327349E+03  0.50400000000E-02 0. -1.
         -1   -1    0    0    0  501 -0.00000000000E+00 -0.00000000000E+00 -0.97921965995E+03  0.97921965997E+03  0.50400000000E-02 0.  1.
    8880023    1    1    2    0    0  0.11268189630E+02 -0.45746407530E+03 -0.69089843233E+03  0.10585609110E+04  0.65864270000E+03 0.  1.
    8880022    1    1    2    0    0 -0.11268189630E+02  0.45746407530E+03  0.45248204586E+03  0.66146202243E+03  0.15294330000E+03 0.  0.
<mgrwt>
<rscale>  0 0.70632316E+03</rscale>
<asrwt>0</asrwt>
<pdfrwt beam="1">  1        1 0.11396973E+00 0.80200409E+03</pdfrwt>
<pdfrwt beam="2">  1       -1 0.15064918E+00 0.80200409E+03</pdfrwt>
<totfact> 0.88232740E+00</totfact>
</mgrwt>
</event>
<event>
 4    1  0.2514307E-008  0.8437912E+03  0.7818608E-02  0.9623073E-01
         -1   -1    0    0    0  501 -0.00000000000E+00  0.00000000000E+00  0.85927380497E+03  0.85927380498E+03  0.50400000000E-02 0.  1.
          1   -1    0    0  501    0  0.00000000000E+00 -0.00000000000E+00 -0.13094569835E+04  0.13094569835E+04  0.50400000000E-02 0. -1.
    8880023    1    1    2    0    0  0.25854617067E+02  0.52678732937E+03  0.56434052162E+03  0.10151176199E+04  0.65864270000E+03 0.  1.
    8880022    1    1    2    0    0 -0.25854617067E+02 -0.52678732937E+03 -0.10145237001E+04  0.11536131686E+04  0.15294330000E+03 0.  0.
<mgrwt>
<rscale>  0 0.75787722E+03</rscale>
<asrwt>0</asrwt>
<pdfrwt beam="1">  1        1 0.20145492E+00 0.84379118E+03</pdfrwt>
<pdfrwt beam="2">  1       -1 0.13219597E+00 0.84379118E+03</pdfrwt>
<totfact> 0.44368709E+00</totfact>
</mgrwt>
</event>
<event>
 4    1  0.2514307E-008  0.8087395E+03  0.7818608E-02  0.9692209E-01
          1   -1    0    0  501    0  0.00000000000E+00  0.00000000000E+00  0.19123610698E+04  0.19123610698E+04  0.50400000000E-02 0. -1.
         -1   -1    0    0    0  501 -0.00000000000E+00 -0.00000000000E+00 -0.34351409311E+03  0.34351409315E+03  0.50400000000E-02 0.  1.
    8880023    1    1    2    0    0  0.73512381091E+02 -0.46351407495E+03  0.24815195685E+03  0.84595447147E+03  0.65864270000E+03 0.  0.
    8880022    1    1    2    0    0 -0.73512381091E+02  0.46351407495E+03  0.13206950199E+04  0.14099206915E+04  0.15294330000E+03 0.  0.
<mgrwt>
<rscale>  0 0.71482592E+03</rscale>
<asrwt>0</asrwt>
<pdfrwt beam="1">  1        1 0.29420940E+00 0.80873950E+03</pdfrwt>
<pdfrwt beam="2">  1       -1 0.52848321E-01 0.80873950E+03</pdfrwt>
<totfact> 0.12756094E+01</totfact>
</mgrwt>
</event>
<event>
 4    1  0.2514307E-008  0.6939482E+03  0.7818608E-02  0.1002330E+00
          1   -1    0    0  501    0  0.00000000000E+00  0.00000000000E+00  0.25702129402E+04  0.25702129402E+04  0.50400000000E-02 0. -1.
         -1   -1    0    0    0  501 -0.00000000000E+00 -0.00000000000E+00 -0.25481619665E+03  0.25481619670E+03  0.50400000000E-02 0.  1.
    8880023    1    1    2    0    0  0.77210770526E+00  0.21852529970E+03  0.24258601634E+03  0.73512725724E+03  0.65864270000E+03 0.  0.
    8880022    1    1    2    0    0 -0.77210770526E+00 -0.21852529970E+03  0.20728107272E+04  0.20899018797E+04  0.15294330000E+03 0.  0.
<mgrwt>
<rscale>  0 0.54640387E+03</rscale>
<asrwt>0</asrwt>
<pdfrwt beam="1">  1        1 0.39541739E+00 0.69394820E+03</pdfrwt>
<pdfrwt beam="2">  1       -1 0.39202490E-01 0.69394820E+03</pdfrwt>
<totfact> 0.81612534E+00</totfact>
</mgrwt>
</event>
<event>
 4    1  0.2514307E-008  0.1665305E+04  0.7818608E-02  0.8800949E-01
         -1   -1    0    0    0  501 -0.00000000000E+00  0.00000000000E+00  0.32367276545E+04  0.32367276545E+04  0.50400000000E-02 0.  1.
          1   -1    0    0  501    0  0.00000000000E+00 -0.00000000000E+00 -0.13226535750E+04  0.13226535750E+04  0.50400000000E-02 0. -1.
    8880023    1    1    2    0    0 -0.14024168306E+04  0.61045597724E+03  0.24230693374E+04  0.29401538543E+04  0.65864270000E+03 0.  0.
    8880022    1    1    2    0    0  0.14024168306E+04 -0.61045597724E+03 -0.50899525796E+03  0.16192273752E+04  0.15294330000E+03 0. -1.
<mgrwt>
<rscale>  0 0.16322968E+04</rscale>
<asrwt>0</asrwt>
<pdfrwt beam="1">  1        1 0.20348516E+00 0.16653047E+04</pdfrwt>
<pdfrwt beam="2">  1       -1 0.49795811E+00 0.16653047E+04</pdfrwt>
<totfact> 0.12332466E-02</totfact>
</mgrwt>
</event>
<event>
 4    1  0.2514307E-008  0.1810618E+04  0.7818608E-02  0.8716686E-01
          1   -1    0    0  501    0  0.00000000000E+00  0.00000000000E+00  0.18870705252E+04  0.18870705252E+04  0.50400000000E-02 0. -1.
         -1   -1    0    0    0  501 -0.00000000000E+00 -0.00000000000E+00 -0.26424037377E+04  0.26424037377E+04  0.50400000000E-02 0.  1.
    8880023    1    1    2    0    0  0.53571147508E+03  0.15992313032E+04 -0.17890663509E+04  0.25454068750E+04  0.65864270000E+03 0.  0.
    8880022    1    1    2    0    0 -0.53571147508E+03 -0.15992313032E+04  0.10337331384E+04  0.19840673879E+04  0.15294330000E+03 0.  0.
<mgrwt>
<rscale>  0 0.17805985E+04</rscale>
<asrwt>0</asrwt>
<pdfrwt beam="1">  1        1 0.29031854E+00 0.18106181E+04</pdfrwt>
<pdfrwt beam="2">  1       -1 0.40652365E+00 0.18106181E+04</pdfrwt>
<totfact> 0.20817091E-02</totfact>
</mgrwt>
</event>
<event>
 4    1  0.2514307E-008  0.7385023E+03  0.7818608E-02  0.9864331E-01
          1   -1    0    0  501    0  0.00000000000E+00  0.00000000000E+00  0.40233107221E+03  0.40233107224E+03  0.50400000000E-02 0. -1.
         -1   -1    0    0    0  501 -0.00000000000E+00 -0.00000000000E+00 -0.78356137826E+03  0.78356137828E+03  0.50400000000E-02 0.  1.
    8880023    1    1    2    0    0  0.26948932903E+03 -0.19736003095E+03 -0.15546661763E+03  0.75468904573E+03  0.65864270000E+03 0.  0.
    8880022    1    1    2    0    0 -0.26948932903E+03  0.19736003095E+03 -0.22576368843E+03  0.43120340479E+03  0.15294330000E+03 0. -1.
<mgrwt>
<rscale>  0 0.62021520E+03</rscale>
<asrwt>0</asrwt>
<pdfrwt beam="1">  1        1 0.61897088E-01 0.73850233E+03</pdfrwt>
<pdfrwt beam="2">  1       -1 0.12054790E+00 0.73850233E+03</pdfrwt>
<totfact> 0.37295254E+01</totfact>
</mgrwt>
</event>
<event>
 4    1  0.2514307E-008  0.1143714E+04  0.7818608E-02  0.9213879E-01
         -1   -1    0    0    0  501 -0.00000000000E+00  0.00000000000E+00  0.55856933492E+03  0.55856933494E+03  0.50400000000E-02 0.  1.
          1   -1    0    0  501    0  0.00000000000E+00 -0.00000000000E+00 -0.24400073538E+04  0.24400073538E+04  0.50400000000E-02 0. -1.
    8880023    1    1    2    0    0 -0.87760525034E+03  0.32261487595E+03 -0.34698846449E+03  0.11951914216E+04  0.65864270000E+03 0.  0.
    8880022    1    1    2    0    0  0.87760525034E+03 -0.32261487595E+03 -0.15344495544E+04  0.18033852671E+04  0.15294330000E+03 0.  0.
<mgrwt>
<rscale>  0 0.10911318E+04</rscale>
<asrwt>0</asrwt>
<pdfrwt beam="1">  1        1 0.37538574E+00 0.11437139E+04</pdfrwt>
<pdfrwt beam="2">  1       -1 0.85933746E-01 0.11437139E+04</pdfrwt>
<totfact> 0.19888687E+00</totfact>
</mgrwt>
</event>
<event>
 4    1  0.2514307E-008  0.1292573E+04  0.7818608E-02  0.9072000E-01
          1   -1    0    0  501    0  0.00000000000E+00  0.00000000000E+00  0.21294656819E+04  0.21294656819E+04  0.50400000000E-02 0. -1.
         -1   -1    0    0    0  501 -0.00000000000E+00 -0.00000000000E+00 -0.15805344733E+04  0.15805344733E+04  0.50400000000E-02 0.  1.
    8880023    1    1    2    0    0  0.47262768518E+03  0.10067566532E+04 -0.11121168712E+04  0.17051539605E+04  0.65864270000E+03 0.  0.
    8880022    1    1    2    0    0 -0.47262768518E+03 -0.10067566532E+04  0.16610480798E+04  0.20048461946E+04  0.15294330000E+03 0.  0.
<mgrwt>
<rscale>  0 0.12478197E+04</rscale>
<asrwt>0</asrwt>
<pdfrwt beam="1">  1        1 0.32761010E+00 0.12925734E+04</pdfrwt>
<pdfrwt beam="2">  1       -1 0.24315915E+00 0.12925734E+04</pdfrwt>
<totfact> 0.18240811E-01</totfact>
</mgrwt>
</event>
<event>
 4    1  0.2514307E-008  0.8192063E+03  0.7818608E-02  0.9670710E-01
          1   -1    0    0  501    0  0.00000000000E+00  0.00000000000E+00  0.17371339858E+04  0.17371339858E+04  0.50400000000E-02 0. -1.
         -1   -1    0    0    0  501 -0.00000000000E+00 -0.00000000000E+00 -0.36778710457E+03  0.36778710461E+03  0.50400000000E-02 0.  1.
    8880023    1    1    2    0    0 -0.47410668293E+03 -0.11185528258E+03  0.22146846702E+03  0.84861489451E+03  0.65864270000E+03 0.  1.
    8880022    1    1    2    0    0  0.47410668293E+03  0.11185528258E+03  0.11478784142E+04  0.12563061959E+04  0.15294330000E+03 0.  0.
<mgrwt>
<rscale>  0 0.72787786E+03</rscale>
<asrwt>0</asrwt>
<pdfrwt beam="1">  1        1 0.26725139E+00 0.81920630E+03</pdfrwt>
<pdfrwt beam="2">  1       -1 0.56582630E-01 0.81920630E+03</pdfrwt>
<totfact> 0.14635900E+01</totfact>
</mgrwt>
</event>
<event>
 4    1  0.2514307E-008  0.9918364E+03  0.7818608E-02  0.9392317E-01
         -1   -1    0    0    0  501 -0.00000000000E+00  0.00000000000E+00  0.62626919331E+03  0.62626919333E+03  0.50400000000E-02 0.  1.
          1   -1    0    0  501    0  0.00000000000E+00 -0.00000000000E+00 -0.33628467371E+04  0.33628467371E+04  0.50400000000E-02 0. -1.
    8880023    1    1    2    0    0  0.60530878285E+03  0.42840456707E+03  0.15158141209E+03  0.10033525434E+04  0.65864270000E+03 0.  0.
    8880022    1    1    2    0    0 -0.60530878285E+03 -0.42840456707E+03 -0.28881589559E+04  0.29857633870E+04  0.15294330000E+03 0.  0.
<mgrwt>
<rscale>  0 0.92710675E+03</rscale>
<asrwt>0</asrwt>
<pdfrwt beam="1">  1        1 0.51736103E+00 0.99183638E+03</pdfrwt>
<pdfrwt beam="2">  1       -1 0.96349109E-01 0.99183638E+03</pdfrwt>
<totfact> 0.34408977E-01</totfact>
</mgrwt>
</event>
<event>
 4    1  0.2514307E-008  0.6860688E+03  0.7818608E-02  0.1006080E+00
         -1   -1    0    0    0  501 -0.00000000000E+00  0.00000000000E+00  0.10521092957E+04  0.10521092958E+04  0.50400000000E-02 0.  1.
          1   -1    0    0  501    0  0.00000000000E+00 -0.00000000000E+00 -0.11550696365E+04  0.11550696365E+04  0.50400000000E-02 0. -1.
    8880023    1    1    2    0    0  0.10479777682E+03 -0.16092751506E+03  0.92424039129E+03  0.11510476733E+04  0.65864270000E+03 0.  1.
    8880022    1    1    2    0    0 -0.10479777682E+03  0.16092751506E+03 -0.10272007320E+04  0.10561312589E+04  0.15294330000E+03 0.  0.
<mgrwt>
<rscale>  0 0.53062795E+03</rscale>
<asrwt>0</asrwt>
<pdfrwt beam="1">  1        1 0.17770302E+00 0.68606883E+03</pdfrwt>
<pdfrwt beam="2">  1       -1 0.16186297E+00 0.68606883E+03</pdfrwt>
<totfact> 0.34328272E+00</totfact>
</mgrwt>
</event>
<event>
 4    1  0.2514307E-008  0.1069224E+04  0.7818608E-02  0.9296121E-01
         -1   -1    0    0    0  501 -0.00000000000E+00  0.00000000000E+00  0.20372045219E+04  0.20372045219E+04  0.50400000000E-02 0.  1.
          1   -1    0    0  501    0  0.00000000000E+00 -0.00000000000E+00 -0.19858879327E+04  0.19858879327E+04  0.50400000000E-02 0. -1.
    8880023    1    1    2    0    0  0.68315079198E+03 -0.49268076867E+03  0.17900374551E+04  0.20850596254E+04  0.65864270000E+03 0.  1.
    8880022    1    1    2    0    0 -0.68315079198E+03  0.49268076867E+03 -0.17387208659E+04  0.19380328292E+04  0.15294330000E+03 0.  0.
<mgrwt>
<rscale>  0 0.10114076E+04</rscale>
<asrwt>0</asrwt>
<pdfrwt beam="1">  1        1 0.30552122E+00 0.10692238E+04</pdfrwt>
<pdfrwt beam="2">  1       -1 0.31341608E+00 0.10692238E+04</pdfrwt>
<totfact> 0.83149295E-02</totfact>
</mgrwt>
</event>
<event>
 4    1  0.2514307E-008  0.1640482E+04  0.7818608E-02  0.8816321E-01
          1   -1    0    0  501    0  0.00000000000E+00  0.00000000000E+00  0.14280837670E+04  0.14280837670E+04  0.50400000000E-02 0. -1.
         -1   -1    0    0    0  501 -0.00000000000E+00 -0.00000000000E+00 -0.20477694824E+04  0.20477694825E+04  0.50400000000E-02 0.  1.
    8880023    1    1    2    0    0 -0.42761779844E+02 -0.15018459419E+04  0.35495327064E+03  0.16784432769E+04  0.65864270000E+03 0.  0.
    8880022    1    1    2    0    0  0.42761779844E+02  0.15018459419E+04 -0.97463898613E+03  0.17974099725E+04  0.15294330000E+03 0.  0.
<mgrwt>
<rscale>  0 0.16068988E+04</rscale>
<asrwt>0</asrwt>
<pdfrwt beam="1">  1        1 0.21970519E+00 0.16404816E+04</pdfrwt>
<pdfrwt beam="2">  1       -1 0.31504146E+00 0.16404816E+04</pdfrwt>
<totfact> 0.18035488E-01</totfact>
</mgrwt>
</event>
<event>
 4    1  0.2514307E-008  0.1002353E+04  0.7818608E-02  0.9378486E-01
          1   -1    0    0  501    0  0.00000000000E+00  0.00000000000E+00  0.43012355333E+03  0.43012355336E+03  0.50400000000E-02 0. -1.
         -1   -1    0    0    0  501 -0.00000000000E+00 -0.00000000000E+00 -0.21544160308E+04  0.21544160308E+04  0.50400000000E-02 0.  1.
    8880023    1    1    2    0    0 -0.64477651124E+03  0.39390837522E+03 -0.45796956908E+03  0.11020194599E+04  0.65864270000E+03 0.  1.
    8880022    1    1    2    0    0  0.64477651124E+03 -0.39390837522E+03 -0.12663229084E+04  0.14825201242E+04  0.15294330000E+03 0.  0.
<mgrwt>
<rscale>  0 0.93867532E+03</rscale>
<asrwt>0</asrwt>
<pdfrwt beam="1">  1        1 0.66172856E-01 0.10023526E+04</pdfrwt>
<pdfrwt beam="2">  1       -1 0.33144861E+00 0.10023526E+04</pdfrwt>
<totfact> 0.11416181E+00</totfact>
</mgrwt>
</event>
<event>
 4    1  0.2514307E-008  0.1255622E+04  0.7818608E-02  0.9104863E-01
         -1   -1    0    0    0  501 -0.00000000000E+00  0.00000000000E+00  0.87485415847E+03  0.87485415848E+03  0.50400000000E-02 0.  1.
          1   -1    0    0  501    0  0.00000000000E+00 -0.00000000000E+00 -0.22931275214E+04  0.22931275214E+04  0.50400000000E-02 0. -1.
    8880023    1    1    2    0    0 -0.22919547744E+02 -0.10687612565E+04  0.14927616481E+03  0.12644641192E+04  0.65864270000E+03 0.  0.
    8880022    1    1    2    0    0  0.22919547744E+02  0.10687612565E+04 -0.15675495277E+04  0.19035175607E+04  0.15294330000E+03 0.  0.
<mgrwt>
<rscale>  0 0.12091753E+04</rscale>
<asrwt>0</asrwt>
<pdfrwt beam="1">  1        1 0.35278885E+00 0.12556218E+04</pdfrwt>
<pdfrwt beam="2">  1       -1 0.13459295E+00 0.12556218E+04</pdfrwt>
<totfact> 0.85474242E-01</totfact>
</mgrwt>
</event>
<event>
 4    1  0.2514307E-008  0.1738389E+04  0.7818608E-02  0.8757405E-01
          1   -1    0    0  501    0  0.00000000000E+00  0.00000000000E+00  0.28668072425E+04  0.28668072425E+04  0.50400000000E-02 0. -1.
         -1   -1    0    0    0  501 -0.00000000000E+00 -0.00000000000E+00 -0.12196015572E+04  0.12196015572E+04  0.50400000000E-02 0.  1.
    8880023    1    1    2    0    0 -0.16064877914E+04 -0.85931499491E+02 -0.55007965222E+02  0.17392594197E+04  0.65864270000E+03 0.  0.
    8880022    1    1    2    0    0  0.16064877914E+04  0.85931499491E+02  0.17022136506E+04  0.23471493799E+04  0.15294330000E+03 0.  0.
<mgrwt>
<rscale>  0 0.17069594E+04</rscale>
<asrwt>0</asrwt>
<pdfrwt beam="1">  1        1 0.44104726E+00 0.17383893E+04</pdfrwt>
<pdfrwt beam="2">  1       -1 0.18763101E+00 0.17383893E+04</pdfrwt>
<totfact> 0.12628229E-01</totfact>
</mgrwt>
</event>
<event>
 4    1  0.2514307E-008  0.8338882E+03  0.7818608E-02  0.9641814E-01
          1   -1    0    0  501    0  0.00000000000E+00  0.00000000000E+00  0.66618699831E+03  0.66618699833E+03  0.50400000000E-02 0. -1.
         -1   -1    0    0    0  501 -0.00000000000E+00 -0.00000000000E+00 -0.15641743846E+04  0.15641743846E+04  0.50400000000E-02 0.  1.
    8880023    1    1    2    0    0  0.14716567897E+02  0.51121700625E+03 -0.13121652348E+04  0.15547177283E+04  0.65864270000E+03 0.  1.
    8880022    1    1    2    0    0 -0.14716567897E+02 -0.51121700625E+03  0.41417784854E+03  0.67564365466E+03  0.15294330000E+03 0.  0.
<mgrwt>
<rscale>  0 0.74589410E+03</rscale>
<asrwt>0</asrwt>
<pdfrwt beam="1">  1        1 0.10249031E+00 0.83388825E+03</pdfrwt>
<pdfrwt beam="2">  1       -1 0.24064221E+00 0.83388825E+03</pdfrwt>
<totfact> 0.24281811E+00</totfact>
</mgrwt>
</event>
<event>
 4    1  0.2514307E-008  0.1114124E+04  0.7818608E-02  0.9245491E-01
          1   -1    0    0  501    0  0.00000000000E+00  0.00000000000E+00  0.17276168622E+04  0.17276168622E+04  0.50400000000E-02 0. -1.
         -1   -1    0    0    0  501 -0.00000000000E+00 -0.00000000000E+00 -0.10737356104E+04  0.10737356104E+04  0.50400000000E-02 0.  1.
    8880023    1    1    2    0    0  0.45668719488E+01 -0.89857750054E+03 -0.58885573228E+03  0.12601681080E+04  0.65864270000E+03 0.  1.
    8880022    1    1    2    0    0 -0.45668719488E+01  0.89857750054E+03  0.12427369842E+04  0.15411843646E+04  0.15294330000E+03 0.  0.
<mgrwt>
<rscale>  0 0.10595971E+04</rscale>
<asrwt>0</asrwt>
<pdfrwt beam="1">  1        1 0.26578721E+00 0.11141241E+04</pdfrwt>
<pdfrwt beam="2">  1       -1 0.16519010E+00 0.11141241E+04</pdfrwt>
<totfact> 0.12091034E+00</totfact>
</mgrwt>
</event>
<event>
 4    1  0.2514307E-008  0.1074722E+04  0.7818608E-02  0.9289736E-01
         -1   -1    0    0    0  501 -0.00000000000E+00  0.00000000000E+00  0.44035210334E+03  0.44035210336E+03  0.50400000000E-02 0.  1.
          1   -1    0    0  501    0  0.00000000000E+00 -0.00000000000E+00 -0.24906197992E+04  0.24906197992E+04  0.50400000000E-02 0. -1.
    8880023    1    1    2    0    0  0.14174333085E+03  0.83733281975E+03 -0.56739898211E+03  0.12153062306E+04  0.65864270000E+03 0.  0.
    8880022    1    1    2    0    0 -0.14174333085E+03 -0.83733281975E+03 -0.14828687137E+04  0.17156656720E+04  0.15294330000E+03 0.  0.
<mgrwt>
<rscale>  0 0.10173331E+04</rscale>
<asrwt>0</asrwt>
<pdfrwt beam="1">  1        1 0.38317227E+00 0.10747221E+04</pdfrwt>
<pdfrwt beam="2">  1       -1 0.67746479E-01 0.10747221E+04</pdfrwt>
<totfact> 0.30596623E+00</totfact>
</mgrwt>
</event>
<event>
 4    1  0.2514307E-008  0.9415173E+03  0.7818608E-02  0.9462425E-01
         -1   -1    0    0    0  501 -0.00000000000E+00  0.00000000000E+00  0.18135533217E+04  0.18135533217E+04  0.50400000000E-02 0.  1.
          1   -1    0    0  501    0  0.00000000000E+00 -0.00000000000E+00 -0.95190291828E+03  0.95190291830E+03  0.50400000000E-02 0. -1.
    8880023    1    1    2    0    0 -0.67218488015E+03  0.28497284312E+02  0.15354122609E+04  0.18010956736E+04  0.65864270000E+03 0.  1.
    8880022    1    1    2    0    0  0.67218488015E+03 -0.28497284312E+02 -0.67376185751E+03  0.96436056637E+03  0.15294330000E+03 0.  0.
<mgrwt>
<rscale>  0 0.87111648E+03</rscale>
<asrwt>0</asrwt>
<pdfrwt beam="1">  1        1 0.14644660E+00 0.94151729E+03</pdfrwt>
<pdfrwt beam="2">  1       -1 0.27900820E+00 0.94151729E+03</pdfrwt>
<totfact> 0.76144588E-01</totfact>
</mgrwt>
</event>
<event>
 4    1  0.2514307E-008  0.8774450E+03  0.7818608E-02  0.9563255E-01
         -1   -1    0    0    0  501 -0.00000000000E+00  0.00000000000E+00  0.11553889784E+04  0.11553889784E+04  0.50400000000E-02 0.  1.
          1   -1    0    0  501    0  0.00000000000E+00 -0.00000000000E+00 -0.56933814868E+03  0.56933814870E+03  0.50400000000E-02 0. -1.
    8880023    1    1    2    0    0 -0.49693537427E+03  0.29858800960E+03  0.68994803093E+03  0.11162159546E+04  0.65864270000E+03 0.  0.
    8880022    1    1    2    0    0  0.49693537427E+03 -0.29858800960E+03 -0.10389720118E+03  0.60851117254E+03  0.15294330000E+03 0.  0.
<mgrwt>
<rscale>  0 0.79776683E+03</rscale>
<asrwt>0</asrwt>
<pdfrwt beam="1">  1        1 0.87590485E-01 0.87744503E+03</pdfrwt>
<pdfrwt beam="2">  1       -1 0.17775215E+00 0.87744503E+03</pdfrwt>
<totfact> 0.81075512E+00</totfact>
</mgrwt>
</event>
<event>
 4    1  0.2514307E-008  0.1001861E+04  0.7818608E-02  0.9379127E-01
         -1   -1    0    0    0  501 -0.00000000000E+00  0.00000000000E+00  0.12193082194E+04  0.12193082195E+04  0.50400000000E-02 0.  1.
          1   -1    0    0  501    0  0.00000000000E+00 -0.00000000000E+00 -0.74306310911E+03  0.74306310912E+03  0.50400000000E-02 0. -1.
    8880023    1    1    2    0    0 -0.30203670281E+03 -0.69187378107E+03  0.62087236109E+03  0.11786467638E+04  0.65864270000E+03 0.  1.
    8880022    1    1    2    0    0  0.30203670281E+03  0.69187378107E+03 -0.14462725075E+03  0.78372456478E+03  0.15294330000E+03 0.  0.
<mgrwt>
<rscale>  0 0.93813554E+03</rscale>
<asrwt>0</asrwt>
<pdfrwt beam="1">  1        1 0.11431740E+00 0.10018611E+04</pdfrwt>
<pdfrwt beam="2">  1       -1 0.18758588E+00 0.10018611E+04</pdfrwt>
<totfact> 0.45811287E+00</totfact>
</mgrwt>
</event>
<event>
 4    1  0.2514307E-008  0.9543938E+03  0.7818608E-02  0.9443820E-01
         -1   -1    0    0    0  501 -0.00000000000E+00  0.00000000000E+00  0.90537672631E+03  0.90537672632E+03  0.50400000000E-02 0.  1.
          1   -1    0    0  501    0  0.00000000000E+00 -0.00000000000E+00 -0.10277809283E+04  0.10277809283E+04  0.50400000000E-02 0. -1.
    8880023    1    1    2    0    0  0.41661160920E+02  0.68943578439E+03  0.41901460871E+03  0.10423247103E+04  0.65864270000E+03 0.  1.
    8880022    1    1    2    0    0 -0.41661160920E+02 -0.68943578439E+03 -0.54141881073E+03  0.89083294436E+03  0.15294330000E+03 0.  0.
<mgrwt>
<rscale>  0 0.88555531E+03</rscale>
<asrwt>0</asrwt>
<pdfrwt beam="1">  1        1 0.15812014E+00 0.95439382E+03</pdfrwt>
<pdfrwt beam="2">  1       -1 0.13928873E+00 0.95439382E+03</pdfrwt>
<totfact> 0.61628801E+00</totfact>
</mgrwt>
</event>
<event>
 4    1  0.2514307E-008  0.8864896E+03  0.7818608E-02  0.9548078E-01
          1   -1    0    0  501    0  0.00000000000E+00  0.00000000000E+00  0.22340340568E+04  0.22340340569E+04  0.50400000000E-02 0. -1.
         -1   -1    0    0    0  501 -0.00000000000E+00 -0.00000000000E+00 -0.48273528427E+03  0.48273528430E+03  0.50400000000E-02 0.  1.
    8880023    1    1    2    0    0 -0.41925480550E+03 -0.41985604764E+03  0.27069660918E+02  0.88690285008E+03  0.65864270000E+03 0.  1.
    8880022    1    1    2    0    0  0.41925480550E+03  0.41985604764E+03  0.17242291117E+04  0.18298664911E+04  0.15294330000E+03 0.  0.
<mgrwt>
<rscale>  0 0.80830189E+03</rscale>
<asrwt>0</asrwt>
<pdfrwt beam="1">  1        1 0.34369755E+00 0.88648965E+03</pdfrwt>
<pdfrwt beam="2">  1       -1 0.74266966E-01 0.88648965E+03</pdfrwt>
<totfact> 0.38868803E+00</totfact>
</mgrwt>
</event>
<event>
 4    1  0.2514307E-008  0.1039174E+04  0.7818608E-02  0.9332011E-01
         -1   -1    0    0    0  501 -0.00000000000E+00  0.00000000000E+00  0.12677332189E+04  0.12677332189E+04  0.50400000000E-02 0.  1.
          1   -1    0    0  501    0  0.00000000000E+00 -0.00000000000E+00 -0.18315742453E+04  0.18315742453E+04  0.50400000000E-02 0. -1.
    8880023    1    1    2    0    0  0.80336288359E+03  0.26076477240E+02  0.93098017160E+03  0.13952082968E+04  0.65864270000E+03 0.  1.
    8880022    1    1    2    0    0 -0.80336288359E+03 -0.26076477240E+02 -0.14948211979E+04  0.17040991674E+04  0.15294330000E+03 0.  0.
<mgrwt>
<rscale>  0 0.97888573E+03</rscale>
<asrwt>0</asrwt>
<pdfrwt beam="1">  1        1 0.28178065E+00 0.10391738E+04</pdfrwt>
<pdfrwt beam="2">  1       -1 0.19503588E+00 0.10391738E+04</pdfrwt>
<totfact> 0.63426456E-01</totfact>
</mgrwt>
</event>
<event>
 4    1  0.2514307E-008  0.6745458E+03  0.7818608E-02  0.1012594E+00
         -1   -1    0    0    0  501 -0.00000000000E+00  0.00000000000E+00  0.12532180740E+04  0.12532180740E+04  0.50400000000E-02 0.  1.
          1   -1    0    0  501    0  0.00000000000E+00 -0.00000000000E+00 -0.15815899851E+03  0.15815899859E+03  0.50400000000E-02 0. -1.
    8880023    1    1    2    0    0 -0.34841026785E+02  0.14137858019E+03  0.76917647235E+03  0.10230564266E+04  0.65864270000E+03 0. -1.
    8880022    1    1    2    0    0  0.34841026785E+02 -0.14137858019E+03  0.32588260316E+03  0.38832064604E+03  0.15294330000E+03 0.  1.
<mgrwt>
<rscale>  0 0.50456539E+03</rscale>
<asrwt>0</asrwt>
<pdfrwt beam="1">  1        1 0.24332154E-01 0.67454578E+03</pdfrwt>
<pdfrwt beam="2">  1       -1 0.19280278E+00 0.67454578E+03</pdfrwt>
<totfact> 0.35198841E+01</totfact>
</mgrwt>
</event>
<event>
 4    1  0.2514307E-008  0.1674529E+04  0.7818608E-02  0.8795314E-01
          1   -1    0    0  501    0  0.00000000000E+00  0.00000000000E+00  0.20491146022E+04  0.20491146022E+04  0.50400000000E-02 0. -1.
         -1   -1    0    0    0  501 -0.00000000000E+00 -0.00000000000E+00 -0.14394145716E+04  0.14394145716E+04  0.50400000000E-02 0.  1.
    8880023    1    1    2    0    0 -0.30680850873E+03 -0.15086769073E+04 -0.28904352343E+03  0.16992921575E+04  0.65864270000E+03 0.  0.
    8880022    1    1    2    0    0  0.30680850873E+03  0.15086769073E+04  0.89874355401E+03  0.17892370163E+04  0.15294330000E+03 0.  0.
<mgrwt>
<rscale>  0 0.16417296E+04</rscale>
<asrwt>0</asrwt>
<pdfrwt beam="1">  1        1 0.31524840E+00 0.16745291E+04</pdfrwt>
<pdfrwt beam="2">  1       -1 0.22144840E+00 0.16745291E+04</pdfrwt>
<totfact> 0.27512460E-01</totfact>
</mgrwt>
</event>
<event>
 4    1  0.2514307E-008  0.8573552E+03  0.7818608E-02  0.9598285E-01
         -1   -1    0    0    0  501 -0.00000000000E+00  0.00000000000E+00  0.46902582345E+03  0.46902582348E+03  0.50400000000E-02 0.  1.
          1   -1    0    0  501    0  0.00000000000E+00 -0.00000000000E+00 -0.16358893995E+04  0.16358893995E+04  0.50400000000E-02 0. -1.
    8880023    1    1    2    0    0  0.19695514442E+03 -0.51230497734E+03 -0.59318134004E+02  0.85940477425E+03  0.65864270000E+03 0.  0.
    8880022    1    1    2    0    0 -0.19695514442E+03  0.51230497734E+03 -0.11075454421E+04  0.12455104488E+04  0.15294330000E+03 0.  1.
<mgrwt>
<rscale>  0 0.77409763E+03</rscale>
<asrwt>0</asrwt>
<pdfrwt beam="1">  1        1 0.25167529E+00 0.85735519E+03</pdfrwt>
<pdfrwt beam="2">  1       -1 0.72157820E-01 0.85735519E+03</pdfrwt>
<totfact> 0.10467646E+01</totfact>
</mgrwt>
</event>
<event>
 4    1  0.2514307E-008  0.6982528E+03  0.7818608E-02  0.1000453E+00
         -1   -1    0    0    0  501 -0.00000000000E+00  0.00000000000E+00  0.34953222523E+03  0.34953222526E+03  0.50400000000E-02 0.  1.
          1   -1    0    0  501    0  0.00000000000E+00 -0.00000000000E+00 -0.14313788096E+04  0.14313788096E+04  0.50400000000E-02 0. -1.
    8880023    1    1    2    0    0  0.22711786466E+03 -0.46521878619E+02 -0.36400165394E+02  0.69920096392E+03  0.65864270000E+03 0.  0.
    8880022    1    1    2    0    0 -0.22711786466E+03  0.46521878619E+02 -0.10454464190E+04  0.10817100709E+04  0.15294330000E+03 0.  0.
<mgrwt>
<rscale>  0 0.55452152E+03</rscale>
<asrwt>0</asrwt>
<pdfrwt beam="1">  1        1 0.22021212E+00 0.69825283E+03</pdfrwt>
<pdfrwt beam="2">  1       -1 0.53774189E-01 0.69825283E+03</pdfrwt>
<totfact> 0.26482478E+01</totfact>
</mgrwt>
</event>
<event>
 4    1  0.2514307E-008  0.6693946E+03  0.7818608E-02  0.1016101E+00
          1   -1    0    0  501    0  0.00000000000E+00  0.00000000000E+00  0.39813077378E+03  0.39813077381E+03  0.50400000000E-02 0. -1.
         -1   -1    0    0    0  501 -0.00000000000E+00 -0.00000000000E+00 -0.83023696625E+03  0.83023696627E+03  0.50400000000E-02 0.  1.
    8880023    1    1    2    0    0  0.44253574621E+02 -0.11099777958E+03 -0.65242926882E+03  0.93474758252E+03  0.65864270000E+03 0.  0.
    8880022    1    1    2    0    0 -0.44253574621E+02  0.11099777958E+03  0.22032307635E+03  0.29362015756E+03  0.15294330000E+03 0. -1.
<mgrwt>
<rscale>  0 0.49120397E+03</rscale>
<asrwt>0</asrwt>
<pdfrwt beam="1">  1        1 0.61250889E-01 0.66939457E+03</pdfrwt>
<pdfrwt beam="2">  1       -1 0.12772876E+00 0.66939457E+03</pdfrwt>
<totfact> 0.32999956E+01</totfact>
</mgrwt>
</event>
<event>
 4    1  0.2514307E-008  0.1028191E+04  0.7818608E-02  0.9345570E-01
         -1   -1    0    0    0  501 -0.00000000000E+00  0.00000000000E+00  0.69735122929E+03  0.69735122931E+03  0.50400000000E-02 0.  1.
          1   -1    0    0  501    0  0.00000000000E+00 -0.00000000000E+00 -0.17397782546E+04  0.17397782546E+04  0.50400000000E-02 0. -1.
    8880023    1    1    2    0    0 -0.50667959106E+03  0.60550999234E+03  0.10759879054E+03  0.10338057191E+04  0.65864270000E+03 0.  1.
    8880022    1    1    2    0    0  0.50667959106E+03 -0.60550999234E+03 -0.11500258158E+04  0.14033237648E+04  0.15294330000E+03 0.  0.
<mgrwt>
<rscale>  0 0.96693682E+03</rscale>
<asrwt>0</asrwt>
<pdfrwt beam="1">  1        1 0.26765819E+00 0.10281910E+04</pdfrwt>
<pdfrwt beam="2">  1       -1 0.10728480E+00 0.10281910E+04</pdfrwt>
<totfact> 0.36399048E+00</totfact>
</mgrwt>
</event>
<event>
 4    1  0.2514307E-008  0.1200944E+04  0.7818608E-02  0.9156205E-01
         -1   -1    0    0    0  501 -0.00000000000E+00  0.00000000000E+00  0.16387249469E+04  0.16387249470E+04  0.50400000000E-02 0.  1.
          1   -1    0    0  501    0  0.00000000000E+00 -0.00000000000E+00 -0.17588142401E+04  0.17588142401E+04  0.50400000000E-02 0. -1.
    8880023    1    1    2    0    0  0.27272807083E+03  0.96647573951E+03  0.12226800698E+04  0.17138298384E+04  0.65864270000E+03 0.  1.
    8880022    1    1    2    0    0 -0.27272807083E+03 -0.96647573951E+03 -0.13427693629E+04  0.16837093486E+04  0.15294330000E+03 0.  0.
<mgrwt>
<rscale>  0 0.11517122E+04</rscale>
<asrwt>0</asrwt>
<pdfrwt beam="1">  1        1 0.27058681E+00 0.12009439E+04</pdfrwt>
<pdfrwt beam="2">  1       -1 0.25211153E+00 0.12009439E+04</pdfrwt>
<totfact> 0.28810599E-01</totfact>
</mgrwt>
</event>
<event>
 4    1  0.2514307E-008  0.1134380E+04  0.7818608E-02  0.9223710E-01
          1   -1    0    0  501    0  0.00000000000E+00  0.00000000000E+00  0.22557209347E+04  0.22557209347E+04  0.50400000000E-02 0. -1.
         -1   -1    0    0    0  501 -0.00000000000E+00 -0.00000000000E+00 -0.12464343526E+04  0.12464343526E+04  0.50400000000E-02 0.  1.
    8880023    1    1    2    0    0  0.35280678241E+03 -0.85354243110E+03 -0.85199708741E+03  0.14187024179E+04  0.65864270000E+03 0.  0.
    8880022    1    1    2    0    0 -0.35280678241E+03  0.85354243110E+03  0.18612836695E+04  0.20834528694E+04  0.15294330000E+03 0.  0.
<mgrwt>
<rscale>  0 0.10812014E+04</rscale>
<asrwt>0</asrwt>
<pdfrwt beam="1">  1        1 0.34703399E+00 0.11343798E+04</pdfrwt>
<pdfrwt beam="2">  1       -1 0.19175913E+00 0.11343798E+04</pdfrwt>
<totfact> 0.34049657E-01</totfact>
</mgrwt>
</event>
<event>
 4    1  0.2514307E-008  0.8697346E+03  0.7818608E-02  0.9576477E-01
         -1   -1    0    0    0  501 -0.00000000000E+00  0.00000000000E+00  0.61643394507E+03  0.61643394509E+03  0.50400000000E-02 0.  1.
          1   -1    0    0  501    0  0.00000000000E+00 -0.00000000000E+00 -0.19658577969E+04  0.19658577969E+04  0.50400000000E-02 0. -1.
    8880023    1    1    2    0    0  0.37047279867E+03 -0.43055544991E+03  0.22769334348E+03  0.89904535755E+03  0.65864270000E+03 0.  1.
    8880022    1    1    2    0    0 -0.37047279867E+03  0.43055544991E+03 -0.15771171953E+04  0.16832463845E+04  0.15294330000E+03 0.  0.
<mgrwt>
<rscale>  0 0.78872876E+03</rscale>
<asrwt>0</asrwt>
<pdfrwt beam="1">  1        1 0.30243966E+00 0.86973461E+03</pdfrwt>
<pdfrwt beam="2">  1       -1 0.94835992E-01 0.86973461E+03</pdfrwt>
<totfact> 0.34800311E+00</totfact>
</mgrwt>
</event>
<event>
 4    1  0.2514307E-008  0.9874229E+03  0.7818608E-02  0.9398200E-01
          1   -1    0    0  501    0  0.00000000000E+00  0.00000000000E+00  0.27578654763E+04  0.27578654763E+04  0.50400000000E-02 0. -1.
         -1   -1    0    0    0  501 -0.00000000000E+00 -0.00000000000E+00 -0.62641334542E+03  0.62641334544E+03  0.50400000000E-02 0.  1.
    8880023    1    1    2    0    0  0.60404408873E+03  0.41991007866E+03 -0.13491849847E+03  0.99659768351E+03  0.65864270000E+03 0.  1.
    8880022    1    1    2    0    0 -0.60404408873E+03 -0.41991007866E+03  0.22663706294E+04  0.23876811383E+04  0.15294330000E+03 0.  0.
<mgrwt>
<rscale>  0 0.92223923E+03</rscale>
<asrwt>0</asrwt>
<pdfrwt beam="1">  1        1 0.42428699E+00 0.98742288E+03</pdfrwt>
<pdfrwt beam="2">  1       -1 0.96371285E-01 0.98742288E+03</pdfrwt>
<totfact> 0.94927334E-01</totfact>
</mgrwt>
</event>
<event>
 4    1  0.2514307E-008  0.9749675E+03  0.7818608E-02  0.9415066E-01
          1   -1    0    0  501    0  0.00000000000E+00  0.00000000000E+00  0.10280957858E+04  0.10280957858E+04  0.50400000000E-02 0. -1.
         -1   -1    0    0    0  501 -0.00000000000E+00 -0.00000000000E+00 -0.91521242018E+03  0.91521242019E+03  0.50400000000E-02 0.  1.
    8880023    1    1    2    0    0 -0.71084381278E+03  0.10701655449E+03 -0.39288388472E+03  0.10511514745E+04  0.65864270000E+03 0.  0.
    8880022    1    1    2    0    0  0.71084381278E+03 -0.10701655449E+03  0.50576725032E+03  0.89215673153E+03  0.15294330000E+03 0.  0.
<mgrwt>
<rscale>  0 0.90846086E+03</rscale>
<asrwt>0</asrwt>
<pdfrwt beam="1">  1        1 0.15816858E+00 0.97496753E+03</pdfrwt>
<pdfrwt beam="2">  1       -1 0.14080191E+00 0.97496753E+03</pdfrwt>
<totfact> 0.59734953E+00</totfact>
</mgrwt>
</event>
<event>
 4    1  0.2514307E-008  0.6917838E+03  0.7818608E-02  0.1003316E+00
          1   -1    0    0  501    0  0.00000000000E+00  0.00000000000E+00  0.19634982614E+04  0.19634982614E+04  0.50400000000E-02 0. -1.
         -1   -1    0    0    0  501 -0.00000000000E+00 -0.00000000000E+00 -0.17302649718E+03  0.17302649725E+03  0.50400000000E-02 0.  1.
    8880023    1    1    2    0    0 -0.14782451340E+03  0.15133595571E+03  0.59371078338E+03  0.91162347425E+03  0.65864270000E+03 0.  1.
    8880022    1    1    2    0    0  0.14782451340E+03 -0.15133595571E+03  0.11967609809E+04  0.12249012844E+04  0.15294330000E+03 0.  0.
<mgrwt>
<rscale>  0 0.54219823E+03</rscale>
<asrwt>0</asrwt>
<pdfrwt beam="1">  1        1 0.30207665E+00 0.69178383E+03</pdfrwt>
<pdfrwt beam="2">  1       -1 0.26619461E-01 0.69178383E+03</pdfrwt>
<totfact> 0.41327926E+01</totfact>
</mgrwt>
</event>
<event>
 4    1  0.2514307E-008  0.1062484E+04  0.7818608E-02  0.9304022E-01
          1   -1    0    0  501    0  0.00000000000E+00  0.00000000000E+00  0.27855370916E+04  0.27855370916E+04  0.50400000000E-02 0. -1.
         -1   -1    0    0    0  501 -0.00000000000E+00 -0.00000000000E+00 -0.53744914206E+03  0.53744914208E+03  0.50400000000E-02 0.  1.
    8880023    1    1    2    0    0  0.74349097932E+03 -0.37720575205E+03  0.16651434191E+03  0.10754535081E+04  0.65864270000E+03 0.  0.
    8880022    1    1    2    0    0 -0.74349097932E+03  0.37720575205E+03  0.20815736076E+04  0.22475327256E+04  0.15294330000E+03 0.  0.
<mgrwt>
<rscale>  0 0.10041344E+04</rscale>
<asrwt>0</asrwt>
<pdfrwt beam="1">  1        1 0.42854417E+00 0.10624845E+04</pdfrwt>
<pdfrwt beam="2">  1       -1 0.82684483E-01 0.10624845E+04</pdfrwt>
<totfact> 0.12577790E+00</totfact>
</mgrwt>
</event>
<event>
 4    1  0.2514307E-008  0.1197362E+04  0.7818608E-02  0.9159691E-01
          1   -1    0    0  501    0  0.00000000000E+00  0.00000000000E+00  0.15674456559E+04  0.15674456559E+04  0.50400000000E-02 0. -1.
         -1   -1    0    0    0  501 -0.00000000000E+00 -0.00000000000E+00 -0.14986849077E+04  0.14986849077E+04  0.50400000000E-02 0.  1.
    8880023    1    1    2    0    0  0.22680296761E+03  0.97387170656E+03 -0.10251025185E+04  0.15762331892E+04  0.65864270000E+03 0.  1.
    8880022    1    1    2    0    0 -0.22680296761E+03 -0.97387170656E+03  0.10938632667E+04  0.14898973744E+04  0.15294330000E+03 0.  0.
<mgrwt>
<rscale>  0 0.11479348E+04</rscale>
<asrwt>0</asrwt>
<pdfrwt beam="1">  1        1 0.24114549E+00 0.11973621E+04</pdfrwt>
<pdfrwt beam="2">  1       -1 0.23056691E+00 0.11973621E+04</pdfrwt>
<totfact> 0.53924690E-01</totfact>
</mgrwt>
</event>
<event>
 4    1  0.2514307E-008  0.9638003E+03  0.7818608E-02  0.9430530E-01
          1   -1    0    0  501    0  0.00000000000E+00  0.00000000000E+00  0.10452721046E+04  0.10452721046E+04  0.50400000000E-02 0. -1.
         -1   -1    0    0    0  501 -0.00000000000E+00 -0.00000000000E+00 -0.85066925158E+03  0.85066925160E+03  0.50400000000E-02 0.  1.
    8880023    1    1    2    0    0  0.35244837629E+03  0.60899991590E+03  0.53185767897E+03  0.11008104071E+04  0.65864270000E+03 0.  0.
    8880022    1    1    2    0    0 -0.35244837629E+03 -0.60899991590E+03 -0.33725482595E+03  0.79513094907E+03  0.15294330000E+03 0.  0.
<mgrwt>
<rscale>  0 0.89605173E+03</rscale>
<asrwt>0</asrwt>
<pdfrwt beam="1">  1        1 0.16081109E+00 0.96380027E+03</pdfrwt>
<pdfrwt beam="2">  1       -1 0.13087219E+00 0.96380027E+03</pdfrwt>
<totfact> 0.70049823E+00</totfact>
</mgrwt>
</event>
<event>
 4    1  0.2514307E-008  0.1642332E+04  0.7818608E-02  0.8815164E-01
         -1   -1    0    0    0  501 -0.00000000000E+00  0.00000000000E+00  0.96934021589E+03  0.96934021590E+03  0.50400000000E-02 0.  1.
          1   -1    0    0  501    0  0.00000000000E+00 -0.00000000000E+00 -0.32007282681E+04  0.32007282681E+04  0.50400000000E-02 0. -1.
    8880023    1    1    2    0    0  0.13609654389E+04 -0.64126318707E+03 -0.22509015491E+03  0.16576854904E+04  0.65864270000E+03 0.  0.
    8880022    1    1    2    0    0 -0.13609654389E+04  0.64126318707E+03 -0.20062978973E+04  0.25123829936E+04  0.15294330000E+03 0.  0.
<mgrwt>
<rscale>  0 0.16087931E+04</rscale>
<asrwt>0</asrwt>
<pdfrwt beam="1">  1        1 0.49241973E+00 0.16423324E+04</pdfrwt>
<pdfrwt beam="2">  1       -1 0.14912927E+00 0.16423324E+04</pdfrwt>
<totfact> 0.14101225E-01</totfact>
</mgrwt>
</event>
<event>
 4    1  0.2514307E-008  0.9492105E+03  0.7818608E-02  0.9451251E-01
          1   -1    0    0  501    0  0.00000000000E+00  0.00000000000E+00  0.12464622046E+04  0.12464622046E+04  0.50400000000E-02 0. -1.
         -1   -1    0    0    0  501 -0.00000000000E+00 -0.00000000000E+00 -0.57555325438E+03  0.57555325440E+03  0.50400000000E-02 0.  1.
    8880023    1    1    2    0    0  0.40472448069E+03 -0.55080708964E+03  0.58832428076E+03  0.11167479666E+04  0.65864270000E+03 0. -1.
    8880022    1    1    2    0    0 -0.40472448069E+03  0.55080708964E+03  0.82584669477E+02  0.70526749245E+03  0.15294330000E+03 0.  0.
<mgrwt>
<rscale>  0 0.87975319E+03</rscale>
<asrwt>0</asrwt>
<pdfrwt beam="1">  1        1 0.19176341E+00 0.94921049E+03</pdfrwt>
<pdfrwt beam="2">  1       -1 0.88546656E-01 0.94921049E+03</pdfrwt>
<totfact> 0.12491353E+01</totfact>
</mgrwt>
</event>
<event>
 4    1  0.2514307E-008  0.2048456E+04  0.7818608E-02  0.8596279E-01
          1   -1    0    0  501    0  0.00000000000E+00  0.00000000000E+00  0.24992195963E+04  0.24992195963E+04  0.50400000000E-02 0. -1.
         -1   -1    0    0    0  501 -0.00000000000E+00 -0.00000000000E+00 -0.18807670184E+04  0.18807670184E+04  0.50400000000E-02 0.  1.
    8880023    1    1    2    0    0  0.17141075112E+04  0.90785362704E+03  0.11681525651E+04  0.23581249733E+04  0.65864270000E+03 0.  0.
    8880022    1    1    2    0    0 -0.17141075112E+04 -0.90785362704E+03 -0.54969998713E+03  0.20218616414E+04  0.15294330000E+03 0.  0.
<mgrwt>
<rscale>  0 0.20222697E+04</rscale>
<asrwt>0</asrwt>
<pdfrwt beam="1">  1        1 0.38449532E+00 0.20484562E+04</pdfrwt>
<pdfrwt beam="2">  1       -1 0.28934877E+00 0.20484562E+04</pdfrwt>
<totfact> 0.46437071E-02</totfact>
</mgrwt>
</event>
<event>
 4    1  0.2514307E-008  0.7738509E+03  0.7818608E-02  0.9770485E-01
         -1   -1    0    0    0  501 -0.00000000000E+00  0.00000000000E+00  0.61499821244E+03  0.61499821246E+03  0.50400000000E-02 0.  1.
          1   -1    0    0  501    0  0.00000000000E+00 -0.00000000000E+00 -0.71025094539E+03  0.71025094541E+03  0.50400000000E-02 0. -1.
    8880023    1    1    2    0    0  0.31956834515E+03  0.25082077456E+03  0.20122124016E+03  0.79958438074E+03  0.65864270000E+03 0.  1.
    8880022    1    1    2    0    0 -0.31956834515E+03 -0.25082077456E+03 -0.29647397310E+03  0.52566477713E+03  0.15294330000E+03 0.  0.
<mgrwt>
<rscale>  0 0.66970841E+03</rscale>
<asrwt>0</asrwt>
<pdfrwt beam="1">  1        1 0.10926938E+00 0.77385089E+03</pdfrwt>
<pdfrwt beam="2">  1       -1 0.94615110E-01 0.77385089E+03</pdfrwt>
<totfact> 0.29442614E+01</totfact>
</mgrwt>
</event>
<event>
 4    1  0.2514307E-008  0.1277576E+04  0.7818608E-02  0.9085171E-01
          1   -1    0    0  501    0  0.00000000000E+00  0.00000000000E+00  0.15168687328E+04  0.15168687328E+04  0.50400000000E-02 0. -1.
         -1   -1    0    0    0  501 -0.00000000000E+00 -0.00000000000E+00 -0.13543536158E+04  0.13543536158E+04  0.50400000000E-02 0.  1.
    8880023    1    1    2    0    0 -0.96960034839E+03 -0.50819717600E+03 -0.71126674676E+03  0.14622242634E+04  0.65864270000E+03 0.  0.
    8880022    1    1    2    0    0  0.96960034839E+03  0.50819717600E+03  0.87378186376E+03  0.14089980851E+04  0.15294330000E+03 0.  0.
<mgrwt>
<rscale>  0 0.12321515E+04</rscale>
<asrwt>0</asrwt>
<pdfrwt beam="1">  1        1 0.23336442E+00 0.12775756E+04</pdfrwt>
<pdfrwt beam="2">  1       -1 0.20836209E+00 0.12775756E+04</pdfrwt>
<totfact> 0.81514337E-01</totfact>
</mgrwt>
</event>
<event>
 4    1  0.2514307E-008  0.6677238E+03  0.7818608E-02  0.1017350E+00
         -1   -1    0    0    0  501 -0.00000000000E+00  0.00000000000E+00  0.21396391826E+03  0.21396391832E+03  0.50400000000E-02 0.  1.
          1   -1    0    0  501    0  0.00000000000E+00 -0.00000000000E+00 -0.17776259320E+04  0.17776259320E+04  0.50400000000E-02 0. -1.
    8880023    1    1    2    0    0 -0.17467542394E+01 -0.10973548478E+03 -0.33215082505E+03  0.74577429871E+03  0.65864270000E+03 0.  1.
    8880022    1    1    2    0    0  0.17467542394E+01  0.10973548478E+03 -0.12315111887E+04  0.12458155516E+04  0.15294330000E+03 0.  0.
<mgrwt>
<rscale>  0 0.48655186E+03</rscale>
<asrwt>0</asrwt>
<pdfrwt beam="1">  1        1 0.27348090E+00 0.66772385E+03</pdfrwt>
<pdfrwt beam="2">  1       -1 0.32917527E-01 0.66772385E+03</pdfrwt>
<totfact> 0.38143077E+01</totfact>
</mgrwt>
</event>
<event>
 4    1  0.2514307E-008  0.1267655E+04  0.7818608E-02  0.9094008E-01
          1   -1    0    0  501    0  0.00000000000E+00  0.00000000000E+00  0.24810904048E+04  0.24810904048E+04  0.50400000000E-02 0. -1.
         -1   -1    0    0    0  501 -0.00000000000E+00 -0.00000000000E+00 -0.19919439624E+04  0.19919439624E+04  0.50400000000E-02 0.  1.
    8880023    1    1    2    0    0  0.10731416842E+04  0.14664502180E+03 -0.16438805245E+04  0.20758832390E+04  0.65864270000E+03 0.  0.
    8880022    1    1    2    0    0 -0.10731416842E+04 -0.14664502180E+03  0.21330269669E+04  0.23971511282E+04  0.15294330000E+03 0.  0.
<mgrwt>
<rscale>  0 0.12217747E+04</rscale>
<asrwt>0</asrwt>
<pdfrwt beam="1">  1        1 0.38170622E+00 0.12676545E+04</pdfrwt>
<pdfrwt beam="2">  1       -1 0.30645292E+00 0.12676545E+04</pdfrwt>
<totfact> 0.40963410E-02</totfact>
</mgrwt>
</event>
<event>
 4    1  0.2514307E-008  0.7199361E+03  0.7818608E-02  0.9922802E-01
          1   -1    0    0  501    0  0.00000000000E+00  0.00000000000E+00  0.10973109216E+04  0.10973109216E+04  0.50400000000E-02 0. -1.
         -1   -1    0    0    0  501 -0.00000000000E+00 -0.00000000000E+00 -0.47984305372E+03  0.47984305375E+03  0.50400000000E-02 0.  1.
    8880023    1    1    2    0    0 -0.23822459848E+03  0.16657390005E+03 -0.15616571629E+03  0.73667887217E+03  0.65864270000E+03 0.  1.
    8880022    1    1    2    0    0  0.23822459848E+03 -0.16657390005E+03  0.77363358416E+03  0.84047510318E+03  0.15294330000E+03 0.  0.
<mgrwt>
<rscale>  0 0.59168814E+03</rscale>
<asrwt>0</asrwt>
<pdfrwt beam="1">  1        1 0.16881706E+00 0.71993613E+03</pdfrwt>
<pdfrwt beam="2">  1       -1 0.73822010E-01 0.71993613E+03</pdfrwt>
<totfact> 0.24312839E+01</totfact>
</mgrwt>
</event>
<event>
 4    1  0.2514307E-008  0.7915959E+03  0.7818608E-02  0.9729271E-01
          1   -1    0    0  501    0  0.00000000000E+00  0.00000000000E+00  0.22331537408E+04  0.22331537408E+04  0.50400000000E-02 0. -1.
         -1   -1    0    0    0  501 -0.00000000000E+00 -0.00000000000E+00 -0.40920331582E+03  0.40920331585E+03  0.50400000000E-02 0.  1.
    8880023    1    1    2    0    0  0.43034402974E+03 -0.87280186732E+02  0.33273263673E+02  0.79229485122E+03  0.65864270000E+03 0.  0.
    8880022    1    1    2    0    0 -0.43034402974E+03  0.87280186732E+02  0.17906771613E+04  0.18500622055E+04  0.15294330000E+03 0. -1.
<mgrwt>
<rscale>  0 0.69300437E+03</rscale>
<asrwt>0</asrwt>
<pdfrwt beam="1">  1        1 0.34356212E+00 0.79159587E+03</pdfrwt>
<pdfrwt beam="2">  1       -1 0.62954355E-01 0.79159587E+03</pdfrwt>
<totfact> 0.55351025E+00</totfact>
</mgrwt>
</event>
<event>
 4    1  0.2514307E-008  0.6719550E+03  0.7818608E-02  0.1014298E+00
          1   -1    0    0  501    0  0.00000000000E+00  0.00000000000E+00  0.14243782386E+04  0.14243782386E+04  0.50400000000E-02 0. -1.
         -1   -1    0    0    0  501 -0.00000000000E+00 -0.00000000000E+00 -0.32053157153E+03  0.32053157157E+03  0.50400000000E-02 0.  1.
    8880023    1    1    2    0    0  0.16825404056E+02  0.13202370653E+03  0.52289843298E+02  0.67398648895E+03  0.65864270000E+03 0.  1.
    8880022    1    1    2    0    0 -0.16825404056E+02 -0.13202370653E+03  0.10515568238E+04  0.10709233212E+04  0.15294330000E+03 0.  0.
<mgrwt>
<rscale>  0 0.49801451E+03</rscale>
<asrwt>0</asrwt>
<pdfrwt beam="1">  1        1 0.21913511E+00 0.67195503E+03</pdfrwt>
<pdfrwt beam="2">  1       -1 0.49312550E-01 0.67195503E+03</pdfrwt>
<totfact> 0.31686375E+01</totfact>
</mgrwt>
</event>
<event>
 4    1  0.3045615E-008  0.1943706E+04  0.7818608E-02  0.8646950E-01
          1   -1    0    0  501    0  0.00000000000E+00  0.00000000000E+00  0.25416200295E+04  0.25416200295E+04  0.50400000000E-02 0. -1.
         -1   -1    0    0    0  501 -0.00000000000E+00 -0.00000000000E+00 -0.27182790497E+04  0.27182790497E+04  0.50400000000E-02 0.  1.
    8880023    1    1    2    0    0  0.16938603454E+04 -0.68921685937E+03 -0.19175750372E+04  0.27304005162E+04  0.65864270000E+03 0.  0.
    8880022    1    1    2    0    0 -0.16938603454E+04  0.68921685937E+03  0.17409160171E+04  0.25294985630E+04  0.15294330000E+03 0.  0.
<mgrwt>
<rscale>  0 0.19159650E+04</rscale>
<asrwt>0</asrwt>
<pdfrwt beam="1">  1        1 0.39101846E+00 0.19437060E+04</pdfrwt>
<pdfrwt beam="2">  1       -1 0.41819678E+00 0.19437060E+04</pdfrwt>
<totfact> 0.60362118E-03</totfact>
</mgrwt>
</event>
<event>
 4    1  0.2514307E-008  0.8082628E+03  0.7818608E-02  0.9693207E-01
         -1   -1    0    0    0  501 -0.00000000000E+00  0.00000000000E+00  0.82701472609E+03  0.82701472611E+03  0.50400000000E-02 0.  1.
          1   -1    0    0  501    0  0.00000000000E+00 -0.00000000000E+00 -0.63255441518E+03  0.63255441520E+03  0.50400000000E-02 0. -1.
    8880023    1    1    2    0    0  0.41300861682E+03  0.22113908230E+03  0.42758268199E+03  0.91439366112E+03  0.65864270000E+03 0.  1.
    8880022    1    1    2    0    0 -0.41300861682E+03 -0.22113908230E+03 -0.23312237109E+03  0.54517548019E+03  0.15294330000E+03 0.  0.
<mgrwt>
<rscale>  0 0.71422698E+03</rscale>
<asrwt>0</asrwt>
<pdfrwt beam="1">  1        1 0.97316065E-01 0.80826284E+03</pdfrwt>
<pdfrwt beam="2">  1       -1 0.12723303E+00 0.80826284E+03</pdfrwt>
<totfact> 0.17327217E+01</totfact>
</mgrwt>
</event>
<event>
 4    1  0.2514307E-008  0.1473804E+04  0.7818608E-02  0.8928359E-01
         -1   -1    0    0    0  501 -0.00000000000E+00  0.00000000000E+00  0.13410412882E+04  0.13410412882E+04  0.50400000000E-02 0.  1.
          1   -1    0    0  501    0  0.00000000000E+00 -0.00000000000E+00 -0.24526812079E+04  0.24526812079E+04  0.50400000000E-02 0. -1.
    8880023    1    1    2    0    0 -0.90454817649E+03 -0.95920803349E+03  0.63098163028E+03  0.16031953964E+04  0.65864270000E+03 0.  0.
    8880022    1    1    2    0    0  0.90454817649E+03  0.95920803349E+03 -0.17426215499E+04  0.21905270997E+04  0.15294330000E+03 0.  0.
<mgrwt>
<rscale>  0 0.14357228E+04</rscale>
<asrwt>0</asrwt>
<pdfrwt beam="1">  1        1 0.37733557E+00 0.14738038E+04</pdfrwt>
<pdfrwt beam="2">  1       -1 0.20631404E+00 0.14738038E+04</pdfrwt>
<totfact> 0.18868494E-01</totfact>
</mgrwt>
</event>
<event>
 4    1  0.2514307E-008  0.6704145E+03  0.7818608E-02  0.1015367E+00
         -1   -1    0    0    0  501 -0.00000000000E+00  0.00000000000E+00  0.50366252977E+03  0.50366252980E+03  0.50400000000E-02 0.  1.
          1   -1    0    0  501    0  0.00000000000E+00 -0.00000000000E+00 -0.11846538321E+04  0.11846538321E+04  0.50400000000E-02 0. -1.
    8880023    1    1    2    0    0 -0.99842221594E+02 -0.75344936751E+02  0.26576003879E+03  0.72116844994E+03  0.65864270000E+03 0.  1.
    8880022    1    1    2    0    0  0.99842221594E+02  0.75344936751E+02 -0.94675134109E+03  0.96714791194E+03  0.15294330000E+03 0.  0.
<mgrwt>
<rscale>  0 0.49396031E+03</rscale>
<asrwt>0</asrwt>
<pdfrwt beam="1">  1        1 0.18225443E+00 0.67041445E+03</pdfrwt>
<pdfrwt beam="2">  1       -1 0.77486544E-01 0.67041445E+03</pdfrwt>
<totfact> 0.19081581E+01</totfact>
</mgrwt>
</event>
<event>
 4    1  0.2514307E-008  0.8207932E+03  0.7818608E-02  0.9667519E-01
         -1   -1    0    0    0  501 -0.00000000000E+00  0.00000000000E+00  0.17717507026E+04  0.17717507026E+04  0.50400000000E-02 0.  1.
          1   -1    0    0  501    0  0.00000000000E+00 -0.00000000000E+00 -0.71440993006E+03  0.71440993008E+03  0.50400000000E-02 0. -1.
    8880023    1    1    2    0    0  0.39876790740E+03 -0.28438618558E+03  0.15632220664E+04  0.17656060664E+04  0.65864270000E+03 0.  1.
    8880022    1    1    2    0    0 -0.39876790740E+03  0.28438618558E+03 -0.50588129386E+03  0.72055456630E+03  0.15294330000E+03 0.  0.
<mgrwt>
<rscale>  0 0.72984088E+03</rscale>
<asrwt>0</asrwt>
<pdfrwt beam="1">  1        1 0.10990922E+00 0.82079325E+03</pdfrwt>
<pdfrwt beam="2">  1       -1 0.27257703E+00 0.82079325E+03</pdfrwt>
<totfact> 0.13630086E+00</totfact>
</mgrwt>
</event>
<event>
 4    1  0.2514307E-008  0.7698326E+03  0.7818608E-02  0.9780286E-01
          1   -1    0    0  501    0  0.00000000000E+00  0.00000000000E+00  0.14555801650E+04  0.14555801651E+04  0.50400000000E-02 0. -1.
         -1   -1    0    0    0  501 -0.00000000000E+00 -0.00000000000E+00 -0.59501433551E+03  0.59501433553E+03  0.50400000000E-02 0.  1.
    8880023    1    1    2    0    0 -0.25240585900E+03  0.30842070899E+03 -0.29058025282E+03  0.82284818830E+03  0.65864270000E+03 0.  0.
    8880022    1    1    2    0    0  0.25240585900E+03 -0.30842070899E+03  0.11511460824E+04  0.12277463123E+04  0.15294330000E+03 0.  0.
<mgrwt>
<rscale>  0 0.66431314E+03</rscale>
<asrwt>0</asrwt>
<pdfrwt beam="1">  1        1 0.22393541E+00 0.76983262E+03</pdfrwt>
<pdfrwt beam="2">  1       -1 0.91540669E-01 0.76983262E+03</pdfrwt>
<totfact> 0.84623406E+00</totfact>
</mgrwt>
</event>
<event>
 4    1  0.2514307E-008  0.6907348E+03  0.7818608E-02  0.1003805E+00
         -1   -1    0    0    0  501 -0.00000000000E+00  0.00000000000E+00  0.60592515382E+03  0.60592515384E+03  0.50400000000E-02 0.  1.
          1   -1    0    0  501    0  0.00000000000E+00 -0.00000000000E+00 -0.25101314177E+04  0.25101314177E+04  0.50400000000E-02 0. -1.
    8880023    1    1    2    0    0  0.94950609144E+02  0.18517201879E+03  0.39948369594E+03  0.79793591491E+03  0.65864270000E+03 0.  1.
    8880022    1    1    2    0    0 -0.94950609144E+02 -0.18517201879E+03 -0.23036899598E+04  0.23181206566E+04  0.15294330000E+03 0.  0.
<mgrwt>
<rscale>  0 0.54012703E+03</rscale>
<asrwt>0</asrwt>
<pdfrwt beam="1">  1        1 0.38617406E+00 0.69073475E+03</pdfrwt>
<pdfrwt beam="2">  1       -1 0.93219255E-01 0.69073475E+03</pdfrwt>
<totfact> 0.16073393E+00</totfact>
</mgrwt>
</event>
<event>
 4    1  0.2596739E-008  0.9961320E+03  0.7818608E-02  0.9386636E-01
          1   -1    0    0  501    0  0.00000000000E+00  0.00000000000E+00  0.15256646941E+04  0.15256646941E+04  0.50400000000E-02 0. -1.
         -1   -1    0    0    0  501 -0.00000000000E+00 -0.00000000000E+00 -0.22585144830E+04  0.22585144830E+04  0.50400000000E-02 0.  1.
    8880023    1    1    2    0    0 -0.74697963362E+03  0.22139456960E+02 -0.20402968198E+04  0.22704823382E+04  0.65864270000E+03 0.  1.
    8880022    1    1    2    0    0  0.74697963362E+03 -0.22139456960E+02  0.13074470310E+04  0.15136968390E+04  0.15294330000E+03 0.  0.
<mgrwt>
<rscale>  0 0.93183713E+03</rscale>
<asrwt>0</asrwt>
<pdfrwt beam="1">  1        1 0.23471765E+00 0.99613199E+03</pdfrwt>
<pdfrwt beam="2">  1       -1 0.34746377E+00 0.99613199E+03</pdfrwt>
<totfact> 0.10388158E-01</totfact>
</mgrwt>
</event>
<event>
 4    1  0.2514307E-008  0.1822320E+04  0.7818608E-02  0.8710289E-01
          1   -1    0    0  501    0  0.00000000000E+00  0.00000000000E+00  0.23418462388E+04  0.23418462388E+04  0.50400000000E-02 0. -1.
         -1   -1    0    0    0  501 -0.00000000000E+00 -0.00000000000E+00 -0.15986220768E+04  0.15986220768E+04  0.50400000000E-02 0.  1.
    8880023    1    1    2    0    0  0.71749047855E+03  0.15402105469E+04 -0.42701036347E+03  0.18716808415E+04  0.65864270000E+03 0.  0.
    8880022    1    1    2    0    0 -0.71749047855E+03 -0.15402105469E+04  0.11702345254E+04  0.20687874741E+04  0.15294330000E+03 0.  0.
<mgrwt>
<rscale>  0 0.17925168E+04</rscale>
<asrwt>0</asrwt>
<pdfrwt beam="1">  1        1 0.36028404E+00 0.18223203E+04</pdfrwt>
<pdfrwt beam="2">  1       -1 0.24594186E+00 0.18223203E+04</pdfrwt>
<totfact> 0.11735022E-01</totfact>
</mgrwt>
</event>
<event>
 4    1  0.2514307E-008  0.8921440E+03  0.7818608E-02  0.9538763E-01
          1   -1    0    0  501    0  0.00000000000E+00  0.00000000000E+00  0.12201674306E+04  0.12201674306E+04  0.50400000000E-02 0. -1.
         -1   -1    0    0    0  501 -0.00000000000E+00 -0.00000000000E+00 -0.58695126495E+03  0.58695126497E+03  0.50400000000E-02 0.  1.
    8880023    1    1    2    0    0  0.36656719219E+03 -0.47722028736E+03 -0.37764442322E+02  0.89294292563E+03  0.65864270000E+03 0.  0.
    8880022    1    1    2    0    0 -0.36656719219E+03  0.47722028736E+03  0.67098060794E+03  0.91417576992E+03  0.15294330000E+03 0.  0.
<mgrwt>
<rscale>  0 0.81485362E+03</rscale>
<asrwt>0</asrwt>
<pdfrwt beam="1">  1        1 0.18771807E+00 0.89214400E+03</pdfrwt>
<pdfrwt beam="2">  1       -1 0.90300195E-01 0.89214400E+03</pdfrwt>
<totfact> 0.12576682E+01</totfact>
</mgrwt>
</event>
<event>
 4    1  0.2514307E-008  0.6823075E+03  0.7818608E-02  0.1008047E+00
         -1   -1    0    0    0  501 -0.00000000000E+00  0.00000000000E+00  0.23966949204E+03  0.23966949209E+03  0.50400000000E-02 0.  1.
          1   -1    0    0  501    0  0.00000000000E+00 -0.00000000000E+00 -0.22307479445E+04  0.22307479445E+04  0.50400000000E-02 0. -1.
    8880023    1    1    2    0    0 -0.15263451912E+03 -0.91847957958E+02 -0.27062488364E+03  0.73401728707E+03  0.65864270000E+03 0.  1.
    8880022    1    1    2    0    0  0.15263451912E+03  0.91847957958E+02 -0.17204535688E+04  0.17364001495E+04  0.15294330000E+03 0.  0.
<mgrwt>
<rscale>  0 0.52258109E+03</rscale>
<asrwt>0</asrwt>
<pdfrwt beam="1">  1        1 0.34319198E+00 0.68230752E+03</pdfrwt>
<pdfrwt beam="2">  1       -1 0.36872231E-01 0.68230752E+03</pdfrwt>
<totfact> 0.15503310E+01</totfact>
</mgrwt>
</event>
<event>
 4    1  0.2514307E-008  0.1048294E+04  0.7818608E-02  0.9320935E-01
         -1   -1    0    0    0  501 -0.00000000000E+00  0.00000000000E+00  0.10156452718E+04  0.10156452718E+04  0.50400000000E-02 0.  1.
          1   -1    0    0  501    0  0.00000000000E+00 -0.00000000000E+00 -0.12465424246E+04  0.12465424246E+04  0.50400000000E-02 0. -1.
    8880023    1    1    2    0    0  0.81549556304E+03 -0.87833057914E+01  0.49540195372E+03  0.11594582622E+04  0.65864270000E+03 0.  0.
    8880022    1    1    2    0    0 -0.81549556304E+03  0.87833057914E+01 -0.72629910658E+03  0.11027294342E+04  0.15294330000E+03 0.  0.
<mgrwt>
<rscale>  0 0.98878181E+03</rscale>
<asrwt>0</asrwt>
<pdfrwt beam="1">  1        1 0.19177576E+00 0.10482940E+04</pdfrwt>
<pdfrwt beam="2">  1       -1 0.15625312E+00 0.10482940E+04</pdfrwt>
<totfact> 0.30779221E+00</totfact>
</mgrwt>
</event>
<event>
 4    1  0.2514307E-008  0.1218670E+04  0.7818608E-02  0.9139184E-01
         -1   -1    0    0    0  501 -0.00000000000E+00  0.00000000000E+00  0.26698378004E+04  0.26698378004E+04  0.50400000000E-02 0.  1.
          1   -1    0    0  501    0  0.00000000000E+00 -0.00000000000E+00 -0.83862152645E+03  0.83862152647E+03  0.50400000000E-02 0. -1.
    8880023    1    1    2    0    0  0.98713579280E+03 -0.27732620022E+03  0.21084746903E+04  0.24353280314E+04  0.65864270000E+03 0.  0.
    8880022    1    1    2    0    0 -0.98713579280E+03  0.27732620022E+03 -0.27725841637E+03  0.10731312954E+04  0.15294330000E+03 0.  0.
<mgrwt>
<rscale>  0 0.11703816E+04</rscale>
<asrwt>0</asrwt>
<pdfrwt beam="1">  1        1 0.12901869E+00 0.12186702E+04</pdfrwt>
<pdfrwt beam="2">  1       -1 0.41074428E+00 0.12186702E+04</pdfrwt>
<totfact> 0.12251004E-01</totfact>
</mgrwt>
</event>
<event>
 4    1  0.2514307E-008  0.9555456E+03  0.7818608E-02  0.9442180E-01
          1   -1    0    0  501    0  0.00000000000E+00  0.00000000000E+00  0.19187884489E+04  0.19187884489E+04  0.50400000000E-02 0. -1.
         -1   -1    0    0    0  501 -0.00000000000E+00 -0.00000000000E+00 -0.81910677540E+03  0.81910677542E+03  0.50400000000E-02 0.  1.
    8880023    1    1    2    0    0 -0.18204661979E+03  0.66791932257E+03 -0.43307958950E+03  0.10491069204E+04  0.65864270000E+03 0.  0.
    8880022    1    1    2    0    0  0.18204661979E+03 -0.66791932257E+03  0.15327612630E+04  0.16887883039E+04  0.15294330000E+03 0.  0.
<mgrwt>
<rscale>  0 0.88684281E+03</rscale>
<asrwt>0</asrwt>
<pdfrwt beam="1">  1        1 0.29519822E+00 0.95554560E+03</pdfrwt>
<pdfrwt beam="2">  1       -1 0.12601643E+00 0.95554560E+03</pdfrwt>
<totfact> 0.18863193E+00</totfact>
</mgrwt>
</event>
<event>
 4    1  0.2514307E-008  0.6999028E+03  0.7818608E-02  0.9997605E-01
          1   -1    0    0  501    0  0.00000000000E+00  0.00000000000E+00  0.78764536825E+03  0.78764536827E+03  0.50400000000E-02 0. -1.
         -1   -1    0    0    0  501 -0.00000000000E+00 -0.00000000000E+00 -0.59861867250E+03  0.59861867252E+03  0.50400000000E-02 0.  1.
    8880023    1    1    2    0    0  0.20262740859E+03 -0.12245770387E+03 -0.34658535179E+03  0.78101560054E+03  0.65864270000E+03 0.  1.
    8880022    1    1    2    0    0 -0.20262740859E+03  0.12245770387E+03  0.53561204754E+03  0.60524844025E+03  0.15294330000E+03 0.  0.
<mgrwt>
<rscale>  0 0.55755397E+03</rscale>
<asrwt>0</asrwt>
<pdfrwt beam="1">  1        1 0.12117621E+00 0.69990282E+03</pdfrwt>
<pdfrwt beam="2">  1       -1 0.92095181E-01 0.69990282E+03</pdfrwt>
<totfact> 0.26845917E+01</totfact>
</mgrwt>
</event>
<event>
 4    1  0.2514307E-008  0.1268290E+04  0.7818608E-02  0.9093439E-01
          1   -1    0    0  501    0  0.00000000000E+00  0.00000000000E+00  0.12344246435E+04  0.12344246436E+04  0.50400000000E-02 0. -1.
         -1   -1    0    0    0  501 -0.00000000000E+00 -0.00000000000E+00 -0.27681826768E+04  0.27681826768E+04  0.50400000000E-02 0.  1.
    8880023    1    1    2    0    0  0.50703526874E+02 -0.10826716977E+04 -0.23274212845E+04  0.26505563368E+04  0.65864270000E+03 0.  0.
    8880022    1    1    2    0    0 -0.50703526874E+02  0.10826716977E+04  0.79366325126E+03  0.13520509836E+04  0.15294330000E+03 0.  0.
<mgrwt>
<rscale>  0 0.12224394E+04</rscale>
<asrwt>0</asrwt>
<pdfrwt beam="1">  1        1 0.18991148E+00 0.12682898E+04</pdfrwt>
<pdfrwt beam="2">  1       -1 0.42587426E+00 0.12682898E+04</pdfrwt>
<totfact> 0.46965318E-02</totfact>
</mgrwt>
</event>
<event>
 4    1  0.2514307E-008  0.8386336E+03  0.7818608E-02  0.9632762E-01
          1   -1    0    0  501    0  0.00000000000E+00  0.00000000000E+00  0.85855841203E+03  0.85855841205E+03  0.50400000000E-02 0. -1.
         -1   -1    0    0    0  501 -0.00000000000E+00 -0.00000000000E+00 -0.65664468634E+03  0.65664468636E+03  0.50400000000E-02 0.  1.
    8880023    1    1    2    0    0  0.58032306634E+02 -0.51587627160E+03 -0.17370418896E+03  0.85643413508E+03  0.65864270000E+03 0.  0.
    8880022    1    1    2    0    0 -0.58032306634E+02  0.51587627160E+03  0.37561791466E+03  0.65876896332E+03  0.15294330000E+03 0.  0.
<mgrwt>
<rscale>  0 0.75165203E+03</rscale>
<asrwt>0</asrwt>
<pdfrwt beam="1">  1        1 0.13208591E+00 0.83863358E+03</pdfrwt>
<pdfrwt beam="2">  1       -1 0.10102226E+00 0.83863358E+03</pdfrwt>
<totfact> 0.18672735E+01</totfact>
</mgrwt>
</event>
<event>
 4    1  0.2514307E-008  0.1141372E+04  0.7818608E-02  0.9216333E-01
          1   -1    0    0  501    0  0.00000000000E+00  0.00000000000E+00  0.21979080254E+04  0.21979080254E+04  0.50400000000E-02 0. -1.
         -1   -1    0    0    0  501 -0.00000000000E+00 -0.00000000000E+00 -0.74520174310E+03  0.74520174311E+03  0.50400000000E-02 0.  1.
    8880023    1    1    2    0    0  0.36275540538E+03  0.85867871557E+03 -0.78392412754E+02  0.11440612734E+04  0.65864270000E+03 0.  1.
    8880022    1    1    2    0    0 -0.36275540538E+03 -0.85867871557E+03  0.15310986951E+04  0.17990484951E+04  0.15294330000E+03 0.  0.
<mgrwt>
<rscale>  0 0.10886421E+04</rscale>
<asrwt>0</asrwt>
<pdfrwt beam="1">  1        1 0.33813970E+00 0.11413723E+04</pdfrwt>
<pdfrwt beam="2">  1       -1 0.11464642E+00 0.11413723E+04</pdfrwt>
<totfact> 0.15020583E+00</totfact>
</mgrwt>
</event>
<event>
 4    1  0.2514307E-008  0.9016183E+03  0.7818608E-02  0.9523439E-01
          1   -1    0    0  501    0  0.00000000000E+00  0.00000000000E+00  0.78725668538E+03  0.78725668540E+03  0.50400000000E-02 0. -1.
         -1   -1    0    0    0  501 -0.00000000000E+00 -0.00000000000E+00 -0.12070188134E+04  0.12070188134E+04  0.50400000000E-02 0.  1.
    8880023    1    1    2    0    0 -0.25021317644E+03 -0.56258224547E+03 -0.84081870788E+03  0.12328388874E+04  0.65864270000E+03 0.  0.
    8880022    1    1    2    0    0  0.25021317644E+03  0.56258224547E+03  0.42105657990E+03  0.76143661133E+03  0.15294330000E+03 0.  0.
<mgrwt>
<rscale>  0 0.82577626E+03</rscale>
<asrwt>0</asrwt>
<pdfrwt beam="1">  1        1 0.12111641E+00 0.90161834E+03</pdfrwt>
<pdfrwt beam="2">  1       -1 0.18569520E+00 0.90161834E+03</pdfrwt>
<totfact> 0.43644230E+00</totfact>
</mgrwt>
</event>
<event>
 4    1  0.2514307E-008  0.6985178E+03  0.7818608E-02  0.1000341E+00
         -1   -1    0    0    0  501 -0.00000000000E+00  0.00000000000E+00  0.45861859799E+03  0.45861859802E+03  0.50400000000E-02 0.  1.
          1   -1    0    0  501    0  0.00000000000E+00 -0.00000000000E+00 -0.77258090830E+03  0.77258090832E+03  0.50400000000E-02 0. -1.
    8880023    1    1    2    0    0 -0.21998339141E+03  0.75658853847E+02  0.12674225999E+03  0.70992306724E+03  0.65864270000E+03 0.  0.
    8880022    1    1    2    0    0  0.21998339141E+03 -0.75658853847E+02 -0.44070457030E+03  0.52127643910E+03  0.15294330000E+03 0.  0.
<mgrwt>
<rscale>  0 0.55501135E+03</rscale>
<asrwt>0</asrwt>
<pdfrwt beam="1">  1        1 0.11885860E+00 0.69851783E+03</pdfrwt>
<pdfrwt beam="2">  1       -1 0.70556708E-01 0.69851783E+03</pdfrwt>
<totfact> 0.48774284E+01</totfact>
</mgrwt>
</event>
<event>
 4    1  0.2514307E-008  0.6677445E+03  0.7818608E-02  0.1017334E+00
         -1   -1    0    0    0  501 -0.00000000000E+00  0.00000000000E+00  0.16798243096E+04  0.16798243096E+04  0.50400000000E-02 0.  1.
          1   -1    0    0  501    0  0.00000000000E+00 -0.00000000000E+00 -0.26620309501E+03  0.26620309506E+03  0.50400000000E-02 0. -1.
    8880023    1    1    2    0    0  0.10111933592E+03  0.42981059758E+02  0.15668769780E+04  0.17032281591E+04  0.65864270000E+03 0.  1.
    8880022    1    1    2    0    0 -0.10111933592E+03 -0.42981059758E+02 -0.15325576342E+03  0.24279924553E+03  0.15294330000E+03 0.  0.
<mgrwt>
<rscale>  0 0.48661044E+03</rscale>
<asrwt>0</asrwt>
<pdfrwt beam="1">  1        1 0.40954323E-01 0.66774449E+03</pdfrwt>
<pdfrwt beam="2">  1       -1 0.25843451E+00 0.66774449E+03</pdfrwt>
<totfact> 0.66115430E+00</totfact>
</mgrwt>
</event>
<event>
 4    1  0.2514307E-008  0.7069911E+03  0.7818608E-02  0.9969348E-01
         -1   -1    0    0    0  501 -0.00000000000E+00  0.00000000000E+00  0.15043414848E+04  0.15043414848E+04  0.50400000000E-02 0.  1.
          1   -1    0    0  501    0  0.00000000000E+00 -0.00000000000E+00 -0.11702551240E+04  0.11702551240E+04  0.50400000000E-02 0. -1.
    8880023    1    1    2    0    0 -0.32228019170E+02 -0.25492668988E+03  0.13995399607E+04  0.15679759470E+04  0.65864270000E+03 0.  1.
    8880022    1    1    2    0    0  0.32228019170E+02  0.25492668988E+03 -0.10654535999E+04  0.11066206618E+04  0.15294330000E+03 0.  0.
<mgrwt>
<rscale>  0 0.57014923E+03</rscale>
<asrwt>0</asrwt>
<pdfrwt beam="1">  1        1 0.18003925E+00 0.70699114E+03</pdfrwt>
<pdfrwt beam="2">  1       -1 0.23143715E+00 0.70699114E+03</pdfrwt>
<totfact> 0.11004098E+00</totfact>
</mgrwt>
</event>
<event>
 4    1  0.2514307E-008  0.8933252E+03  0.7818608E-02  0.9536833E-01
         -1   -1    0    0    0  501 -0.00000000000E+00  0.00000000000E+00  0.66643058115E+03  0.66643058117E+03  0.50400000000E-02 0.  1.
          1   -1    0    0  501    0  0.00000000000E+00 -0.00000000000E+00 -0.13165141839E+04  0.13165141839E+04  0.50400000000E-02 0. -1.
    8880023    1    1    2    0    0  0.33643872345E+03  0.50102767136E+03  0.21336022305E+03  0.91845115991E+03  0.65864270000E+03 0.  0.
    8880022    1    1    2    0    0 -0.33643872345E+03 -0.50102767136E+03 -0.86344382579E+03  0.10644936052E+04  0.15294330000E+03 0.  0.
<mgrwt>
<rscale>  0 0.81621912E+03</rscale>
<asrwt>0</asrwt>
<pdfrwt beam="1">  1        1 0.20254064E+00 0.89332522E+03</pdfrwt>
<pdfrwt beam="2">  1       -1 0.10252778E+00 0.89332522E+03</pdfrwt>
<totfact> 0.80548303E+00</totfact>
</mgrwt>
</event>
<event>
 4    1  0.2514307E-008  0.7458566E+03  0.7818608E-02  0.9843204E-01
          1   -1    0    0  501    0  0.00000000000E+00  0.00000000000E+00  0.19298125097E+04  0.19298125097E+04  0.50400000000E-02 0. -1.
         -1   -1    0    0    0  501 -0.00000000000E+00 -0.00000000000E+00 -0.44042608223E+03  0.44042608226E+03  0.50400000000E-02 0.  1.
    8880023    1    1    2    0    0 -0.34422661278E+03  0.63244841598E+02 -0.84538890389E+02  0.75063233422E+03  0.65864270000E+03 0.  1.
    8880022    1    1    2    0    0  0.34422661278E+03 -0.63244841598E+02  0.15739253179E+04  0.16196062578E+04  0.15294330000E+03 0.  0.
<mgrwt>
<rscale>  0 0.63094614E+03</rscale>
<asrwt>0</asrwt>
<pdfrwt beam="1">  1        1 0.29689424E+00 0.74585661E+03</pdfrwt>
<pdfrwt beam="2">  1       -1 0.67757857E-01 0.74585661E+03</pdfrwt>
<totfact> 0.76797439E+00</totfact>
</mgrwt>
</event>
<event>
 4    1  0.2514307E-008  0.8140944E+03  0.7818608E-02  0.9681111E-01
         -1   -1    0    0    0  501 -0.00000000000E+00  0.00000000000E+00  0.33211780377E+03  0.33211780381E+03  0.50400000000E-02 0.  1.
          1   -1    0    0  501    0  0.00000000000E+00 -0.00000000000E+00 -0.13256486315E+04  0.13256486316E+04  0.50400000000E-02 0. -1.
    8880023    1    1    2    0    0 -0.12362471980E+03 -0.46222991669E+03 -0.71435073686E+03  0.10830728271E+04  0.65864270000E+03 0. -1.
    8880022    1    1    2    0    0  0.12362471980E+03  0.46222991669E+03 -0.27918009091E+03  0.57469360829E+03  0.15294330000E+03 0.  1.
<mgrwt>
<rscale>  0 0.72152680E+03</rscale>
<asrwt>0</asrwt>
<pdfrwt beam="1">  1        1 0.20394594E+00 0.81409445E+03</pdfrwt>
<pdfrwt beam="2">  1       -1 0.51095047E-01 0.81409445E+03</pdfrwt>
<totfact> 0.34131190E+01</totfact>
</mgrwt>
</event>
<event>
 4    1  0.2514307E-008  0.7411110E+03  0.7818608E-02  0.9856723E-01
          1   -1    0    0  501    0  0.00000000000E+00  0.00000000000E+00  0.75168488300E+03  0.75168488301E+03  0.50400000000E-02 0. -1.
         -1   -1    0    0    0  501 -0.00000000000E+00 -0.00000000000E+00 -0.50228301799E+03  0.50228301802E+03  0.50400000000E-02 0.  1.
    8880023    1    1    2    0    0  0.29657994655E+03  0.16575761804E+03 -0.94264520731E+02  0.74708182869E+03  0.65864270000E+03 0.  1.
    8880022    1    1    2    0    0 -0.29657994655E+03 -0.16575761804E+03  0.34366638573E+03  0.50688607234E+03  0.15294330000E+03 0. -1.
<mgrwt>
<rscale>  0 0.62405323E+03</rscale>
<asrwt>0</asrwt>
<pdfrwt beam="1">  1        1 0.11564383E+00 0.74111096E+03</pdfrwt>
<pdfrwt beam="2">  1       -1 0.77274311E-01 0.74111096E+03</pdfrwt>
<totfact> 0.41978911E+01</totfact>
</mgrwt>
</event>
<event>
 4    1  0.2514307E-008  0.1114737E+04  0.7818608E-02  0.9244823E-01
         -1   -1    0    0    0  501 -0.00000000000E+00  0.00000000000E+00  0.75408395170E+03  0.75408395172E+03  0.50400000000E-02 0.  1.
          1   -1    0    0  501    0  0.00000000000E+00 -0.00000000000E+00 -0.15044110536E+04  0.15044110536E+04  0.50400000000E-02 0. -1.
    8880023    1    1    2    0    0  0.33799769184E+03 -0.83341838507E+03 -0.63419831847E+02  0.11165397107E+04  0.65864270000E+03 0.  0.
    8880022    1    1    2    0    0 -0.33799769184E+03  0.83341838507E+03 -0.68690727006E+03  0.11419552946E+04  0.15294330000E+03 0.  0.
<mgrwt>
<rscale>  0 0.10602521E+04</rscale>
<asrwt>0</asrwt>
<pdfrwt beam="1">  1        1 0.23144785E+00 0.11147371E+04</pdfrwt>
<pdfrwt beam="2">  1       -1 0.11601292E+00 0.11147371E+04</pdfrwt>
<totfact> 0.43309902E+00</totfact>
</mgrwt>
</event>
<event>
 4    1  0.2514307E-008  0.6715429E+03  0.7818608E-02  0.1014580E+00
         -1   -1    0    0    0  501 -0.00000000000E+00  0.00000000000E+00  0.30567526214E+03  0.30567526218E+03  0.50400000000E-02 0.  1.
          1   -1    0    0  501    0  0.00000000000E+00 -0.00000000000E+00 -0.11128410851E+04  0.11128410851E+04  0.50400000000E-02 0. -1.
    8880023    1    1    2    0    0  0.16090197703E+01  0.13098507035E+03 -0.94758895095E+02  0.67819549694E+03  0.65864270000E+03 0.  1.
    8880022    1    1    2    0    0 -0.16090197703E+01 -0.13098507035E+03 -0.71240692789E+03  0.74032085038E+03  0.15294330000E+03 0.  0.
<mgrwt>
<rscale>  0 0.49694230E+03</rscale>
<asrwt>0</asrwt>
<pdfrwt beam="1">  1        1 0.17120632E+00 0.67154291E+03</pdfrwt>
<pdfrwt beam="2">  1       -1 0.47026964E-01 0.67154291E+03</pdfrwt>
<totfact> 0.57706799E+01</totfact>
</mgrwt>
</event>
<event>
 4    1  0.2514307E-008  0.1478769E+04  0.7818608E-02  0.8924775E-01
         -1   -1    0    0    0  501 -0.00000000000E+00  0.00000000000E+00  0.18312972365E+04  0.18312972365E+04  0.50400000000E-02 0.  1.
          1   -1    0    0  501    0  0.00000000000E+00 -0.00000000000E+00 -0.17546158976E+04  0.17546158976E+04  0.50400000000E-02 0. -1.
    8880023    1    1    2    0    0 -0.47407145222E+02 -0.13231405312E+04  0.11511023478E+04  0.18739784215E+04  0.65864270000E+03 0.  0.
    8880022    1    1    2    0    0  0.47407145222E+02  0.13231405312E+04 -0.10744210089E+04  0.17119347126E+04  0.15294330000E+03 0.  0.
<mgrwt>
<rscale>  0 0.14408410E+04</rscale>
<asrwt>0</asrwt>
<pdfrwt beam="1">  1        1 0.26994091E+00 0.14787693E+04</pdfrwt>
<pdfrwt beam="2">  1       -1 0.28173804E+00 0.14787693E+04</pdfrwt>
<totfact> 0.17955242E-01</totfact>
</mgrwt>
</event>
<event>
 4    1  0.2514307E-008  0.1102953E+04  0.7818608E-02  0.9257775E-01
          1   -1    0    0  501    0  0.00000000000E+00  0.00000000000E+00  0.89506279011E+03  0.89506279013E+03  0.50400000000E-02 0. -1.
         -1   -1    0    0    0  501 -0.00000000000E+00 -0.00000000000E+00 -0.14618277178E+04  0.14618277178E+04  0.50400000000E-02 0.  1.
    8880023    1    1    2    0    0  0.86699216877E+03  0.17612394476E+03 -0.87473413301E+03  0.14077162620E+04  0.65864270000E+03 0.  0.
    8880022    1    1    2    0    0 -0.86699216877E+03 -0.17612394476E+03  0.30796920535E+03  0.94917424590E+03  0.15294330000E+03 0.  0.
<mgrwt>
<rscale>  0 0.10476482E+04</rscale>
<asrwt>0</asrwt>
<pdfrwt beam="1">  1        1 0.13770197E+00 0.11029530E+04</pdfrwt>
<pdfrwt beam="2">  1       -1 0.22489657E+00 0.11029530E+04</pdfrwt>
<totfact> 0.18614456E+00</totfact>
</mgrwt>
</event>
<event>
 4    1  0.2514307E-008  0.1479955E+04  0.7818608E-02  0.8923922E-01
         -1   -1    0    0    0  501 -0.00000000000E+00  0.00000000000E+00  0.58787872981E+03  0.58787872984E+03  0.50400000000E-02 0.  1.
          1   -1    0    0  501    0  0.00000000000E+00 -0.00000000000E+00 -0.48157370892E+04  0.48157370892E+04  0.50400000000E-02 0. -1.
    8880023    1    1    2    0    0 -0.82317725511E+03  0.10386695258E+04 -0.71034371353E+03  0.16416009182E+04  0.65864270000E+03 0.  0.
    8880022    1    1    2    0    0  0.82317725511E+03 -0.10386695258E+04 -0.35175146458E+04  0.37620149008E+04  0.15294330000E+03 0.  0.
<mgrwt>
<rscale>  0 0.14420626E+04</rscale>
<asrwt>0</asrwt>
<pdfrwt beam="1">  1        1 0.74088260E+00 0.14799545E+04</pdfrwt>
<pdfrwt beam="2">  1       -1 0.90442885E-01 0.14799545E+04</pdfrwt>
<totfact> 0.17205921E-02</totfact>
</mgrwt>
</event>
<event>
 4    1  0.2514307E-008  0.1112490E+04  0.7818608E-02  0.9247276E-01
         -1   -1    0    0    0  501 -0.00000000000E+00  0.00000000000E+00  0.35944607846E+03  0.35944607849E+03  0.50400000000E-02 0.  1.
          1   -1    0    0  501    0  0.00000000000E+00 -0.00000000000E+00 -0.31508353924E+04  0.31508353924E+04  0.50400000000E-02 0. -1.
    8880023    1    1    2    0    0  0.83975763729E+03 -0.31405653968E+03 -0.97657954313E+03  0.14803182799E+04  0.65864270000E+03 0.  0.
    8880022    1    1    2    0    0 -0.83975763729E+03  0.31405653968E+03 -0.18148097708E+04  0.20299631910E+04  0.15294330000E+03 0.  0.
<mgrwt>
<rscale>  0 0.10578511E+04</rscale>
<asrwt>0</asrwt>
<pdfrwt beam="1">  1        1 0.48474389E+00 0.11124903E+04</pdfrwt>
<pdfrwt beam="2">  1       -1 0.55299399E-01 0.11124903E+04</pdfrwt>
<totfact> 0.15513212E+00</totfact>
</mgrwt>
</event>
<event>
 4    1  0.2514307E-008  0.9154839E+03  0.7818608E-02  0.9501619E-01
          1   -1    0    0  501    0  0.00000000000E+00  0.00000000000E+00  0.18947914119E+04  0.18947914119E+04  0.50400000000E-02 0. -1.
         -1   -1    0    0    0  501 -0.00000000000E+00 -0.00000000000E+00 -0.33628556823E+03  0.33628556826E+03  0.50400000000E-02 0.  1.
    8880023    1    1    2    0    0  0.62733547054E+03 -0.10368597071E+03  0.11063386935E+04  0.14360000293E+04  0.65864270000E+03 0. -1.
    8880022    1    1    2    0    0 -0.62733547054E+03  0.10368597071E+03  0.45216715022E+03  0.79507695091E+03  0.15294330000E+03 0.  1.
<mgrwt>
<rscale>  0 0.84164598E+03</rscale>
<asrwt>0</asrwt>
<pdfrwt beam="1">  1        1 0.29150636E+00 0.91548390E+03</pdfrwt>
<pdfrwt beam="2">  1       -1 0.51736242E-01 0.91548390E+03</pdfrwt>
<totfact> 0.13465746E+01</totfact>
</mgrwt>
</event>
<event>
 4    1  0.2514307E-008  0.9576361E+03  0.7818608E-02  0.9439211E-01
          1   -1    0    0  501    0  0.00000000000E+00  0.00000000000E+00  0.20299982364E+04  0.20299982364E+04  0.50400000000E-02 0. -1.
         -1   -1    0    0    0  501 -0.00000000000E+00 -0.00000000000E+00 -0.70208196551E+03  0.70208196552E+03  0.50400000000E-02 0.  1.
    8880023    1    1    2    0    0  0.34313212331E+03 -0.60458004046E+03 -0.25968077485E+03  0.99222023284E+03  0.65864270000E+03 0.  1.
    8880022    1    1    2    0    0 -0.34313212331E+03  0.60458004046E+03  0.15875970457E+04  0.17398599691E+04  0.15294330000E+03 0.  0.
<mgrwt>
<rscale>  0 0.88917800E+03</rscale>
<asrwt>0</asrwt>
<pdfrwt beam="1">  1        1 0.31230742E+00 0.95763609E+03</pdfrwt>
<pdfrwt beam="2">  1       -1 0.10801261E+00 0.95763609E+03</pdfrwt>
<totfact> 0.23057690E+00</totfact>
</mgrwt>
</event>
<event>
 4    1  0.2514307E-008  0.2193266E+04  0.7818608E-02  0.8531463E-01
         -1   -1    0    0    0  501 -0.00000000000E+00  0.00000000000E+00  0.22396067907E+04  0.22396067907E+04  0.50400000000E-02 0.  1.
          1   -1    0    0  501    0  0.00000000000E+00 -0.00000000000E+00 -0.22764027908E+04  0.22764027908E+04  0.50400000000E-02 0. -1.
    8880023    1    1    2    0    0  0.64130323688E+03 -0.19913152313E+04 -0.72242860213E+03  0.23091815614E+04  0.65864270000E+03 0.  0.
    8880022    1    1    2    0    0 -0.64130323688E+03  0.19913152313E+04  0.68563260203E+03  0.22068280201E+04  0.15294330000E+03 0.  0.
<mgrwt>
<rscale>  0 0.21689526E+04</rscale>
<asrwt>0</asrwt>
<pdfrwt beam="1">  1        1 0.35021582E+00 0.21932661E+04</pdfrwt>
<pdfrwt beam="2">  1       -1 0.34455489E+00 0.21932661E+04</pdfrwt>
<totfact> 0.28376050E-02</totfact>
</mgrwt>
</event>
<event>
 4    1  0.2514307E-008  0.6776275E+03  0.7818608E-02  0.1010699E+00
         -1   -1    0    0    0  501 -0.00000000000E+00  0.00000000000E+00  0.30240900678E+03  0.30240900682E+03  0.50400000000E-02 0.  1.
          1   -1    0    0  501    0  0.00000000000E+00 -0.00000000000E+00 -0.21516785897E+04  0.21516785897E+04  0.50400000000E-02 0. -1.
    8880023    1    1    2    0    0  0.86653792722E+02 -0.13364118574E+03 -0.92987108414E+02  0.68397781756E+03  0.65864270000E+03 0.  1.
    8880022    1    1    2    0    0 -0.86653792722E+02  0.13364118574E+03 -0.17562824745E+04  0.17701097790E+04  0.15294330000E+03 0.  0.
<mgrwt>
<rscale>  0 0.51197858E+03</rscale>
<asrwt>0</asrwt>
<pdfrwt beam="1">  1        1 0.33102747E+00 0.67762752E+03</pdfrwt>
<pdfrwt beam="2">  1       -1 0.46524464E-01 0.67762752E+03</pdfrwt>
<totfact> 0.11460307E+01</totfact>
</mgrwt>
</event>
<event>
 4    1  0.2514307E-008  0.1624371E+04  0.7818608E-02  0.8826465E-01
         -1   -1    0    0    0  501 -0.00000000000E+00  0.00000000000E+00  0.11977631219E+04  0.11977631219E+04  0.50400000000E-02 0.  1.
          1   -1    0    0  501    0  0.00000000000E+00 -0.00000000000E+00 -0.21453088613E+04  0.21453088613E+04  0.50400000000E-02 0. -1.
    8880023    1    1    2    0    0 -0.10719766707E+04  0.10274426805E+04 -0.88326846850E+03  0.18489850832E+04  0.65864270000E+03 0.  0.
    8880022    1    1    2    0    0  0.10719766707E+04 -0.10274426805E+04 -0.64277270861E+02  0.14940869000E+04  0.15294330000E+03 0.  0.
<mgrwt>
<rscale>  0 0.15904038E+04</rscale>
<asrwt>0</asrwt>
<pdfrwt beam="1">  1        1 0.33004752E+00 0.16243715E+04</pdfrwt>
<pdfrwt beam="2">  1       -1 0.18427125E+00 0.16243715E+04</pdfrwt>
<totfact> 0.43002732E-01</totfact>
</mgrwt>
</event>
<event>
 4    1  0.2514307E-008  0.1368268E+04  0.7818608E-02  0.9008740E-01
          1   -1    0    0  501    0  0.00000000000E+00  0.00000000000E+00  0.13535587921E+04  0.13535587921E+04  0.50400000000E-02 0. -1.
         -1   -1    0    0    0  501 -0.00000000000E+00 -0.00000000000E+00 -0.20401097682E+04  0.20401097682E+04  0.50400000000E-02 0.  1.
    8880023    1    1    2    0    0 -0.11862099382E+04  0.17678481024E+03 -0.14261425639E+04  0.19763703361E+04  0.65864270000E+03 0.  1.
    8880022    1    1    2    0    0  0.11862099382E+04 -0.17678481024E+03  0.73959158779E+03  0.14172982242E+04  0.15294330000E+03 0.  0.
<mgrwt>
<rscale>  0 0.13265911E+04</rscale>
<asrwt>0</asrwt>
<pdfrwt beam="1">  1        1 0.20823982E+00 0.13682679E+04</pdfrwt>
<pdfrwt beam="2">  1       -1 0.31386304E+00 0.13682679E+04</pdfrwt>
<totfact> 0.21403200E-01</totfact>
</mgrwt>
</event>
<event>
 4    1  0.2514307E-008  0.1196946E+04  0.7818608E-02  0.9160096E-01
          1   -1    0    0  501    0  0.00000000000E+00  0.00000000000E+00  0.10492821272E+04  0.10492821272E+04  0.50400000000E-02 0. -1.
         -1   -1    0    0    0  501 -0.00000000000E+00 -0.00000000000E+00 -0.23419943867E+04  0.23419943867E+04  0.50400000000E-02 0.  1.
    8880023    1    1    2    0    0  0.97912406534E+03  0.20046518312E+03 -0.18750307441E+04  0.22245046016E+04  0.65864270000E+03 0.  1.
    8880022    1    1    2    0    0 -0.97912406534E+03 -0.20046518312E+03  0.58231848461E+03  0.11667719124E+04  0.15294330000E+03 0.  0.
<mgrwt>
<rscale>  0 0.11474962E+04</rscale>
<asrwt>0</asrwt>
<pdfrwt beam="1">  1        1 0.16142802E+00 0.11969463E+04</pdfrwt>
<pdfrwt beam="2">  1       -1 0.36030683E+00 0.11969463E+04</pdfrwt>
<totfact> 0.18202229E-01</totfact>
</mgrwt>
</event>
<event>
 4    1  0.2514307E-008  0.1307233E+04  0.7818608E-02  0.9059339E-01
         -1   -1    0    0    0  501 -0.00000000000E+00  0.00000000000E+00  0.10472662919E+04  0.10472662919E+04  0.50400000000E-02 0.  1.
          1   -1    0    0  501    0  0.00000000000E+00 -0.00000000000E+00 -0.30384169701E+04  0.30384169701E+04  0.50400000000E-02 0. -1.
    8880023    1    1    2    0    0  0.11269130627E+04 -0.71517974512E+02  0.45742198008E+03  0.13849523261E+04  0.65864270000E+03 0.  0.
    8880022    1    1    2    0    0 -0.11269130627E+04  0.71517974512E+02 -0.24485726583E+04  0.27007309358E+04  0.15294330000E+03 0.  0.
<mgrwt>
<rscale>  0 0.12631138E+04</rscale>
<asrwt>0</asrwt>
<pdfrwt beam="1">  1        1 0.46744876E+00 0.13072330E+04</pdfrwt>
<pdfrwt beam="2">  1       -1 0.16111789E+00 0.13072330E+04</pdfrwt>
<totfact> 0.15679929E-01</totfact>
</mgrwt>
</event>
<event>
 4    1  0.2514307E-008  0.1077973E+04  0.7818608E-02  0.9285986E-01
         -1   -1    0    0    0  501 -0.00000000000E+00  0.00000000000E+00  0.89270719374E+03  0.89270719375E+03  0.50400000000E-02 0.  1.
          1   -1    0    0  501    0  0.00000000000E+00 -0.00000000000E+00 -0.35104583505E+04  0.35104583505E+04  0.50400000000E-02 0. -1.
    8880023    1    1    2    0    0 -0.81689176089E+03 -0.24678525502E+03  0.48464869101E+03  0.11819093328E+04  0.65864270000E+03 0.  0.
    8880022    1    1    2    0    0  0.81689176089E+03  0.24678525502E+03 -0.31023998478E+04  0.32212562115E+04  0.15294330000E+03 0.  0.
<mgrwt>
<rscale>  0 0.10208330E+04</rscale>
<asrwt>0</asrwt>
<pdfrwt beam="1">  1        1 0.54007051E+00 0.10779728E+04</pdfrwt>
<pdfrwt beam="2">  1       -1 0.13733957E+00 0.10779728E+04</pdfrwt>
<totfact> 0.11061740E-01</totfact>
</mgrwt>
</event>
<event>
 4    1  0.2514307E-008  0.8214147E+03  0.7818608E-02  0.9666274E-01
         -1   -1    0    0    0  501 -0.00000000000E+00  0.00000000000E+00  0.10024505099E+04  0.10024505099E+04  0.50400000000E-02 0.  1.
          1   -1    0    0  501    0  0.00000000000E+00 -0.00000000000E+00 -0.14198521156E+04  0.14198521156E+04  0.50400000000E-02 0. -1.
    8880023    1    1    2    0    0  0.42673531857E+03  0.24250523503E+03  0.77155834144E+03  0.11269535490E+04  0.65864270000E+03 0.  1.
    8880022    1    1    2    0    0 -0.42673531857E+03 -0.24250523503E+03 -0.11889599471E+04  0.12953490765E+04  0.15294330000E+03 0.  0.
<mgrwt>
<rscale>  0 0.73060845E+03</rscale>
<asrwt>0</asrwt>
<pdfrwt beam="1">  1        1 0.21843879E+00 0.82141465E+03</pdfrwt>
<pdfrwt beam="2">  1       -1 0.15422316E+00 0.82141465E+03</pdfrwt>
<totfact> 0.24842202E+00</totfact>
</mgrwt>
</event>
<event>
 4    1  0.2514307E-008  0.6750369E+03  0.7818608E-02  0.1012283E+00
         -1   -1    0    0    0  501 -0.00000000000E+00  0.00000000000E+00  0.46586599160E+03  0.46586599163E+03  0.50400000000E-02 0.  1.
          1   -1    0    0  501    0  0.00000000000E+00 -0.00000000000E+00 -0.14271091560E+04  0.14271091560E+04  0.50400000000E-02 0. -1.
    8880023    1    1    2    0    0 -0.14342435282E+03 -0.35973759674E+02  0.20657573649E+03  0.70593795587E+03  0.65864270000E+03 0.  1.
    8880022    1    1    2    0    0  0.14342435282E+03  0.35973759674E+02 -0.11678189009E+04  0.11870371918E+04  0.15294330000E+03 0.  0.
<mgrwt>
<rscale>  0 0.50577289E+03</rscale>
<asrwt>0</asrwt>
<pdfrwt beam="1">  1        1 0.21955525E+00 0.67503693E+03</pdfrwt>
<pdfrwt beam="2">  1       -1 0.71671692E-01 0.67503693E+03</pdfrwt>
<totfact> 0.15126003E+01</totfact>
</mgrwt>
</event>
<event>
 4    1  0.2514307E-008  0.7508184E+03  0.7818608E-02  0.9829485E-01
          1   -1    0    0  501    0  0.00000000000E+00  0.00000000000E+00  0.84676524934E+03  0.84676524935E+03  0.50400000000E-02 0. -1.
         -1   -1    0    0    0  501 -0.00000000000E+00 -0.00000000000E+00 -0.18594512817E+04  0.18594512817E+04  0.50400000000E-02 0.  1.
    8880023    1    1    2    0    0 -0.36032351655E+03  0.92198437012E+01 -0.17317231448E+04  0.18874833241E+04  0.65864270000E+03 0.  1.
    8880022    1    1    2    0    0  0.36032351655E+03 -0.92198437012E+01  0.71903711246E+03  0.81873320698E+03  0.15294330000E+03 0.  0.
<mgrwt>
<rscale>  0 0.63803922E+03</rscale>
<asrwt>0</asrwt>
<pdfrwt beam="1">  1        1 0.13027158E+00 0.75081839E+03</pdfrwt>
<pdfrwt beam="2">  1       -1 0.28606943E+00 0.75081839E+03</pdfrwt>
<totfact> 0.86534443E-01</totfact>
</mgrwt>
</event>
<event>
 4    1  0.2514307E-008  0.6921212E+03  0.7818608E-02  0.1003160E+00
          1   -1    0    0  501    0  0.00000000000E+00  0.00000000000E+00  0.12082442370E+04  0.12082442370E+04  0.50400000000E-02 0. -1.
         -1   -1    0    0    0  501 -0.00000000000E+00 -0.00000000000E+00 -0.12905669166E+04  0.12905669166E+04  0.50400000000E-02 0.  1.
    8880023    1    1    2    0    0  0.19307161568E+02  0.21177525888E+03 -0.11812585267E+04  0.13690885435E+04  0.65864270000E+03 0.  1.
    8880022    1    1    2    0    0 -0.19307161568E+02 -0.21177525888E+03  0.10989358471E+04  0.11297226101E+04  0.15294330000E+03 0.  0.
<mgrwt>
<rscale>  0 0.54285963E+03</rscale>
<asrwt>0</asrwt>
<pdfrwt beam="1">  1        1 0.18588373E+00 0.69212118E+03</pdfrwt>
<pdfrwt beam="2">  1       -1 0.19854876E+00 0.69212118E+03</pdfrwt>
<totfact> 0.17177899E+00</totfact>
</mgrwt>
</event>
<event>
 4    1  0.2514307E-008  0.8683579E+03  0.7818608E-02  0.9578866E-01
          1   -1    0    0  501    0  0.00000000000E+00  0.00000000000E+00  0.16322143838E+04  0.16322143838E+04  0.50400000000E-02 0. -1.
         -1   -1    0    0    0  501 -0.00000000000E+00 -0.00000000000E+00 -0.60378021279E+03  0.60378021281E+03  0.50400000000E-02 0.  1.
    8880023    1    1    2    0    0 -0.17012752271E+03  0.53971455605E+03 -0.18548682127E+03  0.88794748894E+03  0.65864270000E+03 0.  1.
    8880022    1    1    2    0    0  0.17012752271E+03 -0.53971455605E+03  0.12139209923E+04  0.13480471077E+04  0.15294330000E+03 0.  0.
<mgrwt>
<rscale>  0 0.78710911E+03</rscale>
<asrwt>0</asrwt>
<pdfrwt beam="1">  1        1 0.25110990E+00 0.86835787E+03</pdfrwt>
<pdfrwt beam="2">  1       -1 0.92889265E-01 0.86835787E+03</pdfrwt>
<totfact> 0.61163105E+00</totfact>
</mgrwt>
</event>
<event>
 4    1  0.2514307E-008  0.7848268E+03  0.7818608E-02  0.9744619E-01
         -1   -1    0    0    0  501 -0.00000000000E+00  0.00000000000E+00  0.44069289110E+03  0.44069289113E+03  0.50400000000E-02 0.  1.
          1   -1    0    0  501    0  0.00000000000E+00 -0.00000000000E+00 -0.33855123048E+04  0.33855123048E+04  0.50400000000E-02 0. -1.
    8880023    1    1    2    0    0 -0.41868826749E+03  0.82722487797E+02  0.60244537814E+02  0.78713562105E+03  0.65864270000E+03 0.  0.
    8880022    1    1    2    0    0  0.41868826749E+03 -0.82722487797E+02 -0.30050639515E+04  0.30390695749E+04  0.15294330000E+03 0. -1.
<mgrwt>
<rscale>  0 0.68421243E+03</rscale>
<asrwt>0</asrwt>
<pdfrwt beam="1">  1        1 0.52084803E+00 0.78482678E+03</pdfrwt>
<pdfrwt beam="2">  1       -1 0.67798908E-01 0.78482678E+03</pdfrwt>
<totfact> 0.73156967E-01</totfact>
</mgrwt>
</event>
<event>
 4    1  0.2514307E-008  0.9207826E+03  0.7818608E-02  0.9493460E-01
         -1   -1    0    0    0  501 -0.00000000000E+00  0.00000000000E+00  0.17496431703E+04  0.17496431703E+04  0.50400000000E-02 0.  1.
          1   -1    0    0  501    0  0.00000000000E+00 -0.00000000000E+00 -0.15565594441E+04  0.15565594441E+04  0.50400000000E-02 0. -1.
    8880023    1    1    2    0    0  0.62386423939E+03 -0.15755551453E+03  0.15464820254E+04  0.17998464352E+04  0.65864270000E+03 0.  1.
    8880022    1    1    2    0    0 -0.62386423939E+03  0.15755551453E+03 -0.13533982992E+04  0.15063561792E+04  0.15294330000E+03 0.  0.
<mgrwt>
<rscale>  0 0.84767698E+03</rscale>
<asrwt>0</asrwt>
<pdfrwt beam="1">  1        1 0.23947068E+00 0.92078257E+03</pdfrwt>
<pdfrwt beam="2">  1       -1 0.26917587E+00 0.92078257E+03</pdfrwt>
<totfact> 0.32166056E-01</totfact>
</mgrwt>
</event>
<event>
 4    1  0.2514307E-008  0.8932810E+03  0.7818608E-02  0.9536905E-01
         -1   -1    0    0    0  501 -0.00000000000E+00  0.00000000000E+00  0.87370578229E+03  0.87370578230E+03  0.50400000000E-02 0.  1.
          1   -1    0    0  501    0  0.00000000000E+00 -0.00000000000E+00 -0.17536405472E+04  0.17536405472E+04  0.50400000000E-02 0. -1.
    8880023    1    1    2    0    0  0.24589012558E+03  0.55107054359E+03  0.56296882253E+03  0.10558810536E+04  0.65864270000E+03 0.  0.
    8880022    1    1    2    0    0 -0.24589012558E+03 -0.55107054359E+03 -0.14429035875E+04  0.15714652760E+04  0.15294330000E+03 0.  0.
<mgrwt>
<rscale>  0 0.81616799E+03</rscale>
<asrwt>0</asrwt>
<pdfrwt beam="1">  1        1 0.26979085E+00 0.89328098E+03</pdfrwt>
<pdfrwt beam="2">  1       -1 0.13441627E+00 0.89328098E+03</pdfrwt>
<totfact> 0.20899887E+00</totfact>
</mgrwt>
</event>
<event>
 4    1  0.2514307E-008  0.1105696E+04  0.7818608E-02  0.9254741E-01
         -1   -1    0    0    0  501 -0.00000000000E+00  0.00000000000E+00  0.11653469918E+04  0.11653469918E+04  0.50400000000E-02 0.  1.
          1   -1    0    0  501    0  0.00000000000E+00 -0.00000000000E+00 -0.12840577572E+04  0.12840577572E+04  0.50400000000E-02 0. -1.
    8880023    1    1    2    0    0  0.11445273169E+03  0.88071239044E+03  0.63457040387E+03  0.12748504015E+04  0.65864270000E+03 0.  0.
    8880022    1    1    2    0    0 -0.11445273169E+03 -0.88071239044E+03 -0.75328116927E+03  0.11745543476E+04  0.15294330000E+03 0.  0.
<mgrwt>
<rscale>  0 0.10505847E+04</rscale>
<asrwt>0</asrwt>
<pdfrwt beam="1">  1        1 0.19754735E+00 0.11056961E+04</pdfrwt>
<pdfrwt beam="2">  1       -1 0.17928415E+00 0.11056961E+04</pdfrwt>
<totfact> 0.19382239E+00</totfact>
</mgrwt>
</event>
<event>
 4    1  0.2514307E-008  0.8192654E+03  0.7818608E-02  0.9670591E-01
         -1   -1    0    0    0  501 -0.00000000000E+00  0.00000000000E+00  0.70175104206E+03  0.70175104208E+03  0.50400000000E-02 0.  1.
          1   -1    0    0  501    0  0.00000000000E+00 -0.00000000000E+00 -0.47528429608E+04  0.47528429608E+04  0.50400000000E-02 0. -1.
    8880023    1    1    2    0    0  0.26580881492E+03 -0.40832731900E+03  0.44314610469E+03  0.93143663333E+03  0.65864270000E+03 0.  1.
    8880022    1    1    2    0    0 -0.26580881492E+03  0.40832731900E+03 -0.44942380234E+04  0.45231573696E+04  0.15294330000E+03 0.  0.
<mgrwt>
<rscale>  0 0.72795099E+03</rscale>
<asrwt>0</asrwt>
<pdfrwt beam="1">  1        1 0.73120659E+00 0.81926536E+03</pdfrwt>
<pdfrwt beam="2">  1       -1 0.10796170E+00 0.81926536E+03</pdfrwt>
<totfact> 0.15623826E-02</totfact>
</mgrwt>
</event>
<event>
 4    1  0.2514307E-008  0.9363579E+03  0.7818608E-02  0.9470020E-01
         -1   -1    0    0    0  501 -0.00000000000E+00  0.00000000000E+00  0.62135532022E+03  0.62135532024E+03  0.50400000000E-02 0.  1.
          1   -1    0    0  501    0  0.00000000000E+00 -0.00000000000E+00 -0.12966446244E+04  0.12966446244E+04  0.50400000000E-02 0. -1.
    8880023    1    1    2    0    0 -0.26632717318E+03 -0.60993918882E+03  0.29250857479E+02  0.93681470748E+03  0.65864270000E+03 0.  1.
    8880022    1    1    2    0    0  0.26632717318E+03  0.60993918882E+03 -0.70454016168E+03  0.98118523718E+03  0.15294330000E+03 0.  1.
<mgrwt>
<rscale>  0 0.86530685E+03</rscale>
<asrwt>0</asrwt>
<pdfrwt beam="1">  1        1 0.19948379E+00 0.93635794E+03</pdfrwt>
<pdfrwt beam="2">  1       -1 0.95593127E-01 0.93635794E+03</pdfrwt>
<totfact> 0.97119073E+00</totfact>
</mgrwt>
</event>
<event>
 4    1  0.2514307E-008  0.7610018E+03  0.7818608E-02  0.9802521E-01
          1   -1    0    0  501    0  0.00000000000E+00  0.00000000000E+00  0.12871207501E+04  0.12871207501E+04  0.50400000000E-02 0. -1.
         -1   -1    0    0    0  501 -0.00000000000E+00 -0.00000000000E+00 -0.85431506582E+03  0.85431506584E+03  0.50400000000E-02 0.  1.
    8880023    1    1    2    0    0  0.25385549608E+03  0.28437811131E+03 -0.63895001772E+03  0.99367039529E+03  0.65864270000E+03 0.  1.
    8880022    1    1    2    0    0 -0.25385549608E+03 -0.28437811131E+03  0.10717557020E+04  0.11477654206E+04  0.15294330000E+03 0.  0.
<mgrwt>
<rscale>  0 0.65227437E+03</rscale>
<asrwt>0</asrwt>
<pdfrwt beam="1">  1        1 0.19801858E+00 0.76100179E+03</pdfrwt>
<pdfrwt beam="2">  1       -1 0.13143309E+00 0.76100179E+03</pdfrwt>
<totfact> 0.47291967E+00</totfact>
</mgrwt>
</event>
<event>
 4    1  0.2514307E-008  0.7518751E+03  0.7818608E-02  0.9826615E-01
          1   -1    0    0  501    0  0.00000000000E+00  0.00000000000E+00  0.14541530006E+04  0.14541530006E+04  0.50400000000E-02 0. -1.
         -1   -1    0    0    0  501 -0.00000000000E+00 -0.00000000000E+00 -0.63237990325E+03  0.63237990327E+03  0.50400000000E-02 0.  1.
    8880023    1    1    2    0    0 -0.16019726397E+03  0.32533499599E+03 -0.36529864560E+03  0.83591825542E+03  0.65864270000E+03 0.  1.
    8880022    1    1    2    0    0  0.16019726397E+03 -0.32533499599E+03  0.11870717429E+04  0.12506146484E+04  0.15294330000E+03 0.  0.
<mgrwt>
<rscale>  0 0.63953587E+03</rscale>
<asrwt>0</asrwt>
<pdfrwt beam="1">  1        1 0.22371584E+00 0.75187514E+03</pdfrwt>
<pdfrwt beam="2">  1       -1 0.97289217E-01 0.75187514E+03</pdfrwt>
<totfact> 0.74224805E+00</totfact>
</mgrwt>
</event>
<event>
 4    1  0.2514307E-008  0.1653857E+04  0.7818608E-02  0.8808000E-01
         -1   -1    0    0    0  501 -0.00000000000E+00  0.00000000000E+00  0.13739324067E+04  0.13739324067E+04  0.50400000000E-02 0.  1.
          1   -1    0    0  501    0  0.00000000000E+00 -0.00000000000E+00 -0.24310447897E+04  0.24310447897E+04  0.50400000000E-02 0. -1.
    8880023    1    1    2    0    0  0.38255220129E+03 -0.14680208300E+04 -0.14835311581E+04  0.22217349633E+04  0.65864270000E+03 0.  0.
    8880022    1    1    2    0    0 -0.38255220129E+03  0.14680208300E+04  0.42641877503E+03  0.15832422331E+04  0.15294330000E+03 0.  0.
<mgrwt>
<rscale>  0 0.16205861E+04</rscale>
<asrwt>0</asrwt>
<pdfrwt beam="1">  1        1 0.37400689E+00 0.16538566E+04</pdfrwt>
<pdfrwt beam="2">  1       -1 0.21137422E+00 0.16538566E+04</pdfrwt>
<totfact> 0.17656227E-01</totfact>
</mgrwt>
</event>
<event>
 4    1  0.2514307E-008  0.1232266E+04  0.7818608E-02  0.9126378E-01
          1   -1    0    0  501    0  0.00000000000E+00  0.00000000000E+00  0.19832419975E+04  0.19832419975E+04  0.50400000000E-02 0. -1.
         -1   -1    0    0    0  501 -0.00000000000E+00 -0.00000000000E+00 -0.15130014273E+04  0.15130014273E+04  0.50400000000E-02 0.  1.
    8880023    1    1    2    0    0  0.91783814709E+03  0.49218080652E+03 -0.10691045291E+04  0.16313992494E+04  0.65864270000E+03 0.  1.
    8880022    1    1    2    0    0 -0.91783814709E+03 -0.49218080652E+03  0.15393450993E+04  0.18648441753E+04  0.15294330000E+03 0.  0.
<mgrwt>
<rscale>  0 0.11846737E+04</rscale>
<asrwt>0</asrwt>
<pdfrwt beam="1">  1        1 0.30511415E+00 0.12322658E+04</pdfrwt>
<pdfrwt beam="2">  1       -1 0.23276945E+00 0.12322658E+04</pdfrwt>
<totfact> 0.27055192E-01</totfact>
</mgrwt>
</event>
<event>
 4    1  0.2514307E-008  0.7194031E+03  0.7818608E-02  0.9924611E-01
          1   -1    0    0  501    0  0.00000000000E+00  0.00000000000E+00  0.24939308600E+04  0.24939308600E+04  0.50400000000E-02 0. -1.
         -1   -1    0    0    0  501 -0.00000000000E+00 -0.00000000000E+00 -0.16860444735E+03  0.16860444743E+03  0.50400000000E-02 0.  1.
    8880023    1    1    2    0    0 -0.28915610815E+03 -0.10923237609E+02  0.69711337211E+03  0.10017523805E+04  0.65864270000E+03 0.  1.
    8880022    1    1    2    0    0  0.28915610815E+03  0.10923237609E+02  0.16282130406E+04  0.16607829270E+04  0.15294330000E+03 0.  0.
<mgrwt>
<rscale>  0 0.59083221E+03</rscale>
<asrwt>0</asrwt>
<pdfrwt beam="1">  1        1 0.38368166E+00 0.71940307E+03</pdfrwt>
<pdfrwt beam="2">  1       -1 0.25939147E-01 0.71940307E+03</pdfrwt>
<totfact> 0.18932531E+01</totfact>
</mgrwt>
</event>
<event>
 4    1  0.2514307E-008  0.1245576E+04  0.7818608E-02  0.9114044E-01
          1   -1    0    0  501    0  0.00000000000E+00  0.00000000000E+00  0.23214425383E+04  0.23214425383E+04  0.50400000000E-02 0. -1.
         -1   -1    0    0    0  501 -0.00000000000E+00 -0.00000000000E+00 -0.90703893196E+03  0.90703893197E+03  0.50400000000E-02 0.  1.
    8880023    1    1    2    0    0 -0.10249124063E+04 -0.25923867879E+03 -0.23093480635E+03  0.12668035460E+04  0.65864270000E+03 0.  0.
    8880022    1    1    2    0    0  0.10249124063E+04  0.25923867879E+03  0.16453384127E+04  0.19616779243E+04  0.15294330000E+03 0.  0.
<mgrwt>
<rscale>  0 0.11986446E+04</rscale>
<asrwt>0</asrwt>
<pdfrwt beam="1">  1        1 0.35714500E+00 0.12455763E+04</pdfrwt>
<pdfrwt beam="2">  1       -1 0.13954445E+00 0.12455763E+04</pdfrwt>
<totfact> 0.74520124E-01</totfact>
</mgrwt>
</event>
<event>
 4    1  0.2514307E-008  0.1161263E+04  0.7818608E-02  0.9195729E-01
          1   -1    0    0  501    0  0.00000000000E+00  0.00000000000E+00  0.22079679372E+04  0.22079679372E+04  0.50400000000E-02 0. -1.
         -1   -1    0    0    0  501 -0.00000000000E+00 -0.00000000000E+00 -0.61635368510E+03  0.61635368512E+03  0.50400000000E-02 0.  1.
    8880023    1    1    2    0    0 -0.38947056985E+03  0.87351825225E+03  0.28122001510E+03  0.11948290108E+04  0.65864270000E+03 0.  0.
    8880022    1    1    2    0    0  0.38947056985E+03 -0.87351825225E+03  0.13103942370E+04  0.16294926116E+04  0.15294330000E+03 0.  0.
<mgrwt>
<rscale>  0 0.11097620E+04</rscale>
<asrwt>0</asrwt>
<pdfrwt beam="1">  1        1 0.33968737E+00 0.11612630E+04</pdfrwt>
<pdfrwt beam="2">  1       -1 0.94823646E-01 0.11612630E+04</pdfrwt>
<totfact> 0.22964196E+00</totfact>
</mgrwt>
</event>
<event>
 4    1  0.2514307E-008  0.9382646E+03  0.7818608E-02  0.9467204E-01
          1   -1    0    0  501    0  0.00000000000E+00  0.00000000000E+00  0.63585210395E+03  0.63585210397E+03  0.50400000000E-02 0. -1.
         -1   -1    0    0    0  501 -0.00000000000E+00 -0.00000000000E+00 -0.15973767406E+04  0.15973767406E+04  0.50400000000E-02 0.  1.
    8880023    1    1    2    0    0 -0.64123637577E+03 -0.18800565308E+03 -0.11856721360E+04  0.15120049060E+04  0.65864270000E+03 0.  0.
    8880022    1    1    2    0    0  0.64123637577E+03  0.18800565308E+03  0.22414749935E+03  0.72122393865E+03  0.15294330000E+03 0. -1.
<mgrwt>
<rscale>  0 0.86745549E+03</rscale>
<asrwt>0</asrwt>
<pdfrwt beam="1">  1        1 0.97823401E-01 0.93826458E+03</pdfrwt>
<pdfrwt beam="2">  1       -1 0.24575027E+00 0.93826458E+03</pdfrwt>
<totfact> 0.23754155E+00</totfact>
</mgrwt>
</event>
<event>
 4    1  0.2514307E-008  0.8144484E+03  0.7818608E-02  0.9680384E-01
          1   -1    0    0  501    0  0.00000000000E+00  0.00000000000E+00  0.98358062673E+03  0.98358062675E+03  0.50400000000E-02 0. -1.
         -1   -1    0    0    0  501 -0.00000000000E+00 -0.00000000000E+00 -0.69366639056E+03  0.69366639058E+03  0.50400000000E-02 0.  1.
    8880023    1    1    2    0    0  0.30292165792E+03 -0.37115286141E+03 -0.33020317994E+03  0.87884032888E+03  0.65864270000E+03 0.  1.
    8880022    1    1    2    0    0 -0.30292165792E+03  0.37115286141E+03  0.62011741611E+03  0.79840668844E+03  0.15294330000E+03 0.  0.
<mgrwt>
<rscale>  0 0.72196795E+03</rscale>
<asrwt>0</asrwt>
<pdfrwt beam="1">  1        1 0.15132010E+00 0.81444839E+03</pdfrwt>
<pdfrwt beam="2">  1       -1 0.10671791E+00 0.81444839E+03</pdfrwt>
<totfact> 0.13067294E+01</totfact>
</mgrwt>
</event>
<event>
 4    1  0.2514307E-008  0.1149189E+04  0.7818608E-02  0.9208170E-01
          1   -1    0    0  501    0  0.00000000000E+00  0.00000000000E+00  0.25202488849E+04  0.25202488849E+04  0.50400000000E-02 0. -1.
         -1   -1    0    0    0  501 -0.00000000000E+00 -0.00000000000E+00 -0.10523657739E+04  0.10523657739E+04  0.50400000000E-02 0.  1.
    8880023    1    1    2    0    0  0.45103577929E+03  0.82667586601E+03 -0.59917058261E+03  0.12960099749E+04  0.65864270000E+03 0.  1.
    8880022    1    1    2    0    0 -0.45103577929E+03 -0.82667586601E+03  0.20670536936E+04  0.22766046839E+04  0.15294330000E+03 0.  0.
<mgrwt>
<rscale>  0 0.10969502E+04</rscale>
<asrwt>0</asrwt>
<pdfrwt beam="1">  1        1 0.38773060E+00 0.11491895E+04</pdfrwt>
<pdfrwt beam="2">  1       -1 0.16190243E+00 0.11491895E+04</pdfrwt>
<totfact> 0.36864276E-01</totfact>
</mgrwt>
</event>
<event>
 4    1  0.2514307E-008  0.7568169E+03  0.7818608E-02  0.9813419E-01
          1   -1    0    0  501    0  0.00000000000E+00  0.00000000000E+00  0.17569831742E+04  0.17569831742E+04  0.50400000000E-02 0. -1.
         -1   -1    0    0    0  501 -0.00000000000E+00 -0.00000000000E+00 -0.23984861890E+03  0.23984861895E+03  0.50400000000E-02 0.  1.
    8880023    1    1    2    0    0 -0.37249085525E+03 -0.14565254086E+02  0.51144181847E+03  0.91342461310E+03  0.65864270000E+03 0.  0.
    8880022    1    1    2    0    0  0.37249085525E+03  0.14565254086E+02  0.10056927368E+04  0.10834071800E+04  0.15294330000E+03 0.  0.
<mgrwt>
<rscale>  0 0.64647350E+03</rscale>
<asrwt>0</asrwt>
<pdfrwt beam="1">  1        1 0.27030510E+00 0.75681688E+03</pdfrwt>
<pdfrwt beam="2">  1       -1 0.36899788E-01 0.75681688E+03</pdfrwt>
<totfact> 0.31770129E+01</totfact>
</mgrwt>
</event>
<event>
 4    1  0.2514307E-008  0.7548927E+03  0.7818608E-02  0.9818514E-01
         -1   -1    0    0    0  501 -0.00000000000E+00  0.00000000000E+00  0.29562075974E+03  0.29562075978E+03  0.50400000000E-02 0.  1.
          1   -1    0    0  501    0  0.00000000000E+00 -0.00000000000E+00 -0.12031442608E+04  0.12031442608E+04  0.50400000000E-02 0. -1.
    8880023    1    1    2    0    0 -0.52135411499E+02  0.36515031150E+03 -0.40422749776E+03  0.85630772934E+03  0.65864270000E+03 0.  0.
    8880022    1    1    2    0    0  0.52135411499E+02 -0.36515031150E+03 -0.50329600330E+03  0.64245729124E+03  0.15294330000E+03 0.  0.
<mgrwt>
<rscale>  0 0.64378393E+03</rscale>
<asrwt>0</asrwt>
<pdfrwt beam="1">  1        1 0.18509911E+00 0.75489275E+03</pdfrwt>
<pdfrwt beam="2">  1       -1 0.45480118E-01 0.75489275E+03</pdfrwt>
<totfact> 0.52292182E+01</totfact>
</mgrwt>
</event>
<event>
 4    1  0.2514307E-008  0.1662390E+04  0.7818608E-02  0.8802738E-01
         -1   -1    0    0    0  501 -0.00000000000E+00  0.00000000000E+00  0.11455896970E+04  0.11455896970E+04  0.50400000000E-02 0.  1.
          1   -1    0    0  501    0  0.00000000000E+00 -0.00000000000E+00 -0.28196339756E+04  0.28196339756E+04  0.50400000000E-02 0. -1.
    8880023    1    1    2    0    0 -0.11770803915E+04  0.97170494351E+03  0.42753145223E+02  0.16629392001E+04  0.65864270000E+03 0.  0.
    8880022    1    1    2    0    0  0.11770803915E+04 -0.97170494351E+03 -0.17167974238E+04  0.23022844726E+04  0.15294330000E+03 0.  0.
<mgrwt>
<rscale>  0 0.16293152E+04</rscale>
<asrwt>0</asrwt>
<pdfrwt beam="1">  1        1 0.43378984E+00 0.16623895E+04</pdfrwt>
<pdfrwt beam="2">  1       -1 0.17624457E+00 0.16623895E+04</pdfrwt>
<totfact> 0.16631179E-01</totfact>
</mgrwt>
</event>
<event>
 4    1  0.2514307E-008  0.1182664E+04  0.7818608E-02  0.9174161E-01
         -1   -1    0    0    0  501 -0.00000000000E+00  0.00000000000E+00  0.11304350636E+04  0.11304350636E+04  0.50400000000E-02 0.  1.
          1   -1    0    0  501    0  0.00000000000E+00 -0.00000000000E+00 -0.11313922312E+04  0.11313922312E+04  0.50400000000E-02 0. -1.
    8880023    1    1    2    0    0 -0.41693873475E+03  0.88940832717E+03 -0.30663931118E+03  0.12217704180E+04  0.65864270000E+03 0.  0.
    8880022    1    1    2    0    0  0.41693873475E+03 -0.88940832717E+03  0.30568214366E+03  0.10400568768E+04  0.15294330000E+03 0.  0.
<mgrwt>
<rscale>  0 0.11324160E+04</rscale>
<asrwt>0</asrwt>
<pdfrwt beam="1">  1        1 0.17406034E+00 0.11826645E+04</pdfrwt>
<pdfrwt beam="2">  1       -1 0.17391309E+00 0.11826645E+04</pdfrwt>
<totfact> 0.27180820E+00</totfact>
</mgrwt>
</event>
<event>
 4    1  0.2514307E-008  0.9439732E+03  0.7818608E-02  0.9458839E-01
          1   -1    0    0  501    0  0.00000000000E+00  0.00000000000E+00  0.16233828915E+04  0.16233828915E+04  0.50400000000E-02 0. -1.
         -1   -1    0    0    0  501 -0.00000000000E+00 -0.00000000000E+00 -0.82187962207E+03  0.82187962208E+03  0.50400000000E-02 0.  1.
    8880023    1    1    2    0    0  0.23672997394E+03 -0.63343037574E+03 -0.42588641312E+03  0.10355986504E+04  0.65864270000E+03 0.  0.
    8880022    1    1    2    0    0 -0.23672997394E+03  0.63343037574E+03  0.12273896826E+04  0.14096638633E+04  0.15294330000E+03 0.  0.
<mgrwt>
<rscale>  0 0.87387688E+03</rscale>
<asrwt>0</asrwt>
<pdfrwt beam="1">  1        1 0.24975122E+00 0.94397316E+03</pdfrwt>
<pdfrwt beam="2">  1       -1 0.12644302E+00 0.94397316E+03</pdfrwt>
<totfact> 0.29664258E+00</totfact>
</mgrwt>
</event>
<event>
 4    1  0.2514307E-008  0.8374307E+03  0.7818608E-02  0.9635044E-01
         -1   -1    0    0    0  501 -0.00000000000E+00  0.00000000000E+00  0.57336141349E+03  0.57336141351E+03  0.50400000000E-02 0.  1.
          1   -1    0    0  501    0  0.00000000000E+00 -0.00000000000E+00 -0.98412551494E+03  0.98412551495E+03  0.50400000000E-02 0. -1.
    8880023    1    1    2    0    0 -0.23751061305E+03  0.45942217655E+03  0.62767278268E+02  0.83977971225E+03  0.65864270000E+03 0.  0.
    8880022    1    1    2    0    0  0.23751061305E+03 -0.45942217655E+03 -0.47353137971E+03  0.71770721621E+03  0.15294330000E+03 0.  0.
<mgrwt>
<rscale>  0 0.75019532E+03</rscale>
<asrwt>0</asrwt>
<pdfrwt beam="1">  1        1 0.15140393E+00 0.83743073E+03</pdfrwt>
<pdfrwt beam="2">  1       -1 0.88209448E-01 0.83743073E+03</pdfrwt>
<totfact> 0.20030947E+01</totfact>
</mgrwt>
</event>
<event>
 4    1  0.2514307E-008  0.7440065E+03  0.7818608E-02  0.9848426E-01
         -1   -1    0    0    0  501 -0.00000000000E+00  0.00000000000E+00  0.11611952650E+04  0.11611952650E+04  0.50400000000E-02 0.  1.
          1   -1    0    0  501    0  0.00000000000E+00 -0.00000000000E+00 -0.22622248743E+04  0.22622248743E+04  0.50400000000E-02 0. -1.
    8880023    1    1    2    0    0 -0.13836568956E+03 -0.31716000557E+03  0.10235691217E+04  0.12654009192E+04  0.65864270000E+03 0.  1.
    8880022    1    1    2    0    0  0.13836568956E+03  0.31716000557E+03 -0.21245987310E+04  0.21580192201E+04  0.15294330000E+03 0.  0.
<mgrwt>
<rscale>  0 0.62827219E+03</rscale>
<asrwt>0</asrwt>
<pdfrwt beam="1">  1        1 0.34803460E+00 0.74400655E+03</pdfrwt>
<pdfrwt beam="2">  1       -1 0.17864543E+00 0.74400655E+03</pdfrwt>
<totfact> 0.44990275E-01</totfact>
</mgrwt>
</event>
<event>
 4    1  0.2514307E-008  0.8149230E+03  0.7818608E-02  0.9679412E-01
         -1   -1    0    0    0  501 -0.00000000000E+00  0.00000000000E+00  0.46017621698E+03  0.46017621700E+03  0.50400000000E-02 0.  1.
          1   -1    0    0  501    0  0.00000000000E+00 -0.00000000000E+00 -0.14612053393E+04  0.14612053393E+04  0.50400000000E-02 0. -1.
    8880023    1    1    2    0    0 -0.29029610550E+03 -0.38212221822E+03 -0.16031213710E+02  0.81508062460E+03  0.65864270000E+03 0.  1.
    8880022    1    1    2    0    0  0.29029610550E+03  0.38212221822E+03 -0.98499790862E+03  0.11063009317E+04  0.15294330000E+03 0.  0.
<mgrwt>
<rscale>  0 0.72255911E+03</rscale>
<asrwt>0</asrwt>
<pdfrwt beam="1">  1        1 0.22480082E+00 0.81492296E+03</pdfrwt>
<pdfrwt beam="2">  1       -1 0.70796342E-01 0.81492296E+03</pdfrwt>
<totfact> 0.14410814E+01</totfact>
</mgrwt>
</event>
<event>
 4    1  0.2514307E-008  0.1514814E+04  0.7818608E-02  0.8899245E-01
          1   -1    0    0  501    0  0.00000000000E+00  0.00000000000E+00  0.45815308423E+04  0.45815308423E+04  0.50400000000E-02 0. -1.
         -1   -1    0    0    0  501 -0.00000000000E+00 -0.00000000000E+00 -0.77453025143E+03  0.77453025144E+03  0.50400000000E-02 0.  1.
    8880023    1    1    2    0    0 -0.21212491792E+03  0.13475365296E+04  0.23955507866E+03  0.15336389801E+04  0.65864270000E+03 0.  0.
    8880022    1    1    2    0    0  0.21212491792E+03 -0.13475365296E+04  0.35674455122E+04  0.38224221136E+04  0.15294330000E+03 0.  0.
<mgrwt>
<rscale>  0 0.14779564E+04</rscale>
<asrwt>0</asrwt>
<pdfrwt beam="1">  1        1 0.70485090E+00 0.15148141E+04</pdfrwt>
<pdfrwt beam="2">  1       -1 0.11915850E+00 0.15148141E+04</pdfrwt>
<totfact> 0.16262610E-02</totfact>
</mgrwt>
</event>
<event>
 4    1  0.2514307E-008  0.6944197E+03  0.7818608E-02  0.1002119E+00
          1   -1    0    0  501    0  0.00000000000E+00  0.00000000000E+00  0.32954446702E+04  0.32954446702E+04  0.50400000000E-02 0. -1.
         -1   -1    0    0    0  501 -0.00000000000E+00 -0.00000000000E+00 -0.86844420961E+02  0.86844421107E+02  0.50400000000E-02 0.  1.
    8880023    1    1    2    0    0 -0.20489938485E+03  0.80154189962E+02  0.15017092407E+04  0.16544936694E+04  0.65864270000E+03 0.  0.
    8880022    1    1    2    0    0  0.20489938485E+03 -0.80154189962E+02  0.17068910085E+04  0.17277954219E+04  0.15294330000E+03 0.  0.
<mgrwt>
<rscale>  0 0.54730843E+03</rscale>
<asrwt>0</asrwt>
<pdfrwt beam="1">  1        1 0.50699152E+00 0.69441966E+03</pdfrwt>
<pdfrwt beam="2">  1       -1 0.13360679E-01 0.69441966E+03</pdfrwt>
<totfact> 0.15401087E+01</totfact>
</mgrwt>
</event>
<event>
 4    1  0.2514307E-008  0.8053815E+03  0.7818608E-02  0.9699279E-01
          1   -1    0    0  501    0  0.00000000000E+00  0.00000000000E+00  0.18279228380E+04  0.18279228380E+04  0.50400000000E-02 0. -1.
         -1   -1    0    0    0  501 -0.00000000000E+00 -0.00000000000E+00 -0.63613853255E+03  0.63613853257E+03  0.50400000000E-02 0.  1.
    8880023    1    1    2    0    0  0.80700915462E+02  0.45641699318E+03 -0.32665698666E+03  0.86910534610E+03  0.65864270000E+03 0.  0.
    8880022    1    1    2    0    0 -0.80700915462E+02 -0.45641699318E+03  0.15184412921E+04  0.15949560244E+04  0.15294330000E+03 0.  0.
<mgrwt>
<rscale>  0 0.71059750E+03</rscale>
<asrwt>0</asrwt>
<pdfrwt beam="1">  1        1 0.28121889E+00 0.80538147E+03</pdfrwt>
<pdfrwt beam="2">  1       -1 0.97867469E-01 0.80538147E+03</pdfrwt>
<totfact> 0.40531898E+00</totfact>
</mgrwt>
</event>
<event>
 4    1  0.2514307E-008  0.1179339E+04  0.7818608E-02  0.9177473E-01
         -1   -1    0    0    0  501 -0.00000000000E+00  0.00000000000E+00  0.10539478630E+04  0.10539478630E+04  0.50400000000E-02 0.  1.
          1   -1    0    0  501    0  0.00000000000E+00 -0.00000000000E+00 -0.24276807786E+04  0.24276807786E+04  0.50400000000E-02 0. -1.
    8880023    1    1    2    0    0  0.90062843883E+03  0.38196551277E+03 -0.19915405285E+04  0.23145351846E+04  0.65864270000E+03 0. -1.
    8880022    1    1    2    0    0 -0.90062843883E+03 -0.38196551277E+03  0.61780761288E+03  0.11670934570E+04  0.15294330000E+03 0.  0.
<mgrwt>
<rscale>  0 0.11288999E+04</rscale>
<asrwt>0</asrwt>
<pdfrwt beam="1">  1        1 0.37348935E+00 0.11793386E+04</pdfrwt>
<pdfrwt beam="2">  1       -1 0.16214583E+00 0.11793386E+04</pdfrwt>
<totfact> 0.42316076E-01</totfact>
</mgrwt>
</event>
<event>
 4    1  0.2514307E-008  0.7371365E+03  0.7818608E-02  0.9868368E-01
         -1   -1    0    0    0  501 -0.00000000000E+00  0.00000000000E+00  0.58190517555E+03  0.58190517558E+03  0.50400000000E-02 0.  1.
          1   -1    0    0  501    0  0.00000000000E+00 -0.00000000000E+00 -0.10457365599E+04  0.10457365599E+04  0.50400000000E-02 0. -1.
    8880023    1    1    2    0    0 -0.26761440100E+03 -0.19478830304E+03  0.28851958372E+03  0.79158935508E+03  0.65864270000E+03 0.  0.
    8880022    1    1    2    0    0  0.26761440100E+03  0.19478830304E+03 -0.75235096810E+03  0.83605238044E+03  0.15294330000E+03 0.  0.
<mgrwt>
<rscale>  0 0.61819091E+03</rscale>
<asrwt>0</asrwt>
<pdfrwt beam="1">  1        1 0.16088255E+00 0.73713646E+03</pdfrwt>
<pdfrwt beam="2">  1       -1 0.89523873E-01 0.73713646E+03</pdfrwt>
<totfact> 0.17585358E+01</totfact>
</mgrwt>
</event>
<event>
 4    1  0.2514307E-008  0.7276948E+03  0.7818608E-02  0.9897360E-01
          1   -1    0    0  501    0  0.00000000000E+00  0.00000000000E+00  0.18664214135E+04  0.18664214135E+04  0.50400000000E-02 0. -1.
         -1   -1    0    0    0  501 -0.00000000000E+00 -0.00000000000E+00 -0.33209291051E+03  0.33209291055E+03  0.50400000000E-02 0.  1.
    8880023    1    1    2    0    0  0.13685577052E+03  0.27748873317E+03  0.11365413242E+03  0.73651677988E+03  0.65864270000E+03 0.  0.
    8880022    1    1    2    0    0 -0.13685577052E+03 -0.27748873317E+03  0.14206743706E+04  0.14619975442E+04  0.15294330000E+03 0.  0.
<mgrwt>
<rscale>  0 0.60389378E+03</rscale>
<asrwt>0</asrwt>
<pdfrwt beam="1">  1        1 0.28714175E+00 0.72769479E+03</pdfrwt>
<pdfrwt beam="2">  1       -1 0.51091218E-01 0.72769479E+03</pdfrwt>
<totfact> 0.14776023E+01</totfact>
</mgrwt>
</event>
<event>
 4    1  0.2514307E-008  0.8909752E+03  0.7818608E-02  0.9540677E-01
          1   -1    0    0  501    0  0.00000000000E+00  0.00000000000E+00  0.14242147041E+04  0.14242147041E+04  0.50400000000E-02 0. -1.
         -1   -1    0    0    0  501 -0.00000000000E+00 -0.00000000000E+00 -0.14424992227E+04  0.14424992227E+04  0.50400000000E-02 0.  1.
    8880023    1    1    2    0    0 -0.41214564978E+03  0.43607639466E+03 -0.12224406627E+04  0.15126790931E+04  0.65864270000E+03 0.  0.
    8880022    1    1    2    0    0  0.41214564978E+03 -0.43607639466E+03  0.12041561441E+04  0.13540348337E+04  0.15294330000E+03 0.  0.
<mgrwt>
<rscale>  0 0.81350145E+03</rscale>
<asrwt>0</asrwt>
<pdfrwt beam="1">  1        1 0.21910995E+00 0.89097523E+03</pdfrwt>
<pdfrwt beam="2">  1       -1 0.22192296E+00 0.89097523E+03</pdfrwt>
<totfact> 0.81010673E-01</totfact>
</mgrwt>
</event>
<event>
 4    1  0.2514307E-008  0.1289103E+04  0.7818608E-02  0.9075028E-01
         -1   -1    0    0    0  501 -0.00000000000E+00  0.00000000000E+00  0.18270540291E+04  0.18270540291E+04  0.50400000000E-02 0.  1.
          1   -1    0    0  501    0  0.00000000000E+00 -0.00000000000E+00 -0.83660406408E+03  0.83660406410E+03  0.50400000000E-02 0. -1.
    8880023    1    1    2    0    0 -0.79255730068E+03 -0.77448586243E+03  0.22601055017E+03  0.13087652200E+04  0.65864270000E+03 0.  0.
    8880022    1    1    2    0    0  0.79255730068E+03  0.77448586243E+03  0.76443941486E+03  0.13548928732E+04  0.15294330000E+03 0.  0.
<mgrwt>
<rscale>  0 0.12441958E+04</rscale>
<asrwt>0</asrwt>
<pdfrwt beam="1">  1        1 0.12870832E+00 0.12891026E+04</pdfrwt>
<pdfrwt beam="2">  1       -1 0.28108523E+00 0.12891026E+04</pdfrwt>
<totfact> 0.87799041E-01</totfact>
</mgrwt>
</event>
<event>
 4    1  0.2514307E-008  0.9831723E+03  0.7818608E-02  0.9403912E-01
         -1   -1    0    0    0  501 -0.00000000000E+00  0.00000000000E+00  0.11401203188E+04  0.11401203188E+04  0.50400000000E-02 0.  1.
          1   -1    0    0  501    0  0.00000000000E+00 -0.00000000000E+00 -0.85483123333E+03  0.85483123334E+03  0.50400000000E-02 0. -1.
    8880023    1    1    2    0    0 -0.50376781836E+03  0.52823811810E+03  0.63585677181E+03  0.11708721385E+04  0.65864270000E+03 0.  1.
    8880022    1    1    2    0    0  0.50376781836E+03 -0.52823811810E+03 -0.35056768635E+03  0.82407941362E+03  0.15294330000E+03 0.  0.
<mgrwt>
<rscale>  0 0.91754419E+03</rscale>
<asrwt>0</asrwt>
<pdfrwt beam="1">  1        1 0.13151250E+00 0.98317228E+03</pdfrwt>
<pdfrwt beam="2">  1       -1 0.17540313E+00 0.98317228E+03</pdfrwt>
<totfact> 0.44793150E+00</totfact>
</mgrwt>
</event>
<event>
 4    1  0.2514307E-008  0.8105697E+03  0.7818608E-02  0.9688392E-01
         -1   -1    0    0    0  501 -0.00000000000E+00  0.00000000000E+00  0.58595582608E+03  0.58595582611E+03  0.50400000000E-02 0.  1.
          1   -1    0    0  501    0  0.00000000000E+00 -0.00000000000E+00 -0.78170367695E+03  0.78170367697E+03  0.50400000000E-02 0. -1.
    8880023    1    1    2    0    0  0.34130708208E+03  0.32668401780E+03 -0.29249733430E+03  0.86172957974E+03  0.65864270000E+03 0.  0.
    8880022    1    1    2    0    0 -0.34130708208E+03 -0.32668401780E+03  0.96749483433E+02  0.50592992333E+03  0.15294330000E+03 0.  0.
<mgrwt>
<rscale>  0 0.71712178E+03</rscale>
<asrwt>0</asrwt>
<pdfrwt beam="1">  1        1 0.12026210E+00 0.81056966E+03</pdfrwt>
<pdfrwt beam="2">  1       -1 0.90147050E-01 0.81056966E+03</pdfrwt>
<totfact> 0.28149873E+01</totfact>
</mgrwt>
</event>
<event>
 4    1  0.2514307E-008  0.1326490E+04  0.7818608E-02  0.9043015E-01
          1   -1    0    0  501    0  0.00000000000E+00  0.00000000000E+00  0.21758525494E+04  0.21758525494E+04  0.50400000000E-02 0. -1.
         -1   -1    0    0    0  501 -0.00000000000E+00 -0.00000000000E+00 -0.13172384978E+04  0.13172384978E+04  0.50400000000E-02 0.  1.
    8880023    1    1    2    0    0  0.22568194922E+03  0.11290855895E+04 -0.73854435345E+03  0.15182307397E+04  0.65864270000E+03 0.  1.
    8880022    1    1    2    0    0 -0.22568194922E+03 -0.11290855895E+04  0.15971584051E+04  0.19748603076E+04  0.15294330000E+03 0.  0.
<mgrwt>
<rscale>  0 0.12831752E+04</rscale>
<asrwt>0</asrwt>
<pdfrwt beam="1">  1        1 0.33474654E+00 0.13264904E+04</pdfrwt>
<pdfrwt beam="2">  1       -1 0.20265208E+00 0.13264904E+04</pdfrwt>
<totfact> 0.31530859E-01</totfact>
</mgrwt>
</event>
<event>
 4    1  0.2514307E-008  0.7113996E+03  0.7818608E-02  0.9952840E-01
          1   -1    0    0  501    0  0.00000000000E+00  0.00000000000E+00  0.10479998744E+04  0.10479998744E+04  0.50400000000E-02 0. -1.
         -1   -1    0    0    0  501 -0.00000000000E+00 -0.00000000000E+00 -0.45249961903E+03  0.45249961906E+03  0.50400000000E-02 0.  1.
    8880023    1    1    2    0    0 -0.25761289755E+03  0.76907388781E+02 -0.11959007353E+03  0.72138141325E+03  0.65864270000E+03 0.  0.
    8880022    1    1    2    0    0  0.25761289755E+03 -0.76907388781E+02  0.71509032890E+03  0.77911808023E+03  0.15294330000E+03 0.  0.
<mgrwt>
<rscale>  0 0.57767375E+03</rscale>
<asrwt>0</asrwt>
<pdfrwt beam="1">  1        1 0.16123075E+00 0.71139958E+03</pdfrwt>
<pdfrwt beam="2">  1       -1 0.69615327E-01 0.71139958E+03</pdfrwt>
<totfact> 0.29910378E+01</totfact>
</mgrwt>
</event>
<event>
 4    1  0.2514307E-008  0.1000526E+04  0.7818608E-02  0.9380870E-01
         -1   -1    0    0    0  501 -0.00000000000E+00  0.00000000000E+00  0.11277506270E+04  0.11277506270E+04  0.50400000000E-02 0.  1.
          1   -1    0    0  501    0  0.00000000000E+00 -0.00000000000E+00 -0.20800178647E+04  0.20800178647E+04  0.50400000000E-02 0. -1.
    8880023    1    1    2    0    0  0.75303757696E+03  0.13285563071E+02  0.80864684663E+03  0.12864532744E+04  0.65864270000E+03 0.  1.
    8880022    1    1    2    0    0 -0.75303757696E+03 -0.13285563071E+02 -0.17609140844E+04  0.19213152172E+04  0.15294330000E+03 0.  0.
<mgrwt>
<rscale>  0 0.93666884E+03</rscale>
<asrwt>0</asrwt>
<pdfrwt beam="1">  1        1 0.32000275E+00 0.10005260E+04</pdfrwt>
<pdfrwt beam="2">  1       -1 0.17350010E+00 0.10005260E+04</pdfrwt>
<totfact> 0.61758957E-01</totfact>
</mgrwt>
</event>
<event>
 4    1  0.2514307E-008  0.7358846E+03  0.7818608E-02  0.9872101E-01
          1   -1    0    0  501    0  0.00000000000E+00  0.00000000000E+00  0.23178573911E+04  0.23178573911E+04  0.50400000000E-02 0. -1.
         -1   -1    0    0    0  501 -0.00000000000E+00 -0.00000000000E+00 -0.28755806040E+03  0.28755806044E+03  0.50400000000E-02 0.  1.
    8880023    1    1    2    0    0 -0.14115909773E+03 -0.29629395115E+03  0.23283096181E+03  0.77183965913E+03  0.65864270000E+03 0.  1.
    8880022    1    1    2    0    0  0.14115909773E+03  0.29629395115E+03  0.17974683689E+04  0.18335757924E+04  0.15294330000E+03 0.  0.
<mgrwt>
<rscale>  0 0.61632645E+03</rscale>
<asrwt>0</asrwt>
<pdfrwt beam="1">  1        1 0.35659345E+00 0.73588464E+03</pdfrwt>
<pdfrwt beam="2">  1       -1 0.44239701E-01 0.73588464E+03</pdfrwt>
<totfact> 0.96368092E+00</totfact>
</mgrwt>
</event>
<event>
 4    1  0.2514307E-008  0.7171821E+03  0.7818608E-02  0.9932239E-01
         -1   -1    0    0    0  501 -0.00000000000E+00  0.00000000000E+00  0.48529116757E+03  0.48529116760E+03  0.50400000000E-02 0.  1.
          1   -1    0    0  501    0  0.00000000000E+00 -0.00000000000E+00 -0.16181570436E+04  0.16181570436E+04  0.50400000000E-02 0. -1.
    8880023    1    1    2    0    0 -0.24535166912E+03  0.14262696939E+03  0.18995350316E+03  0.74191133807E+03  0.65864270000E+03 0.  1.
    8880022    1    1    2    0    0  0.24535166912E+03 -0.14262696939E+03 -0.13228193792E+04  0.13615368732E+04  0.15294330000E+03 0.  0.
<mgrwt>
<rscale>  0 0.58723980E+03</rscale>
<asrwt>0</asrwt>
<pdfrwt beam="1">  1        1 0.24894724E+00 0.71718206E+03</pdfrwt>
<pdfrwt beam="2">  1       -1 0.74660180E-01 0.71718206E+03</pdfrwt>
<totfact> 0.10230076E+01</totfact>
</mgrwt>
</event>
<event>
 4    1  0.2514307E-008  0.6876367E+03  0.7818608E-02  0.1005297E+00
         -1   -1    0    0    0  501 -0.00000000000E+00  0.00000000000E+00  0.47787778100E+03  0.47787778103E+03  0.50400000000E-02 0.  1.
          1   -1    0    0  501    0  0.00000000000E+00 -0.00000000000E+00 -0.20080238862E+04  0.20080238862E+04  0.50400000000E-02 0. -1.
    8880023    1    1    2    0    0 -0.12874876783E+02 -0.19715025530E+03  0.21693571255E+03  0.72104458618E+03  0.65864270000E+03 0.  1.
    8880022    1    1    2    0    0  0.12874876783E+02  0.19715025530E+03 -0.17470818177E+04  0.17648570810E+04  0.15294330000E+03 0.  0.
<mgrwt>
<rscale>  0 0.53387508E+03</rscale>
<asrwt>0</asrwt>
<pdfrwt beam="1">  1        1 0.30892675E+00 0.68763667E+03</pdfrwt>
<pdfrwt beam="2">  1       -1 0.73519660E-01 0.68763667E+03</pdfrwt>
<totfact> 0.58203368E+00</totfact>
</mgrwt>
</event>
<event>
 4    1  0.2514307E-008  0.1056581E+04  0.7818608E-02  0.9311012E-01
         -1   -1    0    0    0  501 -0.00000000000E+00  0.00000000000E+00  0.16362107291E+04  0.16362107292E+04  0.50400000000E-02 0.  1.
          1   -1    0    0  501    0  0.00000000000E+00 -0.00000000000E+00 -0.13860298290E+04  0.13860298290E+04  0.50400000000E-02 0. -1.
    8880023    1    1    2    0    0  0.57567885874E+02  0.82415961141E+03 -0.10400266445E+04  0.14825716691E+04  0.65864270000E+03 0.  0.
    8880022    1    1    2    0    0 -0.57567885874E+02 -0.82415961141E+03  0.12902075446E+04  0.15396688890E+04  0.15294330000E+03 0.  0.
<mgrwt>
<rscale>  0 0.99775389E+03</rscale>
<asrwt>0</asrwt>
<pdfrwt beam="1">  1        1 0.21323536E+00 0.10565810E+04</pdfrwt>
<pdfrwt beam="2">  1       -1 0.25172473E+00 0.10565810E+04</pdfrwt>
<totfact> 0.53461357E-01</totfact>
</mgrwt>
</event>
<event>
 4    1  0.2514307E-008  0.6876094E+03  0.7818608E-02  0.1005310E+00
          1   -1    0    0  501    0  0.00000000000E+00  0.00000000000E+00  0.16488671572E+04  0.16488671572E+04  0.50400000000E-02 0. -1.
         -1   -1    0    0    0  501 -0.00000000000E+00 -0.00000000000E+00 -0.37453311344E+03  0.37453311347E+03  0.50400000000E-02 0.  1.
    8880023    1    1    2    0    0  0.19323183147E+03  0.40718471512E+02 -0.36889866776E+02  0.68859828866E+03  0.65864270000E+03 0.  1.
    8880022    1    1    2    0    0 -0.19323183147E+03 -0.40718471512E+02  0.13112239106E+04  0.13348019821E+04  0.15294330000E+03 0.  0.
<mgrwt>
<rscale>  0 0.53381917E+03</rscale>
<asrwt>0</asrwt>
<pdfrwt beam="1">  1        1 0.25367187E+00 0.68760944E+03</pdfrwt>
<pdfrwt beam="2">  1       -1 0.57620479E-01 0.68760944E+03</pdfrwt>
<totfact> 0.16502902E+01</totfact>
</mgrwt>
</event>
<event>
 4    1  0.2514307E-008  0.9667496E+03  0.7818608E-02  0.9426414E-01
          1   -1    0    0  501    0  0.00000000000E+00  0.00000000000E+00  0.35186723871E+04  0.35186723871E+04  0.50400000000E-02 0. -1.
         -1   -1    0    0    0  501 -0.00000000000E+00 -0.00000000000E+00 -0.35263189053E+03  0.35263189056E+03  0.50400000000E-02 0.  1.
    8880023    1    1    2    0    0 -0.61199674846E+03  0.35532323064E+03  0.46098269535E+03  0.10710321517E+04  0.65864270000E+03 0. -1.
    8880022    1    1    2    0    0  0.61199674846E+03 -0.35532323064E+03  0.27050578012E+04  0.28002721260E+04  0.15294330000E+03 0.  0.
<mgrwt>
<rscale>  0 0.89933441E+03</rscale>
<asrwt>0</asrwt>
<pdfrwt beam="1">  1        1 0.54133423E+00 0.96674962E+03</pdfrwt>
<pdfrwt beam="2">  1       -1 0.54251059E-01 0.96674962E+03</pdfrwt>
<totfact> 0.86706103E-01</totfact>
</mgrwt>
</event>
<event>
 4    1  0.2514307E-008  0.9548979E+03  0.7818608E-02  0.9443102E-01
          1   -1    0    0  501    0  0.00000000000E+00  0.00000000000E+00  0.21356262330E+04  0.21356262330E+04  0.50400000000E-02 0. -1.
         -1   -1    0    0    0  501 -0.00000000000E+00 -0.00000000000E+00 -0.90211257160E+03  0.90211257162E+03  0.50400000000E-02 0.  1.
    8880023    1    1    2    0    0  0.60921893791E+01 -0.69136287706E+03 -0.56174654819E+03  0.11078759557E+04  0.65864270000E+03 0.  0.
    8880022    1    1    2    0    0 -0.60921893791E+01  0.69136287706E+03  0.17952602096E+04  0.19298628489E+04  0.15294330000E+03 0.  0.
<mgrwt>
<rscale>  0 0.88611884E+03</rscale>
<asrwt>0</asrwt>
<pdfrwt beam="1">  1        1 0.32855788E+00 0.95489787E+03</pdfrwt>
<pdfrwt beam="2">  1       -1 0.13878655E+00 0.95489787E+03</pdfrwt>
<totfact> 0.10543852E+00</totfact>
</mgrwt>
</event>
<event>
 4    1  0.2514307E-008  0.1373600E+04  0.7818608E-02  0.9004472E-01
         -1   -1    0    0    0  501 -0.00000000000E+00  0.00000000000E+00  0.84287485846E+03  0.84287485847E+03  0.50400000000E-02 0.  1.
          1   -1    0    0  501    0  0.00000000000E+00 -0.00000000000E+00 -0.31383945227E+04  0.31383945227E+04  0.50400000000E-02 0. -1.
    8880023    1    1    2    0    0 -0.49611309641E+03  0.10985623412E+04  0.11712194248E+02  0.13736501751E+04  0.65864270000E+03 0.  0.
    8880022    1    1    2    0    0  0.49611309641E+03 -0.10985623412E+04 -0.23072318585E+04  0.26076192060E+04  0.15294330000E+03 0.  0.
<mgrwt>
<rscale>  0 0.13321228E+04</rscale>
<asrwt>0</asrwt>
<pdfrwt beam="1">  1        1 0.48282992E+00 0.13736002E+04</pdfrwt>
<pdfrwt beam="2">  1       -1 0.12967306E+00 0.13736002E+04</pdfrwt>
<totfact> 0.23427109E-01</totfact>
</mgrwt>
</event>
<event>
 4    1  0.2514307E-008  0.8819785E+03  0.7818608E-02  0.9555604E-01
         -1   -1    0    0    0  501 -0.00000000000E+00  0.00000000000E+00  0.73674393795E+03  0.73674393796E+03  0.50400000000E-02 0.  1.
          1   -1    0    0  501    0  0.00000000000E+00 -0.00000000000E+00 -0.12421718610E+04  0.12421718610E+04  0.50400000000E-02 0. -1.
    8880023    1    1    2    0    0 -0.15680815461E+03  0.56523183468E+03  0.33433267903E+03  0.94322021332E+03  0.65864270000E+03 0.  1.
    8880022    1    1    2    0    0  0.15680815461E+03 -0.56523183468E+03 -0.83976060204E+03  0.10356955856E+04  0.15294330000E+03 0.  0.
<mgrwt>
<rscale>  0 0.80305604E+03</rscale>
<asrwt>0</asrwt>
<pdfrwt beam="1">  1        1 0.19110336E+00 0.88197848E+03</pdfrwt>
<pdfrwt beam="2">  1       -1 0.11334522E+00 0.88197848E+03</pdfrwt>
<totfact> 0.72015012E+00</totfact>
</mgrwt>
</event>
<event>
 4    1  0.2514307E-008  0.6939195E+03  0.7818608E-02  0.1002343E+00
         -1   -1    0    0    0  501 -0.00000000000E+00  0.00000000000E+00  0.22917707087E+03  0.22917707092E+03  0.50400000000E-02 0.  1.
          1   -1    0    0  501    0  0.00000000000E+00 -0.00000000000E+00 -0.31148370921E+04  0.31148370921E+04  0.50400000000E-02 0. -1.
    8880023    1    1    2    0    0 -0.75599758694E+02 -0.20493606156E+03 -0.31933231323E+03  0.76387004482E+03  0.65864270000E+03 0.  1.
    8880022    1    1    2    0    0  0.75599758694E+02  0.20493606156E+03 -0.25663277080E+04  0.25801441182E+04  0.15294330000E+03 0.  0.
<mgrwt>
<rscale>  0 0.54634873E+03</rscale>
<asrwt>0</asrwt>
<pdfrwt beam="1">  1        1 0.47920567E+00 0.69391953E+03</pdfrwt>
<pdfrwt beam="2">  1       -1 0.35258013E-01 0.69391953E+03</pdfrwt>
<totfact> 0.40835945E+00</totfact>
</mgrwt>
</event>
<event>
 4    1  0.2514307E-008  0.6703543E+03  0.7818608E-02  0.1015410E+00
         -1   -1    0    0    0  501 -0.00000000000E+00  0.00000000000E+00  0.38617132428E+03  0.38617132431E+03  0.50400000000E-02 0.  1.
          1   -1    0    0  501    0  0.00000000000E+00 -0.00000000000E+00 -0.12618592972E+04  0.12618592972E+04  0.50400000000E-02 0. -1.
    8880023    1    1    2    0    0 -0.11904998477E+03 -0.37307186843E+02  0.77319886271E+02  0.67479870787E+03  0.65864270000E+03 0.  1.
    8880022    1    1    2    0    0  0.11904998477E+03  0.37307186843E+02 -0.95300785919E+03  0.97323191366E+03  0.15294330000E+03 0.  0.
<mgrwt>
<rscale>  0 0.49379949E+03</rscale>
<asrwt>0</asrwt>
<pdfrwt beam="1">  1        1 0.19413220E+00 0.67035433E+03</pdfrwt>
<pdfrwt beam="2">  1       -1 0.59410974E-01 0.67035433E+03</pdfrwt>
<totfact> 0.28781683E+01</totfact>
</mgrwt>
</event>
<event>
 4    1  0.2514307E-008  0.1101321E+04  0.7818608E-02  0.9259587E-01
          1   -1    0    0  501    0  0.00000000000E+00  0.00000000000E+00  0.16009150023E+04  0.16009150023E+04  0.50400000000E-02 0. -1.
         -1   -1    0    0    0  501 -0.00000000000E+00 -0.00000000000E+00 -0.10995997623E+04  0.10995997623E+04  0.50400000000E-02 0.  1.
    8880023    1    1    2    0    0  0.85105305857E+03 -0.23410590697E+03 -0.62114402019E+03  0.12644077603E+04  0.65864270000E+03 0.  0.
    8880022    1    1    2    0    0 -0.85105305857E+03  0.23410590697E+03  0.11224592601E+04  0.14361070043E+04  0.15294330000E+03 0.  0.
<mgrwt>
<rscale>  0 0.10459000E+04</rscale>
<asrwt>0</asrwt>
<pdfrwt beam="1">  1        1 0.24629462E+00 0.11013206E+04</pdfrwt>
<pdfrwt beam="2">  1       -1 0.16916919E+00 0.11013206E+04</pdfrwt>
<totfact> 0.13804902E+00</totfact>
</mgrwt>
</event>
<event>
 4    1  0.2514307E-008  0.1158726E+04  0.7818608E-02  0.9198327E-01
         -1   -1    0    0    0  501 -0.00000000000E+00  0.00000000000E+00  0.98408712022E+03  0.98408712023E+03  0.50400000000E-02 0.  1.
          1   -1    0    0  501    0  0.00000000000E+00 -0.00000000000E+00 -0.11786840373E+04  0.11786840373E+04  0.50400000000E-02 0. -1.
    8880023    1    1    2    0    0  0.26541287103E+03  0.91563721300E+03  0.72490856573E+02  0.11609912267E+04  0.65864270000E+03 0.  0.
    8880022    1    1    2    0    0 -0.26541287103E+03 -0.91563721300E+03 -0.26708777362E+03  0.10017799308E+04  0.15294330000E+03 0.  0.
<mgrwt>
<rscale>  0 0.11070717E+04</rscale>
<asrwt>0</asrwt>
<pdfrwt beam="1">  1        1 0.18133601E+00 0.11587259E+04</pdfrwt>
<pdfrwt beam="2">  1       -1 0.15139802E+00 0.11587259E+04</pdfrwt>
<totfact> 0.37146726E+00</totfact>
</mgrwt>
</event>
<event>
 4    1  0.2514307E-008  0.7741274E+03  0.7818608E-02  0.9769817E-01
         -1   -1    0    0    0  501 -0.00000000000E+00  0.00000000000E+00  0.20307756698E+03  0.20307756704E+03  0.50400000000E-02 0.  1.
          1   -1    0    0  501    0  0.00000000000E+00 -0.00000000000E+00 -0.35499907392E+04  0.35499907392E+04  0.50400000000E-02 0. -1.
    8880023    1    1    2    0    0  0.16862747637E+03 -0.37017270493E+03 -0.32030968536E+04  0.32953152683E+04  0.65864270000E+03 0. -1.
    8880022    1    1    2    0    0 -0.16862747637E+03  0.37017270493E+03 -0.14381631858E+03  0.45775303796E+03  0.15294330000E+03 0.  0.
<mgrwt>
<rscale>  0 0.67007793E+03</rscale>
<asrwt>0</asrwt>
<pdfrwt beam="1">  1        1 0.54615238E+00 0.77412742E+03</pdfrwt>
<pdfrwt beam="2">  1       -1 0.31242705E-01 0.77412742E+03</pdfrwt>
<totfact> 0.23411129E+00</totfact>
</mgrwt>
</event>
<event>
 4    1  0.2514307E-008  0.6682843E+03  0.7818608E-02  0.1016924E+00
          1   -1    0    0  501    0  0.00000000000E+00  0.00000000000E+00  0.13355210808E+04  0.13355210808E+04  0.50400000000E-02 0. -1.
         -1   -1    0    0    0  501 -0.00000000000E+00 -0.00000000000E+00 -0.15390765458E+03  0.15390765467E+03  0.50400000000E-02 0.  1.
    8880023    1    1    2    0    0 -0.11260090888E+03 -0.10712524095E+02  0.68207896168E+03  0.95490085301E+03  0.65864270000E+03 0.  0.
    8880022    1    1    2    0    0  0.11260090888E+03  0.10712524095E+02  0.49953446451E+03  0.53452788243E+03  0.15294330000E+03 0.  0.
<mgrwt>
<rscale>  0 0.48813235E+03</rscale>
<asrwt>0</asrwt>
<pdfrwt beam="1">  1        1 0.20546478E+00 0.66828432E+03</pdfrwt>
<pdfrwt beam="2">  1       -1 0.23678100E-01 0.66828432E+03</pdfrwt>
<totfact> 0.13456549E+02</totfact>
</mgrwt>
</event>
<event>
 4    1  0.2514307E-008  0.6640021E+03  0.7818608E-02  0.1020386E+00
         -1   -1    0    0    0  501 -0.00000000000E+00  0.00000000000E+00  0.23274004596E+03  0.23274004601E+03  0.50400000000E-02 0.  1.
          1   -1    0    0  501    0  0.00000000000E+00 -0.00000000000E+00 -0.75802732637E+03  0.75802732639E+03  0.50400000000E-02 0. -1.
    8880023    1    1    2    0    0  0.79921024560E+02  0.26479538842E+02 -0.43918225613E+03  0.79610288060E+03  0.65864270000E+03 0. -1.
    8880022    1    1    2    0    0 -0.79921024560E+02 -0.26479538842E+02 -0.86105024283E+02  0.19466449179E+03  0.15294330000E+03 0. -1.
<mgrwt>
<rscale>  0 0.47547674E+03</rscale>
<asrwt>0</asrwt>
<pdfrwt beam="1">  1        1 0.11661959E+00 0.66400207E+03</pdfrwt>
<pdfrwt beam="2">  1       -1 0.35806161E-01 0.66400207E+03</pdfrwt>
<totfact> 0.18289645E+02</totfact>
</mgrwt>
</event>
<event>
 4    1  0.2514307E-008  0.1470625E+04  0.7818608E-02  0.8930662E-01
         -1   -1    0    0    0  501 -0.00000000000E+00  0.00000000000E+00  0.15934472737E+04  0.15934472737E+04  0.50400000000E-02 0.  1.
          1   -1    0    0  501    0  0.00000000000E+00 -0.00000000000E+00 -0.17325985893E+04  0.17325985893E+04  0.50400000000E-02 0. -1.
    8880023    1    1    2    0    0 -0.12051955861E+04  0.52576799222E+03  0.82700686502E+03  0.16872104028E+04  0.65864270000E+03 0.  0.
    8880022    1    1    2    0    0  0.12051955861E+04 -0.52576799222E+03 -0.96615818069E+03  0.16388354602E+04  0.15294330000E+03 0.  0.
<mgrwt>
<rscale>  0 0.14324458E+04</rscale>
<asrwt>0</asrwt>
<pdfrwt beam="1">  1        1 0.26655363E+00 0.14706252E+04</pdfrwt>
<pdfrwt beam="2">  1       -1 0.24514573E+00 0.14706252E+04</pdfrwt>
<totfact> 0.32186951E-01</totfact>
</mgrwt>
</event>
<event>
 4    1  0.2514307E-008  0.1424686E+04  0.7818608E-02  0.8964734E-01
          1   -1    0    0  501    0  0.00000000000E+00  0.00000000000E+00  0.34710128979E+04  0.34710128979E+04  0.50400000000E-02 0. -1.
         -1   -1    0    0    0  501 -0.00000000000E+00 -0.00000000000E+00 -0.81403234635E+03  0.81403234636E+03  0.50400000000E-02 0.  1.
    8880023    1    1    2    0    0  0.12626759978E+04 -0.39631407864E+02  0.99120186615E+02  0.14281303657E+04  0.65864270000E+03 0.  0.
    8880022    1    1    2    0    0 -0.12626759978E+04  0.39631407864E+02  0.25578603649E+04  0.28569148785E+04  0.15294330000E+03 0.  0.
<mgrwt>
<rscale>  0 0.13850193E+04</rscale>
<asrwt>0</asrwt>
<pdfrwt beam="1">  1        1 0.53400198E+00 0.14246865E+04</pdfrwt>
<pdfrwt beam="2">  1       -1 0.12523575E+00 0.14246865E+04</pdfrwt>
<totfact> 0.14210537E-01</totfact>
</mgrwt>
</event>
<event>
 4    1  0.2514307E-008  0.8385195E+03  0.7818608E-02  0.9632978E-01
         -1   -1    0    0    0  501 -0.00000000000E+00  0.00000000000E+00  0.11683740329E+04  0.11683740329E+04  0.50400000000E-02 0.  1.
          1   -1    0    0  501    0  0.00000000000E+00 -0.00000000000E+00 -0.63095502543E+03  0.63095502545E+03  0.50400000000E-02 0. -1.
    8880023    1    1    2    0    0  0.40047222032E+03  0.33004046118E+03  0.83374790864E+03  0.11824764212E+04  0.65864270000E+03 0.  0.
    8880022    1    1    2    0    0 -0.40047222032E+03 -0.33004046118E+03 -0.29632890119E+03  0.61685263715E+03  0.15294330000E+03 0.  1.
<mgrwt>
<rscale>  0 0.75151392E+03</rscale>
<asrwt>0</asrwt>
<pdfrwt beam="1">  1        1 0.97070005E-01 0.83851948E+03</pdfrwt>
<pdfrwt beam="2">  1       -1 0.17974985E+00 0.83851948E+03</pdfrwt>
<totfact> 0.67938006E+00</totfact>
</mgrwt>
</event>
<event>
 4    1  0.2514307E-008  0.7678729E+03  0.7818608E-02  0.9785136E-01
          1   -1    0    0  501    0  0.00000000000E+00  0.00000000000E+00  0.10824161224E+04  0.10824161224E+04  0.50400000000E-02 0. -1.
         -1   -1    0    0    0  501 -0.00000000000E+00 -0.00000000000E+00 -0.44165007622E+03  0.44165007624E+03  0.50400000000E-02 0.  1.
    8880023    1    1    2    0    0 -0.53995274548E+02 -0.39102820633E+03  0.14335038135E+02  0.76800667145E+03  0.65864270000E+03 0.  0.
    8880022    1    1    2    0    0  0.53995274548E+02  0.39102820633E+03  0.62643100807E+03  0.75605952723E+03  0.15294330000E+03 0.  0.
<mgrwt>
<rscale>  0 0.66166374E+03</rscale>
<asrwt>0</asrwt>
<pdfrwt beam="1">  1        1 0.16652556E+00 0.76787288E+03</pdfrwt>
<pdfrwt beam="2">  1       -1 0.67946166E-01 0.76787288E+03</pdfrwt>
<totfact> 0.29410586E+01</totfact>
</mgrwt>
</event>
<event>
 4    1  0.2514307E-008  0.6744696E+03  0.7818608E-02  0.1012643E+00
          1   -1    0    0  501    0  0.00000000000E+00  0.00000000000E+00  0.39625380492E+03  0.39625380495E+03  0.50400000000E-02 0. -1.
         -1   -1    0    0    0  501 -0.00000000000E+00 -0.00000000000E+00 -0.13350801759E+04  0.13350801759E+04  0.50400000000E-02 0.  1.
    8880023    1    1    2    0    0  0.14154378989E+03  0.32624050439E+02 -0.12115039129E+04  0.13865968810E+04  0.65864270000E+03 0.  1.
    8880022    1    1    2    0    0 -0.14154378989E+03 -0.32624050439E+02  0.27267754194E+03  0.34473709986E+03  0.15294330000E+03 0.  0.
<mgrwt>
<rscale>  0 0.50437706E+03</rscale>
<asrwt>0</asrwt>
<pdfrwt beam="1">  1        1 0.60962124E-01 0.67446955E+03</pdfrwt>
<pdfrwt beam="2">  1       -1 0.20539695E+00 0.67446955E+03</pdfrwt>
<totfact> 0.87570369E+00</totfact>
</mgrwt>
</event>
<event>
 4    1  0.2514307E-008  0.1259128E+04  0.7818608E-02  0.9101684E-01
          1   -1    0    0  501    0  0.00000000000E+00  0.00000000000E+00  0.81652955444E+03  0.81652955446E+03  0.50400000000E-02 0. -1.
         -1   -1    0    0    0  501 -0.00000000000E+00 -0.00000000000E+00 -0.17230107880E+04  0.17230107881E+04  0.50400000000E-02 0.  1.
    8880023    1    1    2    0    0 -0.10592365959E+04 -0.17207767277E+03 -0.28838407510E+03  0.12917308050E+04  0.65864270000E+03 0.  0.
    8880022    1    1    2    0    0  0.10592365959E+04  0.17207767277E+03 -0.61809715851E+03  0.12478095375E+04  0.15294330000E+03 0. -1.
<mgrwt>
<rscale>  0 0.12128481E+04</rscale>
<asrwt>0</asrwt>
<pdfrwt beam="1">  1        1 0.12561993E+00 0.12591279E+04</pdfrwt>
<pdfrwt beam="2">  1       -1 0.26507858E+00 0.12591279E+04</pdfrwt>
<totfact> 0.11633463E+00</totfact>
</mgrwt>
</event>
<event>
 4    1  0.2514307E-008  0.1710044E+04  0.7818608E-02  0.8774000E-01
         -1   -1    0    0    0  501 -0.00000000000E+00  0.00000000000E+00  0.10399650527E+04  0.10399650528E+04  0.50400000000E-02 0.  1.
          1   -1    0    0  501    0  0.00000000000E+00 -0.00000000000E+00 -0.33721263174E+04  0.33721263174E+04  0.50400000000E-02 0. -1.
    8880023    1    1    2    0    0 -0.11866830408E+04  0.10402996198E+04 -0.15258318064E+03  0.17168377243E+04  0.65864270000E+03 0.  1.
    8880022    1    1    2    0    0  0.11866830408E+04 -0.10402996198E+04 -0.21795780840E+04  0.26952536459E+04  0.15294330000E+03 0.  0.
<mgrwt>
<rscale>  0 0.16780213E+04</rscale>
<asrwt>0</asrwt>
<pdfrwt beam="1">  1        1 0.51878866E+00 0.17100439E+04</pdfrwt>
<pdfrwt beam="2">  1       -1 0.15999463E+00 0.17100439E+04</pdfrwt>
<totfact> 0.85381394E-02</totfact>
</mgrwt>
</event>
<event>
 4    1  0.2514307E-008  0.6972602E+03  0.7818608E-02  0.1000876E+00
         -1   -1    0    0    0  501 -0.00000000000E+00  0.00000000000E+00  0.32613505053E+03  0.32613505057E+03  0.50400000000E-02 0.  1.
          1   -1    0    0  501    0  0.00000000000E+00 -0.00000000000E+00 -0.24274382253E+04  0.24274382253E+04  0.50400000000E-02 0. -1.
    8880023    1    1    2    0    0  0.22350279734E+03  0.49071649625E+02 -0.66705436225E+02  0.70044367989E+03  0.65864270000E+03 0.  1.
    8880022    1    1    2    0    0 -0.22350279734E+03 -0.49071649625E+02 -0.20345977386E+04  0.20531295960E+04  0.15294330000E+03 0.  0.
<mgrwt>
<rscale>  0 0.55267682E+03</rscale>
<asrwt>0</asrwt>
<pdfrwt beam="1">  1        1 0.37345202E+00 0.69726016E+03</pdfrwt>
<pdfrwt beam="2">  1       -1 0.50174625E-01 0.69726016E+03</pdfrwt>
<totfact> 0.64636817E+00</totfact>
</mgrwt>
</event>
<event>
 4    1  0.2514307E-008  0.6647968E+03  0.7818608E-02  0.1019704E+00
         -1   -1    0    0    0  501 -0.00000000000E+00  0.00000000000E+00  0.45268886537E+03  0.45268886540E+03  0.50400000000E-02 0.  1.
          1   -1    0    0  501    0  0.00000000000E+00 -0.00000000000E+00 -0.10790437200E+04  0.10790437200E+04  0.50400000000E-02 0. -1.
    8880023    1    1    2    0    0  0.37265328310E+02 -0.82194318878E+02  0.19388207012E+03  0.69249193073E+03  0.65864270000E+03 0.  1.
    8880022    1    1    2    0    0 -0.37265328310E+02  0.82194318878E+02 -0.82023692474E+03  0.83924065468E+03  0.15294330000E+03 0.  0.
<mgrwt>
<rscale>  0 0.47793406E+03</rscale>
<asrwt>0</asrwt>
<pdfrwt beam="1">  1        1 0.16600673E+00 0.66479682E+03</pdfrwt>
<pdfrwt beam="2">  1       -1 0.69644441E-01 0.66479682E+03</pdfrwt>
<totfact> 0.28481034E+01</totfact>
</mgrwt>
</event>
<event>
 4    1  0.2514307E-008  0.8912683E+03  0.7818608E-02  0.9540197E-01
         -1   -1    0    0    0  501 -0.00000000000E+00  0.00000000000E+00  0.45196125733E+03  0.45196125736E+03  0.50400000000E-02 0.  1.
          1   -1    0    0  501    0  0.00000000000E+00 -0.00000000000E+00 -0.37002319875E+04  0.37002319875E+04  0.50400000000E-02 0. -1.
    8880023    1    1    2    0    0 -0.14215072789E+03  0.58338846865E+03 -0.48076644316E+02  0.89256400599E+03  0.65864270000E+03 0.  1.
    8880022    1    1    2    0    0  0.14215072789E+03 -0.58338846865E+03 -0.32001940858E+04  0.32596292389E+04  0.15294330000E+03 0.  0.
<mgrwt>
<rscale>  0 0.81384058E+03</rscale>
<asrwt>0</asrwt>
<pdfrwt beam="1">  1        1 0.56926644E+00 0.89126828E+03</pdfrwt>
<pdfrwt beam="2">  1       -1 0.69532504E-01 0.89126828E+03</pdfrwt>
<totfact> 0.38525020E-01</totfact>
</mgrwt>
</event>
<event>
 4    1  0.2514307E-008  0.1077477E+04  0.7818608E-02  0.9286556E-01
          1   -1    0    0  501    0  0.00000000000E+00  0.00000000000E+00  0.17619644250E+04  0.17619644250E+04  0.50400000000E-02 0. -1.
         -1   -1    0    0    0  501 -0.00000000000E+00 -0.00000000000E+00 -0.10557245984E+04  0.10557245985E+04  0.50400000000E-02 0.  1.
    8880023    1    1    2    0    0  0.30169790118E+03 -0.79757496108E+03 -0.61282883729E+03  0.12395631618E+04  0.65864270000E+03 0.  1.
    8880022    1    1    2    0    0 -0.30169790118E+03  0.79757496108E+03  0.13190686639E+04  0.15781258616E+04  0.15294330000E+03 0.  0.
<mgrwt>
<rscale>  0 0.10202998E+04</rscale>
<asrwt>0</asrwt>
<pdfrwt beam="1">  1        1 0.27107145E+00 0.10774774E+04</pdfrwt>
<pdfrwt beam="2">  1       -1 0.16241917E+00 0.10774774E+04</pdfrwt>
<totfact> 0.12081033E+00</totfact>
</mgrwt>
</event>
<event>
 4    1  0.2514307E-008  0.1060402E+04  0.7818608E-02  0.9306480E-01
          1   -1    0    0  501    0  0.00000000000E+00  0.00000000000E+00  0.24494419505E+04  0.24494419505E+04  0.50400000000E-02 0. -1.
         -1   -1    0    0    0  501 -0.00000000000E+00 -0.00000000000E+00 -0.50370033702E+03  0.50370033705E+03  0.50400000000E-02 0.  1.
    8880023    1    1    2    0    0 -0.77300838061E+03 -0.30512291134E+03  0.29818724626E+03  0.11015297489E+04  0.65864270000E+03 0.  1.
    8880022    1    1    2    0    0  0.77300838061E+03  0.30512291134E+03  0.16475543672E+04  0.18516125387E+04  0.15294330000E+03 0.  0.
<mgrwt>
<rscale>  0 0.10018846E+04</rscale>
<asrwt>0</asrwt>
<pdfrwt beam="1">  1        1 0.37683722E+00 0.10604019E+04</pdfrwt>
<pdfrwt beam="2">  1       -1 0.77492360E-01 0.10604019E+04</pdfrwt>
<totfact> 0.24741260E+00</totfact>
</mgrwt>
</event>
<event>
 4    1  0.2514307E-008  0.6971133E+03  0.7818608E-02  0.1000939E+00
          1   -1    0    0  501    0  0.00000000000E+00  0.00000000000E+00  0.82047275671E+03  0.82047275672E+03  0.50400000000E-02 0. -1.
         -1   -1    0    0    0  501 -0.00000000000E+00 -0.00000000000E+00 -0.39344235805E+03  0.39344235808E+03  0.50400000000E-02 0.  1.
    8880023    1    1    2    0    0 -0.20655938718E+03  0.97416224877E+02 -0.10523828188E+02  0.69719269827E+03  0.65864270000E+03 0.  0.
    8880022    1    1    2    0    0  0.20655938718E+03 -0.97416224877E+02  0.43755422685E+03  0.51672241653E+03  0.15294330000E+03 0.  0.
<mgrwt>
<rscale>  0 0.55240250E+03</rscale>
<asrwt>0</asrwt>
<pdfrwt beam="1">  1        1 0.12622658E+00 0.69711327E+03</pdfrwt>
<pdfrwt beam="2">  1       -1 0.60529594E-01 0.69711327E+03</pdfrwt>
<totfact> 0.60323731E+01</totfact>
</mgrwt>
</event>
<event>
 4    1  0.2514307E-008  0.7732349E+03  0.7818608E-02  0.9771975E-01
         -1   -1    0    0    0  501 -0.00000000000E+00  0.00000000000E+00  0.12073039699E+04  0.12073039699E+04  0.50400000000E-02 0.  1.
          1   -1    0    0  501    0  0.00000000000E+00 -0.00000000000E+00 -0.42615337022E+03  0.42615337025E+03  0.50400000000E-02 0. -1.
    8880023    1    1    2    0    0 -0.75533123193E+02  0.39796568616E+03  0.89795585965E+03  0.11849965705E+04  0.65864270000E+03 0.  0.
    8880022    1    1    2    0    0  0.75533123193E+02 -0.39796568616E+03 -0.11680526001E+03  0.44846076957E+03  0.15294330000E+03 0.  0.
<mgrwt>
<rscale>  0 0.66888442E+03</rscale>
<asrwt>0</asrwt>
<pdfrwt beam="1">  1        1 0.65562058E-01 0.77323486E+03</pdfrwt>
<pdfrwt beam="2">  1       -1 0.18573907E+00 0.77323486E+03</pdfrwt>
<totfact> 0.10724848E+01</totfact>
</mgrwt>
</event>
<event>
 4    1  0.2514307E-008  0.1685255E+04  0.7818608E-02  0.8788814E-01
          1   -1    0    0  501    0  0.00000000000E+00  0.00000000000E+00  0.40600867882E+04  0.40600867882E+04  0.50400000000E-02 0. -1.
         -1   -1    0    0    0  501 -0.00000000000E+00 -0.00000000000E+00 -0.80495127681E+03  0.80495127683E+03  0.50400000000E-02 0.  1.
    8880023    1    1    2    0    0 -0.46491813821E+03 -0.14799068521E+04  0.27521839922E+04  0.32271659547E+04  0.65864270000E+03 0.  0.
    8880022    1    1    2    0    0  0.46491813821E+03  0.14799068521E+04  0.50295151919E+03  0.16378721103E+04  0.15294330000E+03 0.  0.
<mgrwt>
<rscale>  0 0.16526940E+04</rscale>
<asrwt>0</asrwt>
<pdfrwt beam="1">  1        1 0.62462875E+00 0.16852547E+04</pdfrwt>
<pdfrwt beam="2">  1       -1 0.12383866E+00 0.16852547E+04</pdfrwt>
<totfact> 0.45838765E-02</totfact>
</mgrwt>
</event>
<event>
 4    1  0.2514307E-008  0.9821557E+03  0.7818608E-02  0.9405285E-01
          1   -1    0    0  501    0  0.00000000000E+00  0.00000000000E+00  0.12894257671E+04  0.12894257671E+04  0.50400000000E-02 0. -1.
         -1   -1    0    0    0  501 -0.00000000000E+00 -0.00000000000E+00 -0.95741314516E+03  0.95741314517E+03  0.50400000000E-02 0.  1.
    8880023    1    1    2    0    0  0.21837165947E+03 -0.69507805598E+03 -0.52334373533E+03  0.11128874863E+04  0.65864270000E+03 0.  0.
    8880022    1    1    2    0    0 -0.21837165947E+03  0.69507805598E+03  0.85535635726E+03  0.11339514260E+04  0.15294330000E+03 0.  0.
<mgrwt>
<rscale>  0 0.91642029E+03</rscale>
<asrwt>0</asrwt>
<pdfrwt beam="1">  1        1 0.19837320E+00 0.98215574E+03</pdfrwt>
<pdfrwt beam="2">  1       -1 0.14729433E+00 0.98215574E+03</pdfrwt>
<totfact> 0.33935988E+00</totfact>
</mgrwt>
</event>
<event>
 4    1  0.2514307E-008  0.7610225E+03  0.7818608E-02  0.9802468E-01
          1   -1    0    0  501    0  0.00000000000E+00  0.00000000000E+00  0.17276017615E+04  0.17276017615E+04  0.50400000000E-02 0. -1.
         -1   -1    0    0    0  501 -0.00000000000E+00 -0.00000000000E+00 -0.36030954757E+03  0.36030954761E+03  0.50400000000E-02 0.  1.
    8880023    1    1    2    0    0  0.15822063629E+03 -0.34685906382E+03  0.11461745556E+03  0.76960531916E+03  0.65864270000E+03 0.  0.
    8880022    1    1    2    0    0 -0.15822063629E+03  0.34685906382E+03  0.12526747584E+04  0.13183059899E+04  0.15294330000E+03 0.  0.
<mgrwt>
<rscale>  0 0.65230285E+03</rscale>
<asrwt>0</asrwt>
<pdfrwt beam="1">  1        1 0.26578489E+00 0.76102246E+03</pdfrwt>
<pdfrwt beam="2">  1       -1 0.55432238E-01 0.76102246E+03</pdfrwt>
<totfact> 0.15580003E+01</totfact>
</mgrwt>
</event>
<event>
 4    1  0.2514307E-008  0.8083026E+03  0.7818608E-02  0.9693124E-01
         -1   -1    0    0    0  501 -0.00000000000E+00  0.00000000000E+00  0.70275544625E+03  0.70275544627E+03  0.50400000000E-02 0.  1.
          1   -1    0    0  501    0  0.00000000000E+00 -0.00000000000E+00 -0.16204291657E+04  0.16204291658E+04  0.50400000000E-02 0. -1.
    8880023    1    1    2    0    0  0.45681941950E+03 -0.10420591554E+03  0.41045587117E+03  0.90654679046E+03  0.65864270000E+03 0.  1.
    8880022    1    1    2    0    0 -0.45681941950E+03  0.10420591554E+03 -0.13281295907E+04  0.14166378216E+04  0.15294330000E+03 0.  0.
<mgrwt>
<rscale>  0 0.71427693E+03</rscale>
<asrwt>0</asrwt>
<pdfrwt beam="1">  1        1 0.24929679E+00 0.80830258E+03</pdfrwt>
<pdfrwt beam="2">  1       -1 0.10811622E+00 0.80830258E+03</pdfrwt>
<totfact> 0.44422061E+00</totfact>
</mgrwt>
</event>
<event>
 4    1  0.2514307E-008  0.9178571E+03  0.7818608E-02  0.9497952E-01
         -1   -1    0    0    0  501 -0.00000000000E+00  0.00000000000E+00  0.42555899521E+03  0.42555899524E+03  0.50400000000E-02 0.  1.
          1   -1    0    0  501    0  0.00000000000E+00 -0.00000000000E+00 -0.19077504309E+04  0.19077504309E+04  0.50400000000E-02 0. -1.
    8880023    1    1    2    0    0  0.56729997063E+03 -0.29465619047E+03 -0.27398088102E+03  0.95787643080E+03  0.65864270000E+03 0.  1.
    8880022    1    1    2    0    0 -0.56729997063E+03  0.29465619047E+03 -0.12082105547E+04  0.13754329954E+04  0.15294330000E+03 0.  0.
<mgrwt>
<rscale>  0 0.84434943E+03</rscale>
<asrwt>0</asrwt>
<pdfrwt beam="1">  1        1 0.29350006E+00 0.91785714E+03</pdfrwt>
<pdfrwt beam="2">  1       -1 0.65470616E-01 0.91785714E+03</pdfrwt>
<totfact> 0.83074932E+00</totfact>
</mgrwt>
</event>
<event>
 4    1  0.2514307E-008  0.8219827E+03  0.7818608E-02  0.9665138E-01
          1   -1    0    0  501    0  0.00000000000E+00  0.00000000000E+00  0.29098734164E+04  0.29098734164E+04  0.50400000000E-02 0. -1.
         -1   -1    0    0    0  501 -0.00000000000E+00 -0.00000000000E+00 -0.38381474030E+03  0.38381474033E+03  0.50400000000E-02 0.  1.
    8880023    1    1    2    0    0  0.26276239676E+03 -0.41569376156E+03  0.11708749541E+03  0.83028011442E+03  0.65864270000E+03 0.  1.
    8880022    1    1    2    0    0 -0.26276239676E+03  0.41569376156E+03  0.24089711807E+04  0.24634080424E+04  0.15294330000E+03 0.  0.
<mgrwt>
<rscale>  0 0.73130962E+03</rscale>
<asrwt>0</asrwt>
<pdfrwt beam="1">  1        1 0.44767283E+00 0.82198272E+03</pdfrwt>
<pdfrwt beam="2">  1       -1 0.59048422E-01 0.82198272E+03</pdfrwt>
<totfact> 0.21360854E+00</totfact>
</mgrwt>
</event>
<event>
 4    1  0.2514307E-008  0.1380027E+04  0.7818608E-02  0.8999360E-01
         -1   -1    0    0    0  501 -0.00000000000E+00  0.00000000000E+00  0.12719088964E+04  0.12719088964E+04  0.50400000000E-02 0.  1.
          1   -1    0    0  501    0  0.00000000000E+00 -0.00000000000E+00 -0.19734337430E+04  0.19734337430E+04  0.50400000000E-02 0. -1.
    8880023    1    1    2    0    0  0.42076474964E+03  0.11373749387E+04  0.55950898205E+03  0.14891357336E+04  0.65864270000E+03 0.  0.
    8880022    1    1    2    0    0 -0.42076474964E+03 -0.11373749387E+04 -0.12610338287E+04  0.17562069058E+04  0.15294330000E+03 0.  0.
<mgrwt>
<rscale>  0 0.13387873E+04</rscale>
<asrwt>0</asrwt>
<pdfrwt beam="1">  1        1 0.30360519E+00 0.13800271E+04</pdfrwt>
<pdfrwt beam="2">  1       -1 0.19567829E+00 0.13800271E+04</pdfrwt>
<totfact> 0.48035922E-01</totfact>
</mgrwt>
</event>
<event>
 4    1  0.2606665E-008  0.1040841E+04  0.7818608E-02  0.9329974E-01
          1   -1    0    0  501    0  0.00000000000E+00  0.00000000000E+00  0.20901409354E+04  0.20901409354E+04  0.50400000000E-02 0. -1.
         -1   -1    0    0    0  501 -0.00000000000E+00 -0.00000000000E+00 -0.16970048732E+04  0.16970048732E+04  0.50400000000E-02 0.  1.
    8880023    1    1    2    0    0  0.11519314514E+03 -0.79766505385E+03 -0.14411911909E+04  0.17777461163E+04  0.65864270000E+03 0.  0.
    8880022    1    1    2    0    0 -0.11519314514E+03  0.79766505385E+03  0.18343272532E+04  0.20093996923E+04  0.15294330000E+03 0.  0.
<mgrwt>
<rscale>  0 0.98069614E+03</rscale>
<asrwt>0</asrwt>
<pdfrwt beam="1">  1        1 0.32156014E+00 0.10408406E+04</pdfrwt>
<pdfrwt beam="2">  1       -1 0.26107767E+00 0.10408406E+04</pdfrwt>
<totfact> 0.15451441E-01</totfact>
</mgrwt>
</event>
<event>
 4    1  0.2514307E-008  0.6863430E+03  0.7818608E-02  0.1005941E+00
         -1   -1    0    0    0  501 -0.00000000000E+00  0.00000000000E+00  0.17801225145E+03  0.17801225152E+03  0.50400000000E-02 0.  1.
          1   -1    0    0  501    0  0.00000000000E+00 -0.00000000000E+00 -0.15109704619E+04  0.15109704619E+04  0.50400000000E-02 0. -1.
    8880023    1    1    2    0    0  0.61573514932E+02  0.18293507731E+03 -0.58600378982E+03  0.90247835885E+03  0.65864270000E+03 0.  1.
    8880022    1    1    2    0    0 -0.61573514932E+02 -0.18293507731E+03 -0.74695442065E+03  0.78650435460E+03  0.15294330000E+03 0.  0.
<mgrwt>
<rscale>  0 0.53120010E+03</rscale>
<asrwt>0</asrwt>
<pdfrwt beam="1">  1        1 0.23245699E+00 0.68634302E+03</pdfrwt>
<pdfrwt beam="2">  1       -1 0.27386501E-01 0.68634302E+03</pdfrwt>
<totfact> 0.79301247E+01</totfact>
</mgrwt>
</event>
<event>
 4    1  0.2514307E-008  0.7902048E+03  0.7818608E-02  0.9732390E-01
          1   -1    0    0  501    0  0.00000000000E+00  0.00000000000E+00  0.24372537646E+04  0.24372537646E+04  0.50400000000E-02 0. -1.
         -1   -1    0    0    0  501 -0.00000000000E+00 -0.00000000000E+00 -0.21329344965E+03  0.21329344971E+03  0.50400000000E-02 0.  1.
    8880023    1    1    2    0    0  0.21324352929E+03 -0.38097316991E+03  0.69237298699E+03  0.10506207300E+04  0.65864270000E+03 0.  1.
    8880022    1    1    2    0    0 -0.21324352929E+03  0.38097316991E+03  0.15315873280E+04  0.15999264843E+04  0.15294330000E+03 0.  0.
<mgrwt>
<rscale>  0 0.69120636E+03</rscale>
<asrwt>0</asrwt>
<pdfrwt beam="1">  1        1 0.37496215E+00 0.79020476E+03</pdfrwt>
<pdfrwt beam="2">  1       -1 0.32814374E-01 0.79020476E+03</pdfrwt>
<totfact> 0.13607004E+01</totfact>
</mgrwt>
</event>
<event>
 4    1  0.2514307E-008  0.9540033E+03  0.7818608E-02  0.9444377E-01
         -1   -1    0    0    0  501 -0.00000000000E+00  0.00000000000E+00  0.74610777003E+03  0.74610777005E+03  0.50400000000E-02 0.  1.
          1   -1    0    0  501    0  0.00000000000E+00 -0.00000000000E+00 -0.14892458524E+04  0.14892458524E+04  0.50400000000E-02 0. -1.
    8880023    1    1    2    0    0 -0.68655855671E+03  0.70352431161E+02  0.27775101913E+03  0.99361358246E+03  0.65864270000E+03 0.  1.
    8880022    1    1    2    0    0  0.68655855671E+03 -0.70352431161E+02 -0.10208891015E+04  0.12417400400E+04  0.15294330000E+03 0.  0.
<mgrwt>
<rscale>  0 0.88511865E+03</rscale>
<asrwt>0</asrwt>
<pdfrwt beam="1">  1        1 0.22911475E+00 0.95400331E+03</pdfrwt>
<pdfrwt beam="2">  1       -1 0.11478581E+00 0.95400331E+03</pdfrwt>
<totfact> 0.46403200E+00</totfact>
</mgrwt>
</event>
<event>
 4    1  0.2514307E-008  0.1070318E+04  0.7818608E-02  0.9294846E-01
          1   -1    0    0  501    0  0.00000000000E+00  0.00000000000E+00  0.25199281013E+04  0.25199281013E+04  0.50400000000E-02 0. -1.
         -1   -1    0    0    0  501 -0.00000000000E+00 -0.00000000000E+00 -0.63511384681E+03  0.63511384683E+03  0.50400000000E-02 0.  1.
    8880023    1    1    2    0    0 -0.41843678937E+03 -0.73258573258E+03 -0.15305040334E+02  0.10704277896E+04  0.65864270000E+03 0.  0.
    8880022    1    1    2    0    0  0.41843678937E+03  0.73258573258E+03  0.19001192948E+04  0.20846141585E+04  0.15294330000E+03 0.  0.
<mgrwt>
<rscale>  0 0.10125878E+04</rscale>
<asrwt>0</asrwt>
<pdfrwt beam="1">  1        1 0.38768125E+00 0.10703184E+04</pdfrwt>
<pdfrwt beam="2">  1       -1 0.97709822E-01 0.10703184E+04</pdfrwt>
<totfact> 0.13293860E+00</totfact>
</mgrwt>
</event>
<event>
 4    1  0.2514307E-008  0.9188800E+03  0.7818608E-02  0.9496378E-01
          1   -1    0    0  501    0  0.00000000000E+00  0.00000000000E+00  0.22548387166E+04  0.22548387166E+04  0.50400000000E-02 0. -1.
         -1   -1    0    0    0  501 -0.00000000000E+00 -0.00000000000E+00 -0.41523705840E+03  0.41523705843E+03  0.50400000000E-02 0.  1.
    8880023    1    1    2    0    0 -0.17405393080E+03 -0.61663231317E+03  0.25438633571E+03  0.95344260159E+03  0.65864270000E+03 0.  1.
    8880022    1    1    2    0    0  0.17405393080E+03  0.61663231317E+03  0.15852153225E+04  0.17166331734E+04  0.15294330000E+03 0.  0.
<mgrwt>
<rscale>  0 0.84551346E+03</rscale>
<asrwt>0</asrwt>
<pdfrwt beam="1">  1        1 0.34689826E+00 0.91887996E+03</pdfrwt>
<pdfrwt beam="2">  1       -1 0.63882624E-01 0.91887996E+03</pdfrwt>
<totfact> 0.50966714E+00</totfact>
</mgrwt>
</event>
<event>
 4    1  0.2514307E-008  0.6963795E+03  0.7818608E-02  0.1001257E+00
         -1   -1    0    0    0  501 -0.00000000000E+00  0.00000000000E+00  0.58476216120E+03  0.58476216123E+03  0.50400000000E-02 0.  1.
          1   -1    0    0  501    0  0.00000000000E+00 -0.00000000000E+00 -0.10658641220E+04  0.10658641220E+04  0.50400000000E-02 0. -1.
    8880023    1    1    2    0    0  0.22529605609E+03 -0.19386880258E+02  0.34745996280E+03  0.77824982880E+03  0.65864270000E+03 0.  1.
    8880022    1    1    2    0    0 -0.22529605609E+03  0.19386880258E+02 -0.82856192362E+03  0.87237645446E+03  0.15294330000E+03 0.  0.
<mgrwt>
<rscale>  0 0.55102692E+03</rscale>
<asrwt>0</asrwt>
<pdfrwt beam="1">  1        1 0.16397910E+00 0.69637947E+03</pdfrwt>
<pdfrwt beam="2">  1       -1 0.89963410E-01 0.69637947E+03</pdfrwt>
<totfact> 0.16888111E+01</totfact>
</mgrwt>
</event>
<event>
 4    1  0.2514307E-008  0.1021314E+04  0.7818608E-02  0.9354189E-01
         -1   -1    0    0    0  501 -0.00000000000E+00  0.00000000000E+00  0.11304292289E+04  0.11304292289E+04  0.50400000000E-02 0.  1.
          1   -1    0    0  501    0  0.00000000000E+00 -0.00000000000E+00 -0.74430640838E+03  0.74430640839E+03  0.50400000000E-02 0. -1.
    8880023    1    1    2    0    0 -0.73173522400E+03  0.27172581040E+03  0.87238122586E+02  0.10250327070E+04  0.65864270000E+03 0. -1.
    8880022    1    1    2    0    0  0.73173522400E+03 -0.27172581040E+03  0.29888469789E+03  0.84970293028E+03  0.15294330000E+03 0.  0.
<mgrwt>
<rscale>  0 0.95943577E+03</rscale>
<asrwt>0</asrwt>
<pdfrwt beam="1">  1        1 0.11450868E+00 0.10213136E+04</pdfrwt>
<pdfrwt beam="2">  1       -1 0.17391219E+00 0.10213136E+04</pdfrwt>
<totfact> 0.57131675E+00</totfact>
</mgrwt>
</event>
<event>
 4    1  0.2514307E-008  0.7527901E+03  0.7818608E-02  0.9824144E-01
         -1   -1    0    0    0  501 -0.00000000000E+00  0.00000000000E+00  0.16823411149E+04  0.16823411149E+04  0.50400000000E-02 0.  1.
          1   -1    0    0  501    0  0.00000000000E+00 -0.00000000000E+00 -0.12597301109E+04  0.12597301109E+04  0.50400000000E-02 0. -1.
    8880023    1    1    2    0    0 -0.17189319652E+03 -0.32145841756E+03  0.15631461320E+04  0.17349694007E+04  0.65864270000E+03 0.  1.
    8880022    1    1    2    0    0  0.17189319652E+03  0.32145841756E+03 -0.11405351279E+04  0.12071018251E+04  0.15294330000E+03 0.  0.
<mgrwt>
<rscale>  0 0.64082793E+03</rscale>
<asrwt>0</asrwt>
<pdfrwt beam="1">  1        1 0.19380463E+00 0.75279014E+03</pdfrwt>
<pdfrwt beam="2">  1       -1 0.25882171E+00 0.75279014E+03</pdfrwt>
<totfact> 0.62449555E-01</totfact>
</mgrwt>
</event>
<event>
 4    1  0.2514307E-008  0.6837123E+03  0.7818608E-02  0.1007297E+00
         -1   -1    0    0    0  501 -0.00000000000E+00  0.00000000000E+00  0.44114073909E+03  0.44114073912E+03  0.50400000000E-02 0.  1.
          1   -1    0    0  501    0  0.00000000000E+00 -0.00000000000E+00 -0.15132920651E+04  0.15132920651E+04  0.50400000000E-02 0. -1.
    8880023    1    1    2    0    0  0.18269630216E+03  0.16562432209E+02  0.15765123332E+03  0.70165259966E+03  0.65864270000E+03 0.  1.
    8880022    1    1    2    0    0 -0.18269630216E+03 -0.16562432209E+02 -0.12298025594E+04  0.12527802046E+04  0.15294330000E+03 0.  0.
<mgrwt>
<rscale>  0 0.52563126E+03</rscale>
<asrwt>0</asrwt>
<pdfrwt beam="1">  1        1 0.23281416E+00 0.68371226E+03</pdfrwt>
<pdfrwt beam="2">  1       -1 0.67867807E-01 0.68371226E+03</pdfrwt>
<totfact> 0.14736621E+01</totfact>
</mgrwt>
</event>
<event>
 4    1  0.2514307E-008  0.1065139E+04  0.7818608E-02  0.9300900E-01
          1   -1    0    0  501    0  0.00000000000E+00  0.00000000000E+00  0.11870772089E+04  0.11870772089E+04  0.50400000000E-02 0. -1.
         -1   -1    0    0    0  501 -0.00000000000E+00 -0.00000000000E+00 -0.10736133521E+04  0.10736133521E+04  0.50400000000E-02 0.  1.
    8880023    1    1    2    0    0 -0.71552096206E+03 -0.43444326494E+03 -0.53393410876E+03  0.11914726335E+04  0.65864270000E+03 0.  0.
    8880022    1    1    2    0    0  0.71552096206E+03  0.43444326494E+03  0.64739796555E+03  0.10692179275E+04  0.15294330000E+03 0.  0.
<mgrwt>
<rscale>  0 0.10070007E+04</rscale>
<asrwt>0</asrwt>
<pdfrwt beam="1">  1        1 0.18262726E+00 0.10651391E+04</pdfrwt>
<pdfrwt beam="2">  1       -1 0.16517128E+00 0.10651391E+04</pdfrwt>
<totfact> 0.29053775E+00</totfact>
</mgrwt>
</event>
<event>
 4    1  0.2514307E-008  0.1014984E+04  0.7818608E-02  0.9362212E-01
         -1   -1    0    0    0  501 -0.00000000000E+00  0.00000000000E+00  0.78948756688E+03  0.78948756690E+03  0.50400000000E-02 0.  1.
          1   -1    0    0  501    0  0.00000000000E+00 -0.00000000000E+00 -0.12074872238E+04  0.12074872239E+04  0.50400000000E-02 0. -1.
    8880023    1    1    2    0    0 -0.24168974035E+03  0.73346280555E+03  0.15026765973E+03  0.10260468769E+04  0.65864270000E+03 0.  1.
    8880022    1    1    2    0    0  0.24168974035E+03 -0.73346280555E+03 -0.56826731669E+03  0.97092791388E+03  0.15294330000E+03 0.  0.
<mgrwt>
<rscale>  0 0.95251844E+03</rscale>
<asrwt>0</asrwt>
<pdfrwt beam="1">  1        1 0.18576727E+00 0.10149837E+04</pdfrwt>
<pdfrwt beam="2">  1       -1 0.12145963E+00 0.10149837E+04</pdfrwt>
<totfact> 0.63514842E+00</totfact>
</mgrwt>
</event>
<event>
 4    1  0.2514307E-008  0.7574364E+03  0.7818608E-02  0.9811790E-01
          1   -1    0    0  501    0  0.00000000000E+00  0.00000000000E+00  0.13470824879E+04  0.13470824879E+04  0.50400000000E-02 0. -1.
         -1   -1    0    0    0  501 -0.00000000000E+00 -0.00000000000E+00 -0.55085435961E+03  0.55085435964E+03  0.50400000000E-02 0.  1.
    8880023    1    1    2    0    0  0.93384115195E+02 -0.36218647867E+03 -0.23280387238E+03  0.79240613801E+03  0.65864270000E+03 0.  0.
    8880022    1    1    2    0    0 -0.93384115195E+02  0.36218647867E+03  0.10290320007E+04  0.11055307096E+04  0.15294330000E+03 0.  0.
<mgrwt>
<rscale>  0 0.64733634E+03</rscale>
<asrwt>0</asrwt>
<pdfrwt beam="1">  1        1 0.20724346E+00 0.75743636E+03</pdfrwt>
<pdfrwt beam="2">  1       -1 0.84746825E-01 0.75743636E+03</pdfrwt>
<totfact> 0.11935567E+01</totfact>
</mgrwt>
</event>
<event>
 4    1  0.2514307E-008  0.7219430E+03  0.7818608E-02  0.9916066E-01
          1   -1    0    0  501    0  0.00000000000E+00  0.00000000000E+00  0.75318813379E+03  0.75318813380E+03  0.50400000000E-02 0. -1.
         -1   -1    0    0    0  501 -0.00000000000E+00 -0.00000000000E+00 -0.11608601815E+04  0.11608601816E+04  0.50400000000E-02 0.  1.
    8880023    1    1    2    0    0 -0.26217952868E+03 -0.13657728289E+03 -0.10007372337E+04  0.12339678589E+04  0.65864270000E+03 0.  0.
    8880022    1    1    2    0    0  0.26217952868E+03  0.13657728289E+03  0.59306518598E+03  0.68008045649E+03  0.15294330000E+03 0.  0.
<mgrwt>
<rscale>  0 0.59488959E+03</rscale>
<asrwt>0</asrwt>
<pdfrwt beam="1">  1        1 0.11587510E+00 0.72194298E+03</pdfrwt>
<pdfrwt beam="2">  1       -1 0.17859387E+00 0.72194298E+03</pdfrwt>
<totfact> 0.53882060E+00</totfact>
</mgrwt>
</event>
<event>
 4    1  0.2514307E-008  0.1192202E+04  0.7818608E-02  0.9164740E-01
         -1   -1    0    0    0  501 -0.00000000000E+00  0.00000000000E+00  0.70876442386E+03  0.70876442388E+03  0.50400000000E-02 0.  1.
          1   -1    0    0  501    0  0.00000000000E+00 -0.00000000000E+00 -0.24287059961E+04  0.24287059961E+04  0.50400000000E-02 0. -1.
    8880023    1    1    2    0    0 -0.48927411245E+03  0.86495452278E+03 -0.56213659323E+02  0.11935265667E+04  0.65864270000E+03 0.  1.
    8880022    1    1    2    0    0  0.48927411245E+03 -0.86495452278E+03 -0.16637279129E+04  0.19439438533E+04  0.15294330000E+03 0.  0.
<mgrwt>
<rscale>  0 0.11424899E+04</rscale>
<asrwt>0</asrwt>
<pdfrwt beam="1">  1        1 0.37364707E+00 0.11922020E+04</pdfrwt>
<pdfrwt beam="2">  1       -1 0.10904068E+00 0.11922020E+04</pdfrwt>
<totfact> 0.11705623E+00</totfact>
</mgrwt>
</event>
<event>
 4    1  0.2514307E-008  0.7737079E+03  0.7818608E-02  0.9770830E-01
         -1   -1    0    0    0  501 -0.00000000000E+00  0.00000000000E+00  0.18303059771E+04  0.18303059771E+04  0.50400000000E-02 0.  1.
          1   -1    0    0  501    0  0.00000000000E+00 -0.00000000000E+00 -0.11207484958E+04  0.11207484959E+04  0.50400000000E-02 0. -1.
    8880023    1    1    2    0    0  0.37811599392E+03  0.14779047216E+03  0.17010850167E+04  0.18687734397E+04  0.65864270000E+03 0.  0.
    8880022    1    1    2    0    0 -0.37811599392E+03 -0.14779047216E+03 -0.99152753543E+03  0.10822810333E+04  0.15294330000E+03 0.  0.
<mgrwt>
<rscale>  0 0.66951727E+03</rscale>
<asrwt>0</asrwt>
<pdfrwt beam="1">  1        1 0.17242285E+00 0.77370791E+03</pdfrwt>
<pdfrwt beam="2">  1       -1 0.28158553E+00 0.77370791E+03</pdfrwt>
<totfact> 0.56090263E-01</totfact>
</mgrwt>
</event>
<event>
 4    1  0.2514307E-008  0.7239524E+03  0.7818608E-02  0.9909433E-01
          1   -1    0    0  501    0  0.00000000000E+00  0.00000000000E+00  0.10313163807E+04  0.10313163807E+04  0.50400000000E-02 0. -1.
         -1   -1    0    0    0  501 -0.00000000000E+00 -0.00000000000E+00 -0.31589711757E+03  0.31589711761E+03  0.50400000000E-02 0.  1.
    8880023    1    1    2    0    0  0.26413526043E+03  0.14328078230E+03  0.23668959364E+03  0.76166199090E+03  0.65864270000E+03 0.  0.
    8880022    1    1    2    0    0 -0.26413526043E+03 -0.14328078230E+03  0.47872966953E+03  0.58555150745E+03  0.15294330000E+03 0.  0.
<mgrwt>
<rscale>  0 0.59806315E+03</rscale>
<asrwt>0</asrwt>
<pdfrwt beam="1">  1        1 0.15866406E+00 0.72395236E+03</pdfrwt>
<pdfrwt beam="2">  1       -1 0.48599556E-01 0.72395236E+03</pdfrwt>
<totfact> 0.62146495E+01</totfact>
</mgrwt>
</event>
<event>
 4    1  0.2514307E-008  0.1196999E+04  0.7818608E-02  0.9160045E-01
         -1   -1    0    0    0  501 -0.00000000000E+00  0.00000000000E+00  0.91008842135E+03  0.91008842137E+03  0.50400000000E-02 0.  1.
          1   -1    0    0  501    0  0.00000000000E+00 -0.00000000000E+00 -0.23120418204E+04  0.23120418204E+04  0.50400000000E-02 0. -1.
    8880023    1    1    2    0    0 -0.97420866411E+03 -0.22341561848E+03  0.30764248264E+03  0.12359009520E+04  0.65864270000E+03 0.  0.
    8880022    1    1    2    0    0  0.97420866411E+03  0.22341561848E+03 -0.17095958816E+04  0.19862292897E+04  0.15294330000E+03 0.  0.
<mgrwt>
<rscale>  0 0.11475521E+04</rscale>
<asrwt>0</asrwt>
<pdfrwt beam="1">  1        1 0.35569874E+00 0.11969993E+04</pdfrwt>
<pdfrwt beam="2">  1       -1 0.14001360E+00 0.11969993E+04</pdfrwt>
<totfact> 0.75455260E-01</totfact>
</mgrwt>
</event>
<event>
 4    1  0.2514307E-008  0.8017468E+03  0.7818608E-02  0.9707032E-01
         -1   -1    0    0    0  501 -0.00000000000E+00  0.00000000000E+00  0.37612754037E+03  0.37612754041E+03  0.50400000000E-02 0.  1.
          1   -1    0    0  501    0  0.00000000000E+00 -0.00000000000E+00 -0.13895417601E+04  0.13895417601E+04  0.50400000000E-02 0. -1.
    8880023    1    1    2    0    0  0.33007770707E+03 -0.31628527656E+03 -0.21010299164E+03  0.82881912516E+03  0.65864270000E+03 0.  0.
    8880022    1    1    2    0    0 -0.33007770707E+03  0.31628527656E+03 -0.80331122806E+03  0.93685017533E+03  0.15294330000E+03 0.  0.
<mgrwt>
<rscale>  0 0.70599658E+03</rscale>
<asrwt>0</asrwt>
<pdfrwt beam="1">  1        1 0.21377565E+00 0.80174676E+03</pdfrwt>
<pdfrwt beam="2">  1       -1 0.57865776E-01 0.80174676E+03</pdfrwt>
<totfact> 0.24247360E+01</totfact>
</mgrwt>
</event>
<event>
 4    1  0.2514307E-008  0.7505404E+03  0.7818608E-02  0.9830243E-01
         -1   -1    0    0    0  501 -0.00000000000E+00  0.00000000000E+00  0.71373816925E+03  0.71373816927E+03  0.50400000000E-02 0.  1.
          1   -1    0    0  501    0  0.00000000000E+00 -0.00000000000E+00 -0.13067715232E+04  0.13067715232E+04  0.50400000000E-02 0. -1.
    8880023    1    1    2    0    0 -0.91091692323E+02  0.34814227373E+03  0.47155568677E+03  0.88638350118E+03  0.65864270000E+03 0.  0.
    8880022    1    1    2    0    0  0.91091692323E+02 -0.34814227373E+03 -0.10645890407E+04  0.11341261913E+04  0.15294330000E+03 0.  0.
<mgrwt>
<rscale>  0 0.63764478E+03</rscale>
<asrwt>0</asrwt>
<pdfrwt beam="1">  1        1 0.20104177E+00 0.75054044E+03</pdfrwt>
<pdfrwt beam="2">  1       -1 0.10980587E+00 0.75054044E+03</pdfrwt>
<totfact> 0.71128006E+00</totfact>
</mgrwt>
</event>
<event>
 4    1  0.2514307E-008  0.9397924E+03  0.7818608E-02  0.9464955E-01
          1   -1    0    0  501    0  0.00000000000E+00  0.00000000000E+00  0.10946782460E+04  0.10946782460E+04  0.50400000000E-02 0. -1.
         -1   -1    0    0    0  501 -0.00000000000E+00 -0.00000000000E+00 -0.10128156142E+04  0.10128156142E+04  0.50400000000E-02 0.  1.
    8880023    1    1    2    0    0 -0.70913059508E+02 -0.66661153229E+03 -0.61925916048E+03  0.11254739940E+04  0.65864270000E+03 0.  0.
    8880022    1    1    2    0    0  0.70913059508E+02  0.66661153229E+03  0.70112179226E+03  0.98201986618E+03  0.15294330000E+03 0. -1.
<mgrwt>
<rscale>  0 0.86917582E+03</rscale>
<asrwt>0</asrwt>
<pdfrwt beam="1">  1        1 0.16841204E+00 0.93979243E+03</pdfrwt>
<pdfrwt beam="2">  1       -1 0.15581779E+00 0.93979243E+03</pdfrwt>
<totfact> 0.40673193E+00</totfact>
</mgrwt>
</event>
<event>
 4    1  0.2514307E-008  0.7250953E+03  0.7818608E-02  0.9905708E-01
          1   -1    0    0  501    0  0.00000000000E+00  0.00000000000E+00  0.30915656202E+04  0.30915656202E+04  0.50400000000E-02 0. -1.
         -1   -1    0    0    0  501 -0.00000000000E+00 -0.00000000000E+00 -0.22099888404E+03  0.22099888410E+03  0.50400000000E-02 0.  1.
    8880023    1    1    2    0    0 -0.25093390513E+03 -0.17025029226E+03  0.41872696547E+03  0.83731443594E+03  0.65864270000E+03 0.  0.
    8880022    1    1    2    0    0  0.25093390513E+03  0.17025029226E+03  0.24518397707E+04  0.24752500683E+04  0.15294330000E+03 0.  0.
<mgrwt>
<rscale>  0 0.59985460E+03</rscale>
<asrwt>0</asrwt>
<pdfrwt beam="1">  1        1 0.47562547E+00 0.72509530E+03</pdfrwt>
<pdfrwt beam="2">  1       -1 0.33999829E-01 0.72509530E+03</pdfrwt>
<totfact> 0.45000848E+00</totfact>
</mgrwt>
</event>
<event>
 4    1  0.2514307E-008  0.9668485E+03  0.7818608E-02  0.9426276E-01
          1   -1    0    0  501    0  0.00000000000E+00  0.00000000000E+00  0.26289939059E+04  0.26289939059E+04  0.50400000000E-02 0. -1.
         -1   -1    0    0    0  501 -0.00000000000E+00 -0.00000000000E+00 -0.43341893339E+03  0.43341893341E+03  0.50400000000E-02 0.  1.
    8880023    1    1    2    0    0  0.70636762615E+03 -0.45062603730E+02  0.26799852639E+03  0.10033041802E+04  0.65864270000E+03 0.  0.
    8880022    1    1    2    0    0 -0.70636762615E+03  0.45062603730E+02  0.19275764461E+04  0.20591086591E+04  0.15294330000E+03 0.  0.
<mgrwt>
<rscale>  0 0.89944443E+03</rscale>
<asrwt>0</asrwt>
<pdfrwt beam="1">  1        1 0.40446059E+00 0.96684852E+03</pdfrwt>
<pdfrwt beam="2">  1       -1 0.66679838E-01 0.96684852E+03</pdfrwt>
<totfact> 0.25747382E+00</totfact>
</mgrwt>
</event>
<event>
 4    1  0.2514307E-008  0.7794542E+03  0.7818608E-02  0.9757121E-01
          1   -1    0    0  501    0  0.00000000000E+00  0.00000000000E+00  0.74439481482E+03  0.74439481484E+03  0.50400000000E-02 0. -1.
         -1   -1    0    0    0  501 -0.00000000000E+00 -0.00000000000E+00 -0.16976885009E+04  0.16976885009E+04  0.50400000000E-02 0.  1.
    8880023    1    1    2    0    0 -0.33691604883E+03 -0.24541028483E+03 -0.15283121520E+04  0.17156010235E+04  0.65864270000E+03 0.  1.
    8880022    1    1    2    0    0  0.33691604883E+03  0.24541028483E+03  0.57501846585E+03  0.72648229224E+03  0.15294330000E+03 0.  0.
<mgrwt>
<rscale>  0 0.67715348E+03</rscale>
<asrwt>0</asrwt>
<pdfrwt beam="1">  1        1 0.11452228E+00 0.77945419E+03</pdfrwt>
<pdfrwt beam="2">  1       -1 0.26118285E+00 0.77945419E+03</pdfrwt>
<totfact> 0.15246669E+00</totfact>
</mgrwt>
</event>
<event>
 4    1  0.2514307E-008  0.7430276E+03  0.7818608E-02  0.9851214E-01
         -1   -1    0    0    0  501 -0.00000000000E+00  0.00000000000E+00  0.14478281308E+04  0.14478281308E+04  0.50400000000E-02 0.  1.
          1   -1    0    0  501    0  0.00000000000E+00 -0.00000000000E+00 -0.89867395141E+03  0.89867395142E+03  0.50400000000E-02 0. -1.
    8880023    1    1    2    0    0 -0.22529790043E+03  0.25984737596E+03  0.13052380420E+04  0.15019109013E+04  0.65864270000E+03 0.  1.
    8880022    1    1    2    0    0  0.22529790043E+03 -0.25984737596E+03 -0.75608386259E+03  0.84459118100E+03  0.15294330000E+03 0.  0.
<mgrwt>
<rscale>  0 0.62685054E+03</rscale>
<asrwt>0</asrwt>
<pdfrwt beam="1">  1        1 0.13825753E+00 0.74302760E+03</pdfrwt>
<pdfrwt beam="2">  1       -1 0.22274279E+00 0.74302760E+03</pdfrwt>
<totfact> 0.20125874E+00</totfact>
</mgrwt>
</event>
<event>
 4    1  0.2514307E-008  0.7528448E+03  0.7818608E-02  0.9823997E-01
          1   -1    0    0  501    0  0.00000000000E+00  0.00000000000E+00  0.49758147455E+03  0.49758147458E+03  0.50400000000E-02 0. -1.
         -1   -1    0    0    0  501 -0.00000000000E+00 -0.00000000000E+00 -0.14128238346E+04  0.14128238347E+04  0.50400000000E-02 0.  1.
    8880023    1    1    2    0    0  0.16965643358E+03 -0.32277194907E+03 -0.12045411934E+04  0.14204558174E+04  0.65864270000E+03 0.  1.
    8880022    1    1    2    0    0 -0.16965643358E+03  0.32277194907E+03  0.28929883326E+03  0.48994949179E+03  0.15294330000E+03 0.  0.
<mgrwt>
<rscale>  0 0.64090496E+03</rscale>
<asrwt>0</asrwt>
<pdfrwt beam="1">  1        1 0.76550997E-01 0.75284477E+03</pdfrwt>
<pdfrwt beam="2">  1       -1 0.21735751E+00 0.75284477E+03</pdfrwt>
<totfact> 0.53007991E+00</totfact>
</mgrwt>
</event>
<event>
 4    1  0.2514307E-008  0.1443957E+04  0.7818608E-02  0.8950259E-01
         -1   -1    0    0    0  501 -0.00000000000E+00  0.00000000000E+00  0.11514677036E+04  0.11514677036E+04  0.50400000000E-02 0.  1.
          1   -1    0    0  501    0  0.00000000000E+00 -0.00000000000E+00 -0.26527073137E+04  0.26527073137E+04  0.50400000000E-02 0. -1.
    8880023    1    1    2    0    0 -0.38122251950E+03 -0.12271392471E+04  0.40546662235E+03  0.14998048970E+04  0.65864270000E+03 0.  1.
    8880022    1    1    2    0    0  0.38122251950E+03  0.12271392471E+04 -0.19067062324E+04  0.23043701202E+04  0.15294330000E+03 0.  0.
<mgrwt>
<rscale>  0 0.14049289E+04</rscale>
<asrwt>0</asrwt>
<pdfrwt beam="1">  1        1 0.40810882E+00 0.14439569E+04</pdfrwt>
<pdfrwt beam="2">  1       -1 0.17714888E+00 0.14439569E+04</pdfrwt>
<totfact> 0.22067153E-01</totfact>
</mgrwt>
</event>
<event>
 4    1  0.2514307E-008  0.8034735E+03  0.7818608E-02  0.9703335E-01
         -1   -1    0    0    0  501 -0.00000000000E+00  0.00000000000E+00  0.95547128790E+03  0.95547128791E+03  0.50400000000E-02 0.  1.
          1   -1    0    0  501    0  0.00000000000E+00 -0.00000000000E+00 -0.99436255731E+03  0.99436255732E+03  0.50400000000E-02 0. -1.
    8880023    1    1    2    0    0 -0.19091872015E+03 -0.41869983689E+03  0.70026630244E+03  0.10658060854E+04  0.65864270000E+03 0.  1.
    8880022    1    1    2    0    0  0.19091872015E+03  0.41869983689E+03 -0.73915757184E+03  0.88402775982E+03  0.15294330000E+03 0.  0.
<mgrwt>
<rscale>  0 0.70818557E+03</rscale>
<asrwt>0</asrwt>
<pdfrwt beam="1">  1        1 0.15297885E+00 0.80347353E+03</pdfrwt>
<pdfrwt beam="2">  1       -1 0.14699558E+00 0.80347353E+03</pdfrwt>
<totfact> 0.57863903E+00</totfact>
</mgrwt>
</event>
<event>
 4    1  0.2514307E-008  0.1713456E+04  0.7818608E-02  0.8771983E-01
         -1   -1    0    0    0  501 -0.00000000000E+00  0.00000000000E+00  0.22394433374E+04  0.22394433374E+04  0.50400000000E-02 0.  1.
          1   -1    0    0  501    0  0.00000000000E+00 -0.00000000000E+00 -0.24053574631E+04  0.24053574631E+04  0.50400000000E-02 0. -1.
    8880023    1    1    2    0    0 -0.23793082498E+03 -0.15638123000E+04  0.15468091236E+04  0.23083649318E+04  0.65864270000E+03 0.  0.
    8880022    1    1    2    0    0  0.23793082498E+03  0.15638123000E+04 -0.17127232492E+04  0.23364358687E+04  0.15294330000E+03 0.  0.
<mgrwt>
<rscale>  0 0.16815056E+04</rscale>
<asrwt>0</asrwt>
<pdfrwt beam="1">  1        1 0.37005500E+00 0.17134556E+04</pdfrwt>
<pdfrwt beam="2">  1       -1 0.34452974E+00 0.17134556E+04</pdfrwt>
<totfact> 0.24389776E-02</totfact>
</mgrwt>
</event>
<event>
 4    1  0.2514307E-008  0.8539003E+03  0.7818608E-02  0.9604507E-01
         -1   -1    0    0    0  501 -0.00000000000E+00  0.00000000000E+00  0.94488472067E+03  0.94488472068E+03  0.50400000000E-02 0.  1.
          1   -1    0    0  501    0  0.00000000000E+00 -0.00000000000E+00 -0.80275410894E+03  0.80275410895E+03  0.50400000000E-02 0. -1.
    8880023    1    1    2    0    0  0.53656633254E+03  0.86209891124E+02  0.58078567840E+03  0.10326944297E+04  0.65864270000E+03 0.  0.
    8880022    1    1    2    0    0 -0.53656633254E+03 -0.86209891124E+02 -0.43865506667E+03  0.71494439998E+03  0.15294330000E+03 0. -1.
<mgrwt>
<rscale>  0 0.76998592E+03</rscale>
<asrwt>0</asrwt>
<pdfrwt beam="1">  1        1 0.12350063E+00 0.85390033E+03</pdfrwt>
<pdfrwt beam="2">  1       -1 0.14536688E+00 0.85390033E+03</pdfrwt>
<totfact> 0.84987492E+00</totfact>
</mgrwt>
</event>
<event>
 4    1  0.2514307E-008  0.1979301E+04  0.7818608E-02  0.8629344E-01
         -1   -1    0    0    0  501 -0.00000000000E+00  0.00000000000E+00  0.21782656275E+04  0.21782656275E+04  0.50400000000E-02 0.  1.
          1   -1    0    0  501    0  0.00000000000E+00 -0.00000000000E+00 -0.29416408706E+04  0.29416408706E+04  0.50400000000E-02 0. -1.
    8880023    1    1    2    0    0  0.11250421281E+04  0.14893295115E+04  0.12729870324E+04  0.23533228369E+04  0.65864270000E+03 0.  0.
    8880022    1    1    2    0    0 -0.11250421281E+04 -0.14893295115E+04 -0.20363622755E+04  0.27665836611E+04  0.15294330000E+03 0.  0.
<mgrwt>
<rscale>  0 0.19521094E+04</rscale>
<asrwt>0</asrwt>
<pdfrwt beam="1">  1        1 0.45256014E+00 0.19793010E+04</pdfrwt>
<pdfrwt beam="2">  1       -1 0.33511779E+00 0.19793010E+04</pdfrwt>
<totfact> 0.11380954E-02</totfact>
</mgrwt>
</event>
<event>
 4    1  0.2514307E-008  0.1726297E+04  0.7818608E-02  0.8764440E-01
         -1   -1    0    0    0  501 -0.00000000000E+00  0.00000000000E+00  0.22201650456E+04  0.22201650456E+04  0.50400000000E-02 0.  1.
          1   -1    0    0  501    0  0.00000000000E+00 -0.00000000000E+00 -0.18642471078E+04  0.18642471078E+04  0.50400000000E-02 0. -1.
    8880023    1    1    2    0    0  0.48383211197E+03  0.15205917110E+04 -0.99110407681E+03  0.19905753343E+04  0.65864270000E+03 0. -1.
    8880022    1    1    2    0    0 -0.48383211197E+03 -0.15205917110E+04  0.13470220147E+04  0.20938368191E+04  0.15294330000E+03 0.  0.
<mgrwt>
<rscale>  0 0.16946175E+04</rscale>
<asrwt>0</asrwt>
<pdfrwt beam="1">  1        1 0.28680725E+00 0.17262974E+04</pdfrwt>
<pdfrwt beam="2">  1       -1 0.34156385E+00 0.17262974E+04</pdfrwt>
<totfact> 0.59772551E-02</totfact>
</mgrwt>
</event>
<event>
 4    1  0.2514307E-008  0.1053213E+04  0.7818608E-02  0.9315029E-01
         -1   -1    0    0    0  501 -0.00000000000E+00  0.00000000000E+00  0.15602593543E+04  0.15602593543E+04  0.50400000000E-02 0.  1.
          1   -1    0    0  501    0  0.00000000000E+00 -0.00000000000E+00 -0.76425947664E+03  0.76425947666E+03  0.50400000000E-02 0. -1.
    8880023    1    1    2    0    0 -0.20420549864E+03 -0.79608223521E+03  0.10125108481E+04  0.14609706481E+04  0.65864270000E+03 0.  1.
    8880022    1    1    2    0    0  0.20420549864E+03  0.79608223521E+03 -0.21651097037E+03  0.86354818291E+03  0.15294330000E+03 0.  0.
<mgrwt>
<rscale>  0 0.99410937E+03</rscale>
<asrwt>0</asrwt>
<pdfrwt beam="1">  1        1 0.11757838E+00 0.10532127E+04</pdfrwt>
<pdfrwt beam="2">  1       -1 0.24003990E+00 0.10532127E+04</pdfrwt>
<totfact> 0.19272939E+00</totfact>
</mgrwt>
</event>
<event>
 4    1  0.2514307E-008  0.1376162E+04  0.7818608E-02  0.9002430E-01
          1   -1    0    0  501    0  0.00000000000E+00  0.00000000000E+00  0.14733472585E+04  0.14733472585E+04  0.50400000000E-02 0. -1.
         -1   -1    0    0    0  501 -0.00000000000E+00 -0.00000000000E+00 -0.14454317289E+04  0.14454317289E+04  0.50400000000E-02 0.  1.
    8880023    1    1    2    0    0  0.67630679381E+03 -0.10013093414E+04 -0.65319827086E+03  0.15233152871E+04  0.65864270000E+03 0.  0.
    8880022    1    1    2    0    0 -0.67630679381E+03  0.10013093414E+04  0.68111380042E+03  0.13954637003E+04  0.15294330000E+03 0.  0.
<mgrwt>
<rscale>  0 0.13347795E+04</rscale>
<asrwt>0</asrwt>
<pdfrwt beam="1">  1        1 0.22666881E+00 0.13761619E+04</pdfrwt>
<pdfrwt beam="2">  1       -1 0.22237411E+00 0.13761619E+04</pdfrwt>
<totfact> 0.69496992E-01</totfact>
</mgrwt>
</event>
<event>
 4    1  0.2514307E-008  0.6750722E+03  0.7818608E-02  0.1012261E+00
          1   -1    0    0  501    0  0.00000000000E+00  0.00000000000E+00  0.21657481391E+04  0.21657481391E+04  0.50400000000E-02 0. -1.
         -1   -1    0    0    0  501 -0.00000000000E+00 -0.00000000000E+00 -0.10047647341E+03  0.10047647353E+03  0.50400000000E-02 0.  1.
    8880023    1    1    2    0    0  0.46371046475E+02 -0.14057735656E+03  0.12173864694E+04  0.13920317127E+04  0.65864270000E+03 0.  0.
    8880022    1    1    2    0    0 -0.46371046475E+02  0.14057735656E+03  0.84788519631E+03  0.87419289992E+03  0.15294330000E+03 0.  1.
<mgrwt>
<rscale>  0 0.50585919E+03</rscale>
<asrwt>0</asrwt>
<pdfrwt beam="1">  1        1 0.33319201E+00 0.67507220E+03</pdfrwt>
<pdfrwt beam="2">  1       -1 0.15457920E-01 0.67507220E+03</pdfrwt>
<totfact> 0.75130130E+01</totfact>
</mgrwt>
</event>
<event>
 4    1  0.2514307E-008  0.1549470E+04  0.7818608E-02  0.8875471E-01
          1   -1    0    0  501    0  0.00000000000E+00  0.00000000000E+00  0.36332633037E+04  0.36332633037E+04  0.50400000000E-02 0. -1.
         -1   -1    0    0    0  501 -0.00000000000E+00 -0.00000000000E+00 -0.72782462010E+03  0.72782462012E+03  0.50400000000E-02 0.  1.
    8880023    1    1    2    0    0  0.10534923621E+04 -0.92585129209E+03  0.60686310709E+03  0.16640732583E+04  0.65864270000E+03 0.  0.
    8880022    1    1    2    0    0 -0.10534923621E+04  0.92585129209E+03  0.22985755765E+04  0.26970146655E+04  0.15294330000E+03 0.  0.
<mgrwt>
<rscale>  0 0.15135820E+04</rscale>
<asrwt>0</asrwt>
<pdfrwt beam="1">  1        1 0.55896357E+00 0.15494699E+04</pdfrwt>
<pdfrwt beam="2">  1       -1 0.11197302E+00 0.15494699E+04</pdfrwt>
<totfact> 0.13686363E-01</totfact>
</mgrwt>
</event>
<event>
 4    1  0.2514307E-008  0.7670580E+03  0.7818608E-02  0.9787166E-01
         -1   -1    0    0    0  501 -0.00000000000E+00  0.00000000000E+00  0.63564051374E+03  0.63564051376E+03  0.50400000000E-02 0.  1.
          1   -1    0    0  501    0  0.00000000000E+00 -0.00000000000E+00 -0.32571579543E+04  0.32571579543E+04  0.50400000000E-02 0. -1.
    8880023    1    1    2    0    0 -0.36167288870E+03 -0.15414435814E+03  0.38400856449E+03  0.85781148595E+03  0.65864270000E+03 0.  0.
    8880022    1    1    2    0    0  0.36167288870E+03  0.15414435814E+03 -0.30055260051E+04  0.30349869821E+04  0.15294330000E+03 0.  0.
<mgrwt>
<rscale>  0 0.66055848E+03</rscale>
<asrwt>0</asrwt>
<pdfrwt beam="1">  1        1 0.50110121E+00 0.76705800E+03</pdfrwt>
<pdfrwt beam="2">  1       -1 0.97790850E-01 0.76705800E+03</pdfrwt>
<totfact> 0.41900281E-01</totfact>
</mgrwt>
</event>
<event>
 4    1  0.2514307E-008  0.1449456E+04  0.7818608E-02  0.8946177E-01
         -1   -1    0    0    0  501 -0.00000000000E+00  0.00000000000E+00  0.11832149714E+04  0.11832149714E+04  0.50400000000E-02 0.  1.
          1   -1    0    0  501    0  0.00000000000E+00 -0.00000000000E+00 -0.22903011446E+04  0.22903011446E+04  0.50400000000E-02 0. -1.
    8880023    1    1    2    0    0  0.11771013001E+04 -0.53060838481E+03  0.37974727769E+03  0.14983760976E+04  0.65864270000E+03 0.  0.
    8880022    1    1    2    0    0 -0.11771013001E+04  0.53060838481E+03 -0.14868334508E+04  0.19751400184E+04  0.15294330000E+03 0.  0.
<mgrwt>
<rscale>  0 0.14106063E+04</rscale>
<asrwt>0</asrwt>
<pdfrwt beam="1">  1        1 0.35235402E+00 0.14494561E+04</pdfrwt>
<pdfrwt beam="2">  1       -1 0.18203307E+00 0.14494561E+04</pdfrwt>
<totfact> 0.36213147E-01</totfact>
</mgrwt>
</event>
<event>
 4    1  0.2514307E-008  0.2194580E+04  0.7818608E-02  0.8530900E-01
         -1   -1    0    0    0  501 -0.00000000000E+00  0.00000000000E+00  0.17032847277E+04  0.17032847277E+04  0.50400000000E-02 0.  1.
          1   -1    0    0  501    0  0.00000000000E+00 -0.00000000000E+00 -0.31752279941E+04  0.31752279941E+04  0.50400000000E-02 0. -1.
    8880023    1    1    2    0    0  0.18950350100E+04  0.88950270290E+03  0.18779752846E+03  0.22026009320E+04  0.65864270000E+03 0.  0.
    8880022    1    1    2    0    0 -0.18950350100E+04 -0.88950270290E+03 -0.16597407949E+04  0.26759117898E+04  0.15294330000E+03 0.  0.
<mgrwt>
<rscale>  0 0.21702825E+04</rscale>
<asrwt>0</asrwt>
<pdfrwt beam="1">  1        1 0.48849662E+00 0.21945804E+04</pdfrwt>
<pdfrwt beam="2">  1       -1 0.26204380E+00 0.21945804E+04</pdfrwt>
<totfact> 0.22460858E-02</totfact>
</mgrwt>
</event>
<event>
 4    1  0.2514307E-008  0.6815667E+03  0.7818608E-02  0.1008451E+00
          1   -1    0    0  501    0  0.00000000000E+00  0.00000000000E+00  0.10773243082E+04  0.10773243082E+04  0.50400000000E-02 0. -1.
         -1   -1    0    0    0  501 -0.00000000000E+00 -0.00000000000E+00 -0.70573090449E+03  0.70573090451E+03  0.50400000000E-02 0.  1.
    8880023    1    1    2    0    0 -0.13664192367E+03 -0.10978135119E+03 -0.52274988111E+03  0.85895320294E+03  0.65864270000E+03 0.  1.
    8880022    1    1    2    0    0  0.13664192367E+03  0.10978135119E+03  0.89434328485E+03  0.92410200981E+03  0.15294330000E+03 0.  0.
<mgrwt>
<rscale>  0 0.52094946E+03</rscale>
<asrwt>0</asrwt>
<pdfrwt beam="1">  1        1 0.16574220E+00 0.68156670E+03</pdfrwt>
<pdfrwt beam="2">  1       -1 0.10857399E+00 0.68156670E+03</pdfrwt>
<totfact> 0.10831241E+01</totfact>
</mgrwt>
</event>
<event>
 4    1  0.2791426E-008  0.1375871E+04  0.7818608E-02  0.9002662E-01
         -1   -1    0    0    0  501 -0.00000000000E+00  0.00000000000E+00  0.13633850548E+04  0.13633850548E+04  0.50400000000E-02 0.  1.
          1   -1    0    0  501    0  0.00000000000E+00 -0.00000000000E+00 -0.28607681146E+04  0.28607681146E+04  0.50400000000E-02 0. -1.
    8880023    1    1    2    0    0  0.72524980502E+02 -0.12057990389E+04  0.82333432832E+03  0.16034028868E+04  0.65864270000E+03 0.  1.
    8880022    1    1    2    0    0 -0.72524980502E+02  0.12057990389E+04 -0.23207173882E+04  0.26207502826E+04  0.15294330000E+03 0.  0.
<mgrwt>
<rscale>  0 0.13344780E+04</rscale>
<asrwt>0</asrwt>
<pdfrwt beam="1">  1        1 0.44011817E+00 0.13758711E+04</pdfrwt>
<pdfrwt beam="2">  1       -1 0.20975155E+00 0.13758711E+04</pdfrwt>
<totfact> 0.93691425E-02</totfact>
</mgrwt>
</event>
<event>
 4    1  0.2514307E-008  0.9968228E+03  0.7818608E-02  0.9385726E-01
         -1   -1    0    0    0  501 -0.00000000000E+00  0.00000000000E+00  0.22947692254E+04  0.22947692255E+04  0.50400000000E-02 0.  1.
          1   -1    0    0  501    0  0.00000000000E+00 -0.00000000000E+00 -0.37132436556E+03  0.37132436559E+03  0.50400000000E-02 0. -1.
    8880023    1    1    2    0    0  0.46802565850E+02  0.74676303834E+03  0.67938191245E+03  0.12063231345E+04  0.65864270000E+03 0.  0.
    8880022    1    1    2    0    0 -0.46802565850E+02 -0.74676303834E+03  0.12440629474E+04  0.14597704565E+04  0.15294330000E+03 0.  0.
<mgrwt>
<rscale>  0 0.93259724E+03</rscale>
<asrwt>0</asrwt>
<pdfrwt beam="1">  1        1 0.57126826E-01 0.99682281E+03</pdfrwt>
<pdfrwt beam="2">  1       -1 0.35304142E+00 0.99682281E+03</pdfrwt>
<totfact> 0.10039756E+00</totfact>
</mgrwt>
</event>
<event>
 4    1  0.2514307E-008  0.1041196E+04  0.7818608E-02  0.9329540E-01
          1   -1    0    0  501    0  0.00000000000E+00  0.00000000000E+00  0.11103435877E+04  0.11103435877E+04  0.50400000000E-02 0. -1.
         -1   -1    0    0    0  501 -0.00000000000E+00 -0.00000000000E+00 -0.91105289532E+03  0.91105289533E+03  0.50400000000E-02 0.  1.
    8880023    1    1    2    0    0  0.80527336891E+03  0.42592725523E+02 -0.27039673223E+03  0.10757341391E+04  0.65864270000E+03 0.  0.
    8880022    1    1    2    0    0 -0.80527336891E+03 -0.42592725523E+02  0.46968742464E+03  0.94566234398E+03  0.15294330000E+03 0.  0.
<mgrwt>
<rscale>  0 0.98108224E+03</rscale>
<asrwt>0</asrwt>
<pdfrwt beam="1">  1        1 0.17082209E+00 0.10411962E+04</pdfrwt>
<pdfrwt beam="2">  1       -1 0.14016198E+00 0.10411962E+04</pdfrwt>
<totfact> 0.51948644E+00</totfact>
</mgrwt>
</event>
<event>
 4    1  0.2514307E-008  0.7203892E+03  0.7818608E-02  0.9921271E-01
         -1   -1    0    0    0  501 -0.00000000000E+00  0.00000000000E+00  0.17628632999E+03  0.17628633006E+03  0.50400000000E-02 0.  1.
          1   -1    0    0  501    0  0.00000000000E+00 -0.00000000000E+00 -0.27674111184E+04  0.27674111184E+04  0.50400000000E-02 0. -1.
    8880023    1    1    2    0    0 -0.27504222758E+03  0.97478740721E+02 -0.63586994703E+03  0.96088039195E+03  0.65864270000E+03 0.  1.
    8880022    1    1    2    0    0  0.27504222758E+03 -0.97478740721E+02 -0.19552548413E+04  0.19828170565E+04  0.15294330000E+03 0.  0.
<mgrwt>
<rscale>  0 0.59241370E+03</rscale>
<asrwt>0</asrwt>
<pdfrwt beam="1">  1        1 0.42575552E+00 0.72038916E+03</pdfrwt>
<pdfrwt beam="2">  1       -1 0.27120976E-01 0.72038916E+03</pdfrwt>
<totfact> 0.11360680E+01</totfact>
</mgrwt>
</event>
<event>
 4    1  0.2514307E-008  0.8880865E+03  0.7818608E-02  0.9545434E-01
         -1   -1    0    0    0  501 -0.00000000000E+00  0.00000000000E+00  0.83452075790E+03  0.83452075792E+03  0.50400000000E-02 0.  1.
          1   -1    0    0  501    0  0.00000000000E+00 -0.00000000000E+00 -0.16284253097E+04  0.16284253097E+04  0.50400000000E-02 0. -1.
    8880023    1    1    2    0    0  0.40883545859E+03  0.43329098335E+03  0.50797087515E+03  0.10230992741E+04  0.65864270000E+03 0.  1.
    8880022    1    1    2    0    0 -0.40883545859E+03 -0.43329098335E+03 -0.13018754270E+04  0.14398467935E+04  0.15294330000E+03 0.  0.
<mgrwt>
<rscale>  0 0.81015482E+03</rscale>
<asrwt>0</asrwt>
<pdfrwt beam="1">  1        1 0.25052697E+00 0.88808655E+03</pdfrwt>
<pdfrwt beam="2">  1       -1 0.12838781E+00 0.88808655E+03</pdfrwt>
<totfact> 0.28558218E+00</totfact>
</mgrwt>
</event>
<event>
 4    1  0.2514307E-008  0.9743199E+03  0.7818608E-02  0.9415954E-01
          1   -1    0    0  501    0  0.00000000000E+00  0.00000000000E+00  0.16436843933E+04  0.16436843933E+04  0.50400000000E-02 0. -1.
         -1   -1    0    0    0  501 -0.00000000000E+00 -0.00000000000E+00 -0.11186998848E+04  0.11186998848E+04  0.50400000000E-02 0.  1.
    8880023    1    1    2    0    0  0.71791887098E+03 -0.90331996622E+01 -0.79134528718E+03  0.12551998541E+04  0.65864270000E+03 0.  1.
    8880022    1    1    2    0    0 -0.71791887098E+03  0.90331996622E+01  0.13163297956E+04  0.15071844240E+04  0.15294330000E+03 0.  0.
<mgrwt>
<rscale>  0 0.90774271E+03</rscale>
<asrwt>0</asrwt>
<pdfrwt beam="1">  1        1 0.25287452E+00 0.97431992E+03</pdfrwt>
<pdfrwt beam="2">  1       -1 0.17210767E+00 0.97431992E+03</pdfrwt>
<totfact> 0.12506591E+00</totfact>
</mgrwt>
</event>
<event>
 4    1  0.2514307E-008  0.6816644E+03  0.7818608E-02  0.1008397E+00
          1   -1    0    0  501    0  0.00000000000E+00  0.00000000000E+00  0.15019173647E+04  0.15019173647E+04  0.50400000000E-02 0. -1.
         -1   -1    0    0    0  501 -0.00000000000E+00 -0.00000000000E+00 -0.55146011404E+03  0.55146011407E+03  0.50400000000E-02 0.  1.
    8880023    1    1    2    0    0  0.62473422383E+02 -0.16417424159E+03 -0.32616789338E+03  0.75567970136E+03  0.65864270000E+03 0.  1.
    8880022    1    1    2    0    0 -0.62473422383E+02  0.16417424159E+03  0.12766251440E+04  0.12976977774E+04  0.15294330000E+03 0.  0.
<mgrwt>
<rscale>  0 0.52116552E+03</rscale>
<asrwt>0</asrwt>
<pdfrwt beam="1">  1        1 0.23106420E+00 0.68166437E+03</pdfrwt>
<pdfrwt beam="2">  1       -1 0.84840020E-01 0.68166437E+03</pdfrwt>
<totfact> 0.94152068E+00</totfact>
</mgrwt>
</event>
<event>
 4    1  0.2514307E-008  0.7394815E+03  0.7818608E-02  0.9861460E-01
         -1   -1    0    0    0  501 -0.00000000000E+00  0.00000000000E+00  0.19448924411E+03  0.19448924417E+03  0.50400000000E-02 0.  1.
          1   -1    0    0  501    0  0.00000000000E+00 -0.00000000000E+00 -0.16395732367E+04  0.16395732367E+04  0.50400000000E-02 0. -1.
    8880023    1    1    2    0    0 -0.16750552456E+03  0.29148684586E+03 -0.79045587585E+03  0.10824293880E+04  0.65864270000E+03 0. -1.
    8880022    1    1    2    0    0  0.16750552456E+03 -0.29148684586E+03 -0.65462811673E+03  0.75163309287E+03  0.15294330000E+03 0.  1.
<mgrwt>
<rscale>  0 0.62166009E+03</rscale>
<asrwt>0</asrwt>
<pdfrwt beam="1">  1        1 0.25224203E+00 0.73948150E+03</pdfrwt>
<pdfrwt beam="2">  1       -1 0.29921423E-01 0.73948150E+03</pdfrwt>
<totfact> 0.55324919E+01</totfact>
</mgrwt>
</event>
<event>
 4    1  0.2514307E-008  0.9447111E+03  0.7818608E-02  0.9457765E-01
          1   -1    0    0  501    0  0.00000000000E+00  0.00000000000E+00  0.14322101223E+04  0.14322101224E+04  0.50400000000E-02 0. -1.
         -1   -1    0    0    0  501 -0.00000000000E+00 -0.00000000000E+00 -0.11553652547E+04  0.11553652547E+04  0.50400000000E-02 0.  1.
    8880023    1    1    2    0    0 -0.26797027915E+03  0.62198136888E+03 -0.84551364659E+03  0.12678219223E+04  0.65864270000E+03 0.  0.
    8880022    1    1    2    0    0  0.26797027915E+03 -0.62198136888E+03  0.11223585143E+04  0.13197534548E+04  0.15294330000E+03 0.  0.
<mgrwt>
<rscale>  0 0.87470573E+03</rscale>
<asrwt>0</asrwt>
<pdfrwt beam="1">  1        1 0.22034002E+00 0.94471112E+03</pdfrwt>
<pdfrwt beam="2">  1       -1 0.17774850E+00 0.94471112E+03</pdfrwt>
<totfact> 0.15974444E+00</totfact>
</mgrwt>
</event>
<event>
 4    1  0.2514307E-008  0.9907494E+03  0.7818608E-02  0.9393762E-01
         -1   -1    0    0    0  501 -0.00000000000E+00  0.00000000000E+00  0.15344359997E+04  0.15344359997E+04  0.50400000000E-02 0.  1.
          1   -1    0    0  501    0  0.00000000000E+00 -0.00000000000E+00 -0.10696952028E+04  0.10696952028E+04  0.50400000000E-02 0. -1.
    8880023    1    1    2    0    0  0.59266277386E+03 -0.44331132345E+03  0.11956240190E+04  0.15527720676E+04  0.65864270000E+03 0.  0.
    8880022    1    1    2    0    0 -0.59266277386E+03  0.44331132345E+03 -0.73088322214E+03  0.10513591348E+04  0.15294330000E+03 0.  0.
<mgrwt>
<rscale>  0 0.92590861E+03</rscale>
<asrwt>0</asrwt>
<pdfrwt beam="1">  1        1 0.16456849E+00 0.99074936E+03</pdfrwt>
<pdfrwt beam="2">  1       -1 0.23606708E+00 0.99074936E+03</pdfrwt>
<totfact> 0.11601471E+00</totfact>
</mgrwt>
</event>
<event>
 4    1  0.2514307E-008  0.1053542E+04  0.7818608E-02  0.9314635E-01
         -1   -1    0    0    0  501 -0.00000000000E+00  0.00000000000E+00  0.20532346810E+04  0.20532346811E+04  0.50400000000E-02 0.  1.
          1   -1    0    0  501    0  0.00000000000E+00 -0.00000000000E+00 -0.54722600849E+03  0.54722600851E+03  0.50400000000E-02 0. -1.
    8880023    1    1    2    0    0 -0.50229434398E+02 -0.82074239037E+03  0.14077524850E+04  0.17583282779E+04  0.65864270000E+03 0.  0.
    8880022    1    1    2    0    0  0.50229434398E+02  0.82074239037E+03  0.98256187552E+02  0.84213241170E+03  0.15294330000E+03 0.  0.
<mgrwt>
<rscale>  0 0.99446607E+03</rscale>
<asrwt>0</asrwt>
<pdfrwt beam="1">  1        1 0.84188618E-01 0.10535423E+04</pdfrwt>
<pdfrwt beam="2">  1       -1 0.31588225E+00 0.10535423E+04</pdfrwt>
<totfact> 0.10263873E+00</totfact>
</mgrwt>
</event>
<event>
 4    1  0.2514307E-008  0.7411861E+03  0.7818608E-02  0.9856505E-01
          1   -1    0    0  501    0  0.00000000000E+00  0.00000000000E+00  0.15141635052E+04  0.15141635052E+04  0.50400000000E-02 0. -1.
         -1   -1    0    0    0  501 -0.00000000000E+00 -0.00000000000E+00 -0.75242087112E+03  0.75242087114E+03  0.50400000000E-02 0.  1.
    8880023    1    1    2    0    0  0.13487220713E+03  0.31201938820E+03 -0.53708845699E+03  0.91532553104E+03  0.65864270000E+03 0.  1.
    8880022    1    1    2    0    0 -0.13487220713E+03 -0.31201938820E+03  0.12988310911E+04  0.13512588453E+04  0.15294330000E+03 0.  0.
<mgrwt>
<rscale>  0 0.62416323E+03</rscale>
<asrwt>0</asrwt>
<pdfrwt beam="1">  1        1 0.23294823E+00 0.74118609E+03</pdfrwt>
<pdfrwt beam="2">  1       -1 0.11575706E+00 0.74118609E+03</pdfrwt>
<totfact> 0.45121400E+00</totfact>
</mgrwt>
</event>
<event>
 4    1  0.2514307E-008  0.1142866E+04  0.7818608E-02  0.9214766E-01
          1   -1    0    0  501    0  0.00000000000E+00  0.00000000000E+00  0.30608701711E+04  0.30608701711E+04  0.50400000000E-02 0. -1.
         -1   -1    0    0    0  501 -0.00000000000E+00 -0.00000000000E+00 -0.49754062629E+03  0.49754062632E+03  0.50400000000E-02 0.  1.
    8880023    1    1    2    0    0 -0.21027322001E+03 -0.91001025293E+03  0.23122075688E+04  0.25792339047E+04  0.65864270000E+03 0. -1.
    8880022    1    1    2    0    0  0.21027322001E+03  0.91001025293E+03  0.25112197602E+03  0.97917689278E+03  0.15294330000E+03 0.  0.
<mgrwt>
<rscale>  0 0.10902308E+04</rscale>
<asrwt>0</asrwt>
<pdfrwt beam="1">  1        1 0.47090310E+00 0.11428664E+04</pdfrwt>
<pdfrwt beam="2">  1       -1 0.76544712E-01 0.11428664E+04</pdfrwt>
<totfact> 0.93052221E-01</totfact>
</mgrwt>
</event>
<event>
 4    1  0.2514307E-008  0.8077450E+03  0.7818608E-02  0.9694293E-01
          1   -1    0    0  501    0  0.00000000000E+00  0.00000000000E+00  0.14473327450E+04  0.14473327450E+04  0.50400000000E-02 0. -1.
         -1   -1    0    0    0  501 -0.00000000000E+00 -0.00000000000E+00 -0.82450820684E+03  0.82450820685E+03  0.50400000000E-02 0.  1.
    8880023    1    1    2    0    0  0.35699735403E+03 -0.30198449767E+03 -0.56528658342E+03  0.98590104741E+03  0.65864270000E+03 0.  1.
    8880022    1    1    2    0    0 -0.35699735403E+03  0.30198449767E+03  0.11881111216E+04  0.12859399045E+04  0.15294330000E+03 0.  0.
<mgrwt>
<rscale>  0 0.71357580E+03</rscale>
<asrwt>0</asrwt>
<pdfrwt beam="1">  1        1 0.22266657E+00 0.80774498E+03</pdfrwt>
<pdfrwt beam="2">  1       -1 0.12684742E+00 0.80774498E+03</pdfrwt>
<totfact> 0.39650250E+00</totfact>
</mgrwt>
</event>
<event>
 4    1  0.2514307E-008  0.1289917E+04  0.7818608E-02  0.9074317E-01
          1   -1    0    0  501    0  0.00000000000E+00  0.00000000000E+00  0.13819288843E+04  0.13819288843E+04  0.50400000000E-02 0. -1.
         -1   -1    0    0    0  501 -0.00000000000E+00 -0.00000000000E+00 -0.16018550809E+04  0.16018550809E+04  0.50400000000E-02 0.  1.
    8880023    1    1    2    0    0  0.10791674006E+04 -0.25587618697E+03 -0.98906213235E+03  0.16254627063E+04  0.65864270000E+03 0.  1.
    8880022    1    1    2    0    0 -0.10791674006E+04  0.25587618697E+03  0.76913593571E+03  0.13583212589E+04  0.15294330000E+03 0.  0.
<mgrwt>
<rscale>  0 0.12450458E+04</rscale>
<asrwt>0</asrwt>
<pdfrwt beam="1">  1        1 0.21260444E+00 0.12899167E+04</pdfrwt>
<pdfrwt beam="2">  1       -1 0.24643924E+00 0.12899167E+04</pdfrwt>
<totfact> 0.56428997E-01</totfact>
</mgrwt>
</event>
<event>
 4    1  0.2514307E-008  0.7766487E+03  0.7818608E-02  0.9763769E-01
         -1   -1    0    0    0  501 -0.00000000000E+00  0.00000000000E+00  0.28511759134E+03  0.28511759138E+03  0.50400000000E-02 0.  1.
          1   -1    0    0  501    0  0.00000000000E+00 -0.00000000000E+00 -0.16020545609E+04  0.16020545609E+04  0.50400000000E-02 0. -1.
    8880023    1    1    2    0    0  0.34291572832E+03  0.22755630814E+03 -0.12058040114E+04  0.14342756326E+04  0.65864270000E+03 0. -1.
    8880022    1    1    2    0    0 -0.34291572832E+03 -0.22755630814E+03 -0.11113295810E+03  0.45289651963E+03  0.15294330000E+03 0.  0.
<mgrwt>
<rscale>  0 0.67343693E+03</rscale>
<asrwt>0</asrwt>
<pdfrwt beam="1">  1        1 0.24646993E+00 0.77664875E+03</pdfrwt>
<pdfrwt beam="2">  1       -1 0.43864246E-01 0.77664875E+03</pdfrwt>
<totfact> 0.29420976E+01</totfact>
</mgrwt>
</event>
<event>
 4    1  0.2514307E-008  0.6958149E+03  0.7818608E-02  0.1001503E+00
          1   -1    0    0  501    0  0.00000000000E+00  0.00000000000E+00  0.25059119410E+04  0.25059119410E+04  0.50400000000E-02 0. -1.
         -1   -1    0    0    0  501 -0.00000000000E+00 -0.00000000000E+00 -0.18139447102E+03  0.18139447109E+03  0.50400000000E-02 0.  1.
    8880023    1    1    2    0    0  0.11099981851E+03  0.19500578420E+03  0.53608770617E+03  0.87837830719E+03  0.65864270000E+03 0.  1.
    8880022    1    1    2    0    0 -0.11099981851E+03 -0.19500578420E+03  0.17884297638E+04  0.18089281049E+04  0.15294330000E+03 0.  0.
<mgrwt>
<rscale>  0 0.54996253E+03</rscale>
<asrwt>0</asrwt>
<pdfrwt beam="1">  1        1 0.38552490E+00 0.69581493E+03</pdfrwt>
<pdfrwt beam="2">  1       -1 0.27906843E-01 0.69581493E+03</pdfrwt>
<totfact> 0.16448753E+01</totfact>
</mgrwt>
</event>
<event>
 4    1  0.2514307E-008  0.1513276E+04  0.7818608E-02  0.8900318E-01
          1   -1    0    0  501    0  0.00000000000E+00  0.00000000000E+00  0.25337539496E+04  0.25337539496E+04  0.50400000000E-02 0. -1.
         -1   -1    0    0    0  501 -0.00000000000E+00 -0.00000000000E+00 -0.10272784499E+04  0.10272784499E+04  0.50400000000E-02 0.  1.
    8880023    1    1    2    0    0 -0.44625528066E+03  0.12872641112E+04 -0.14523642318E+02  0.15133452382E+04  0.65864270000E+03 0.  0.
    8880022    1    1    2    0    0  0.44625528066E+03 -0.12872641112E+04  0.15209991421E+04  0.20476871613E+04  0.15294330000E+03 0.  0.
<mgrwt>
<rscale>  0 0.14763735E+04</rscale>
<asrwt>0</asrwt>
<pdfrwt beam="1">  1        1 0.38980830E+00 0.15132755E+04</pdfrwt>
<pdfrwt beam="2">  1       -1 0.15804284E+00 0.15132755E+04</pdfrwt>
<totfact> 0.36785345E-01</totfact>
</mgrwt>
</event>
<event>
 4    1  0.2514307E-008  0.7498088E+03  0.7818608E-02  0.9832244E-01
         -1   -1    0    0    0  501 -0.00000000000E+00  0.00000000000E+00  0.56435763060E+03  0.56435763062E+03  0.50400000000E-02 0.  1.
          1   -1    0    0  501    0  0.00000000000E+00 -0.00000000000E+00 -0.94405967975E+03  0.94405967976E+03  0.50400000000E-02 0. -1.
    8880023    1    1    2    0    0  0.30869366099E+03  0.18196504824E+03  0.23050261180E+03  0.78443910880E+03  0.65864270000E+03 0.  1.
    8880022    1    1    2    0    0 -0.30869366099E+03 -0.18196504824E+03 -0.61020466094E+03  0.72397820158E+03  0.15294330000E+03 0.  0.
<mgrwt>
<rscale>  0 0.63660491E+03</rscale>
<asrwt>0</asrwt>
<pdfrwt beam="1">  1        1 0.14523995E+00 0.74980882E+03</pdfrwt>
<pdfrwt beam="2">  1       -1 0.86824251E-01 0.74980882E+03</pdfrwt>
<totfact> 0.22520417E+01</totfact>
</mgrwt>
</event>
<event>
 4    1  0.2612325E-008  0.1178034E+04  0.7818608E-02  0.9178776E-01
          1   -1    0    0  501    0  0.00000000000E+00  0.00000000000E+00  0.19430056283E+04  0.19430056284E+04  0.50400000000E-02 0. -1.
         -1   -1    0    0    0  501 -0.00000000000E+00 -0.00000000000E+00 -0.19859724764E+04  0.19859724764E+04  0.50400000000E-02 0.  1.
    8880023    1    1    2    0    0 -0.97432529843E+03 -0.68150784738E+02 -0.16588958781E+04  0.20346252867E+04  0.65864270000E+03 0.  0.
    8880022    1    1    2    0    0  0.97432529843E+03  0.68150784738E+02  0.16159290300E+04  0.18943528181E+04  0.15294330000E+03 0.  0.
<mgrwt>
<rscale>  0 0.11275205E+04</rscale>
<asrwt>0</asrwt>
<pdfrwt beam="1">  1        1 0.29892394E+00 0.11780342E+04</pdfrwt>
<pdfrwt beam="2">  1       -1 0.30553423E+00 0.11780342E+04</pdfrwt>
<totfact> 0.98015749E-02</totfact>
</mgrwt>
</event>
<event>
 4    1  0.2514307E-008  0.8495025E+03  0.7818608E-02  0.9612516E-01
          1   -1    0    0  501    0  0.00000000000E+00  0.00000000000E+00  0.24913375948E+04  0.24913375948E+04  0.50400000000E-02 0. -1.
         -1   -1    0    0    0  501 -0.00000000000E+00 -0.00000000000E+00 -0.52800121831E+03  0.52800121834E+03  0.50400000000E-02 0.  1.
    8880023    1    1    2    0    0 -0.39805690357E+03 -0.35971516622E+03 -0.12420720420E+03  0.85853476058E+03  0.65864270000E+03 0.  0.
    8880022    1    1    2    0    0  0.39805690357E+03  0.35971516622E+03  0.20875435806E+04  0.21608040525E+04  0.15294330000E+03 0.  0.
<mgrwt>
<rscale>  0 0.76473280E+03</rscale>
<asrwt>0</asrwt>
<pdfrwt beam="1">  1        1 0.38328270E+00 0.84950250E+03</pdfrwt>
<pdfrwt beam="2">  1       -1 0.81230958E-01 0.84950250E+03</pdfrwt>
<totfact> 0.21643956E+00</totfact>
</mgrwt>
</event>
<event>
 4    1  0.2514307E-008  0.7866736E+03  0.7818608E-02  0.9740388E-01
         -1   -1    0    0    0  501 -0.00000000000E+00  0.00000000000E+00  0.74576648836E+03  0.74576648838E+03  0.50400000000E-02 0.  1.
          1   -1    0    0  501    0  0.00000000000E+00 -0.00000000000E+00 -0.67722505979E+03  0.67722505980E+03  0.50400000000E-02 0. -1.
    8880023    1    1    2    0    0  0.42806817035E+03  0.42459750455E+02  0.37666036161E+03  0.87219746798E+03  0.65864270000E+03 0.  0.
    8880022    1    1    2    0    0 -0.42806817035E+03 -0.42459750455E+02 -0.30811893304E+03  0.55079408020E+03  0.15294330000E+03 0.  0.
<mgrwt>
<rscale>  0 0.68662206E+03</rscale>
<asrwt>0</asrwt>
<pdfrwt beam="1">  1        1 0.10418847E+00 0.78667363E+03</pdfrwt>
<pdfrwt beam="2">  1       -1 0.11473331E+00 0.78667363E+03</pdfrwt>
<totfact> 0.20218549E+01</totfact>
</mgrwt>
</event>
<event>
 4    1  0.2514307E-008  0.1090173E+04  0.7818608E-02  0.9272076E-01
         -1   -1    0    0    0  501 -0.00000000000E+00  0.00000000000E+00  0.10892492658E+04  0.10892492658E+04  0.50400000000E-02 0.  1.
          1   -1    0    0  501    0  0.00000000000E+00 -0.00000000000E+00 -0.32550271384E+04  0.32550271384E+04  0.50400000000E-02 0. -1.
    8880023    1    1    2    0    0 -0.74085175172E+03  0.45365916328E+03  0.73338278041E+03  0.13138981937E+04  0.65864270000E+03 0.  0.
    8880022    1    1    2    0    0  0.74085175172E+03 -0.45365916328E+03 -0.28991606529E+04  0.30303782105E+04  0.15294330000E+03 0.  0.
<mgrwt>
<rscale>  0 0.10339471E+04</rscale>
<asrwt>0</asrwt>
<pdfrwt beam="1">  1        1 0.50077340E+00 0.10901735E+04</pdfrwt>
<pdfrwt beam="2">  1       -1 0.16757681E+00 0.10901735E+04</pdfrwt>
<totfact> 0.10061696E-01</totfact>
</mgrwt>
</event>
<event>
 4    1  0.2514307E-008  0.9712902E+03  0.7818608E-02  0.9420122E-01
          1   -1    0    0  501    0  0.00000000000E+00  0.00000000000E+00  0.16298710998E+04  0.16298710998E+04  0.50400000000E-02 0. -1.
         -1   -1    0    0    0  501 -0.00000000000E+00 -0.00000000000E+00 -0.10888539397E+04  0.10888539398E+04  0.50400000000E-02 0.  1.
    8880023    1    1    2    0    0  0.33618120393E+03 -0.62974330624E+03 -0.75568206449E+03  0.12306339921E+04  0.65864270000E+03 0.  1.
    8880022    1    1    2    0    0 -0.33618120393E+03  0.62974330624E+03  0.12966992246E+04  0.14880910475E+04  0.15294330000E+03 0.  0.
<mgrwt>
<rscale>  0 0.90438060E+03</rscale>
<asrwt>0</asrwt>
<pdfrwt beam="1">  1        1 0.25074940E+00 0.97129019E+03</pdfrwt>
<pdfrwt beam="2">  1       -1 0.16751599E+00 0.97129019E+03</pdfrwt>
<totfact> 0.13819160E+00</totfact>
</mgrwt>
</event>
<event>
 4    1  0.2514307E-008  0.8217368E+03  0.7818608E-02  0.9665629E-01
         -1   -1    0    0    0  501 -0.00000000000E+00  0.00000000000E+00  0.11737932645E+04  0.11737932645E+04  0.50400000000E-02 0.  1.
          1   -1    0    0  501    0  0.00000000000E+00 -0.00000000000E+00 -0.81193275370E+03  0.81193275371E+03  0.50400000000E-02 0. -1.
    8880023    1    1    2    0    0  0.45580375587E+03 -0.18353228222E+03  0.91526264880E+03  0.12300232051E+04  0.65864270000E+03 0.  1.
    8880022    1    1    2    0    0 -0.45580375587E+03  0.18353228222E+03 -0.55340213798E+03  0.75570281316E+03  0.15294330000E+03 0.  0.
<mgrwt>
<rscale>  0 0.73100614E+03</rscale>
<asrwt>0</asrwt>
<pdfrwt beam="1">  1        1 0.12491273E+00 0.82173680E+03</pdfrwt>
<pdfrwt beam="2">  1       -1 0.18058358E+00 0.82173680E+03</pdfrwt>
<totfact> 0.45639343E+00</totfact>
</mgrwt>
</event>
<event>
 4    1  0.2514307E-008  0.7783690E+03  0.7818608E-02  0.9759682E-01
          1   -1    0    0  501    0  0.00000000000E+00  0.00000000000E+00  0.18709501301E+04  0.18709501301E+04  0.50400000000E-02 0. -1.
         -1   -1    0    0    0  501 -0.00000000000E+00 -0.00000000000E+00 -0.34689423630E+03  0.34689423633E+03  0.50400000000E-02 0.  1.
    8880023    1    1    2    0    0  0.41210247904E+03 -0.47112876785E+02  0.17445234853E+03  0.79767907366E+03  0.65864270000E+03 0. -1.
    8880022    1    1    2    0    0 -0.41210247904E+03  0.47112876785E+02  0.13496035453E+04  0.14201652928E+04  0.15294330000E+03 0.  0.
<mgrwt>
<rscale>  0 0.67571841E+03</rscale>
<asrwt>0</asrwt>
<pdfrwt beam="1">  1        1 0.28783848E+00 0.77836899E+03</pdfrwt>
<pdfrwt beam="2">  1       -1 0.53368344E-01 0.77836899E+03</pdfrwt>
<totfact> 0.13401044E+01</totfact>
</mgrwt>
</event>
<event>
 4    1  0.2514307E-008  0.7278138E+03  0.7818608E-02  0.9896982E-01
          1   -1    0    0  501    0  0.00000000000E+00  0.00000000000E+00  0.25698578921E+04  0.25698578921E+04  0.50400000000E-02 0. -1.
         -1   -1    0    0    0  501 -0.00000000000E+00 -0.00000000000E+00 -0.23987000652E+03  0.23987000658E+03  0.50400000000E-02 0.  1.
    8880023    1    1    2    0    0 -0.21029036674E+03 -0.22733391988E+03  0.36424411285E+03  0.81387144530E+03  0.65864270000E+03 0.  0.
    8880022    1    1    2    0    0  0.21029036674E+03  0.22733391988E+03  0.19657437727E+04  0.19958564534E+04  0.15294330000E+03 0. -1.
<mgrwt>
<rscale>  0 0.60407760E+03</rscale>
<asrwt>0</asrwt>
<pdfrwt beam="1">  1        1 0.39536277E+00 0.72781382E+03</pdfrwt>
<pdfrwt beam="2">  1       -1 0.36903076E-01 0.72781382E+03</pdfrwt>
<totfact> 0.90504388E+00</totfact>
</mgrwt>
</event>
<event>
 4    1  0.2514307E-008  0.7929269E+03  0.7818608E-02  0.9726303E-01
         -1   -1    0    0    0  501 -0.00000000000E+00  0.00000000000E+00  0.34632128303E+03  0.34632128307E+03  0.50400000000E-02 0.  1.
          1   -1    0    0  501    0  0.00000000000E+00 -0.00000000000E+00 -0.16091650990E+04  0.16091650990E+04  0.50400000000E-02 0. -1.
    8880023    1    1    2    0    0  0.11714230177E+03  0.42567654620E+03 -0.23594562762E+03  0.82728676184E+03  0.65864270000E+03 0.  0.
    8880022    1    1    2    0    0 -0.11714230177E+03 -0.42567654620E+03 -0.10268981883E+04  0.11281996202E+04  0.15294330000E+03 0. -1.
<mgrwt>
<rscale>  0 0.69472060E+03</rscale>
<asrwt>0</asrwt>
<pdfrwt beam="1">  1        1 0.24756386E+00 0.79292689E+03</pdfrwt>
<pdfrwt beam="2">  1       -1 0.53280198E-01 0.79292689E+03</pdfrwt>
<totfact> 0.20129974E+01</totfact>
</mgrwt>
</event>
<event>
 4    1  0.2514307E-008  0.8018777E+03  0.7818608E-02  0.9706751E-01
          1   -1    0    0  501    0  0.00000000000E+00  0.00000000000E+00  0.10854613003E+04  0.10854613003E+04  0.50400000000E-02 0. -1.
         -1   -1    0    0    0  501 -0.00000000000E+00 -0.00000000000E+00 -0.14475098656E+04  0.14475098656E+04  0.50400000000E-02 0.  1.
    8880023    1    1    2    0    0  0.77057622036E+02 -0.45084339048E+03 -0.12716859585E+04  0.15033938350E+04  0.65864270000E+03 0.  1.
    8880022    1    1    2    0    0 -0.77057622036E+02  0.45084339048E+03  0.90963739325E+03  0.10295773308E+04  0.15294330000E+03 0.  0.
<mgrwt>
<rscale>  0 0.70616277E+03</rscale>
<asrwt>0</asrwt>
<pdfrwt beam="1">  1        1 0.16699405E+00 0.80187770E+03</pdfrwt>
<pdfrwt beam="2">  1       -1 0.22269382E+00 0.80187770E+03</pdfrwt>
<totfact> 0.14250042E+00</totfact>
</mgrwt>
</event>
<event>
 4    1  0.2514307E-008  0.1213705E+04  0.7818608E-02  0.9143914E-01
         -1   -1    0    0    0  501 -0.00000000000E+00  0.00000000000E+00  0.15243909941E+04  0.15243909941E+04  0.50400000000E-02 0.  1.
          1   -1    0    0  501    0  0.00000000000E+00 -0.00000000000E+00 -0.10365224752E+04  0.10365224753E+04  0.50400000000E-02 0. -1.
    8880023    1    1    2    0    0  0.77670659641E+03 -0.66030095271E+03  0.83498311247E+03  0.14731861693E+04  0.65864270000E+03 0.  1.
    8880022    1    1    2    0    0 -0.77670659641E+03  0.66030095271E+03 -0.34711459365E+03  0.10877273000E+04  0.15294330000E+03 0.  0.
<mgrwt>
<rscale>  0 0.11651567E+04</rscale>
<asrwt>0</asrwt>
<pdfrwt beam="1">  1        1 0.15946500E+00 0.12137054E+04</pdfrwt>
<pdfrwt beam="2">  1       -1 0.23452169E+00 0.12137054E+04</pdfrwt>
<totfact> 0.12236085E+00</totfact>
</mgrwt>
</event>
<event>
 4    1  0.2514307E-008  0.8994265E+03  0.7818608E-02  0.9526953E-01
          1   -1    0    0  501    0  0.00000000000E+00  0.00000000000E+00  0.23893443892E+04  0.23893443892E+04  0.50400000000E-02 0. -1.
         -1   -1    0    0    0  501 -0.00000000000E+00 -0.00000000000E+00 -0.81026168125E+03  0.81026168126E+03  0.50400000000E-02 0.  1.
    8880023    1    1    2    0    0  0.42814295040E+03 -0.43800842503E+03 -0.49842401527E+03  0.10282968791E+04  0.65864270000E+03 0.  1.
    8880022    1    1    2    0    0 -0.42814295040E+03  0.43800842503E+03  0.20775067232E+04  0.21713091914E+04  0.15294330000E+03 0.  0.
<mgrwt>
<rscale>  0 0.82325527E+03</rscale>
<asrwt>0</asrwt>
<pdfrwt beam="1">  1        1 0.36759145E+00 0.89942647E+03</pdfrwt>
<pdfrwt beam="2">  1       -1 0.12465564E+00 0.89942647E+03</pdfrwt>
<totfact> 0.94166327E-01</totfact>
</mgrwt>
</event>
<event>
 4    1  0.2514307E-008  0.1023728E+04  0.7818608E-02  0.9351151E-01
         -1   -1    0    0    0  501 -0.00000000000E+00  0.00000000000E+00  0.64624502798E+03  0.64624502800E+03  0.50400000000E-02 0.  1.
          1   -1    0    0  501    0  0.00000000000E+00 -0.00000000000E+00 -0.23015499807E+04  0.23015499807E+04  0.50400000000E-02 0. -1.
    8880023    1    1    2    0    0 -0.41106368621E+03  0.66726036200E+03 -0.18603206494E+04  0.21233965408E+04  0.65864270000E+03 0.  0.
    8880022    1    1    2    0    0  0.41106368621E+03 -0.66726036200E+03  0.20501569673E+03  0.82439846782E+03  0.15294330000E+03 0.  0.
<mgrwt>
<rscale>  0 0.96207126E+03</rscale>
<asrwt>0</asrwt>
<pdfrwt beam="1">  1        1 0.35408461E+00 0.10237285E+04</pdfrwt>
<pdfrwt beam="2">  1       -1 0.99422313E-01 0.10237285E+04</pdfrwt>
<totfact> 0.18144786E+00</totfact>
</mgrwt>
</event>
<event>
 4    1  0.2514307E-008  0.1129888E+04  0.7818608E-02  0.9228487E-01
         -1   -1    0    0    0  501 -0.00000000000E+00  0.00000000000E+00  0.11271357475E+04  0.11271357475E+04  0.50400000000E-02 0.  1.
          1   -1    0    0  501    0  0.00000000000E+00 -0.00000000000E+00 -0.13947403642E+04  0.13947403642E+04  0.50400000000E-02 0. -1.
    8880023    1    1    2    0    0  0.97277399053E+02 -0.91289293976E+03  0.57377378355E+03  0.12672264884E+04  0.65864270000E+03 0.  0.
    8880022    1    1    2    0    0 -0.97277399053E+02  0.91289293976E+03 -0.84137840034E+03  0.12546496234E+04  0.15294330000E+03 0.  0.
<mgrwt>
<rscale>  0 0.10764170E+04</rscale>
<asrwt>0</asrwt>
<pdfrwt beam="1">  1        1 0.21457544E+00 0.11298879E+04</pdfrwt>
<pdfrwt beam="2">  1       -1 0.17340550E+00 0.11298879E+04</pdfrwt>
<totfact> 0.17792337E+00</totfact>
</mgrwt>
</event>
<event>
 4    1  0.2514307E-008  0.1672251E+04  0.7818608E-02  0.8796702E-01
          1   -1    0    0  501    0  0.00000000000E+00  0.00000000000E+00  0.28035200814E+04  0.28035200814E+04  0.50400000000E-02 0. -1.
         -1   -1    0    0    0  501 -0.00000000000E+00 -0.00000000000E+00 -0.23714102476E+04  0.23714102476E+04  0.50400000000E-02 0.  1.
    8880023    1    1    2    0    0  0.11895953915E+04 -0.97338319717E+03  0.22410628903E+04  0.27962090638E+04  0.65864270000E+03 0.  0.
    8880022    1    1    2    0    0 -0.11895953915E+04  0.97338319717E+03 -0.18089530565E+04  0.23787212653E+04  0.15294330000E+03 0.  0.
<mgrwt>
<rscale>  0 0.16394000E+04</rscale>
<asrwt>0</asrwt>
<pdfrwt beam="1">  1        1 0.43131078E+00 0.16722507E+04</pdfrwt>
<pdfrwt beam="2">  1       -1 0.36483235E+00 0.16722507E+04</pdfrwt>
<totfact> 0.94472585E-03</totfact>
</mgrwt>
</event>
<event>
 4    1  0.2514307E-008  0.7680975E+03  0.7818608E-02  0.9784578E-01
         -1   -1    0    0    0  501 -0.00000000000E+00  0.00000000000E+00  0.92111864944E+03  0.92111864946E+03  0.50400000000E-02 0.  1.
          1   -1    0    0  501    0  0.00000000000E+00 -0.00000000000E+00 -0.10192443192E+04  0.10192443192E+04  0.50400000000E-02 0. -1.
    8880023    1    1    2    0    0  0.37344858227E+03 -0.12922736993E+03  0.69839874856E+03  0.10381399592E+04  0.65864270000E+03 0.  1.
    8880022    1    1    2    0    0 -0.37344858227E+03  0.12922736993E+03 -0.79652441829E+03  0.90222300940E+03  0.15294330000E+03 0.  0.
<mgrwt>
<rscale>  0 0.66196803E+03</rscale>
<asrwt>0</asrwt>
<pdfrwt beam="1">  1        1 0.15680682E+00 0.76809750E+03</pdfrwt>
<pdfrwt beam="2">  1       -1 0.14171056E+00 0.76809750E+03</pdfrwt>
<totfact> 0.61284461E+00</totfact>
</mgrwt>
</event>
<event>
 4    1  0.2514307E-008  0.6696178E+03  0.7818608E-02  0.1015938E+00
          1   -1    0    0  501    0  0.00000000000E+00  0.00000000000E+00  0.67994774417E+03  0.67994774419E+03  0.50400000000E-02 0. -1.
         -1   -1    0    0    0  501 -0.00000000000E+00 -0.00000000000E+00 -0.38204256011E+03  0.38204256014E+03  0.50400000000E-02 0.  1.
    8880023    1    1    2    0    0  0.19568043745E+02 -0.11914226822E+03 -0.41203194006E+02  0.67088426563E+03  0.65864270000E+03 0.  1.
    8880022    1    1    2    0    0 -0.19568043745E+02  0.11914226822E+03  0.33910837807E+03  0.39110603870E+03  0.15294330000E+03 0. -1.
<mgrwt>
<rscale>  0 0.49181245E+03</rscale>
<asrwt>0</asrwt>
<pdfrwt beam="1">  1        1 0.10460734E+00 0.66961780E+03</pdfrwt>
<pdfrwt beam="2">  1       -1 0.58775780E-01 0.66961780E+03</pdfrwt>
<totfact> 0.85686672E+01</totfact>
</mgrwt>
</event>
<event>
 4    1  0.2514307E-008  0.6900475E+03  0.7818608E-02  0.1004130E+00
          1   -1    0    0  501    0  0.00000000000E+00  0.00000000000E+00  0.13732273985E+04  0.13732273985E+04  0.50400000000E-02 0. -1.
         -1   -1    0    0    0  501 -0.00000000000E+00 -0.00000000000E+00 -0.27509741754E+03  0.27509741758E+03  0.50400000000E-02 0.  1.
    8880023    1    1    2    0    0  0.75345772774E+02 -0.19151605421E+03  0.20609245543E+03  0.72016643281E+03  0.65864270000E+03 0.  1.
    8880022    1    1    2    0    0 -0.75345772774E+02  0.19151605421E+03  0.89203752551E+03  0.92815838326E+03  0.15294330000E+03 0.  0.
<mgrwt>
<rscale>  0 0.53875806E+03</rscale>
<asrwt>0</asrwt>
<pdfrwt beam="1">  1        1 0.21126575E+00 0.69004753E+03</pdfrwt>
<pdfrwt beam="2">  1       -1 0.42322680E-01 0.69004753E+03</pdfrwt>
<totfact> 0.45574105E+01</totfact>
</mgrwt>
</event>
<event>
 4    1  0.2514307E-008  0.8553656E+03  0.7818608E-02  0.9601861E-01
         -1   -1    0    0    0  501 -0.00000000000E+00  0.00000000000E+00  0.97393545736E+03  0.97393545737E+03  0.50400000000E-02 0.  1.
          1   -1    0    0  501    0  0.00000000000E+00 -0.00000000000E+00 -0.57803075461E+03  0.57803075463E+03  0.50400000000E-02 0. -1.
    8880023    1    1    2    0    0  0.77541594041E+02 -0.54021052548E+03 -0.90083243806E+01  0.85541303872E+03  0.65864270000E+03 0. -1.
    8880022    1    1    2    0    0 -0.77541594041E+02  0.54021052548E+03  0.40491302713E+03  0.69655317328E+03  0.15294330000E+03 0.  1.
<mgrwt>
<rscale>  0 0.77173136E+03</rscale>
<asrwt>0</asrwt>
<pdfrwt beam="1">  1        1 0.88927809E-01 0.85536560E+03</pdfrwt>
<pdfrwt beam="2">  1       -1 0.14983622E+00 0.85536560E+03</pdfrwt>
<totfact> 0.12857879E+01</totfact>
</mgrwt>
</event>
<event>
 4    1  0.2514307E-008  0.7990453E+03  0.7818608E-02  0.9712864E-01
         -1   -1    0    0    0  501 -0.00000000000E+00  0.00000000000E+00  0.82646476298E+03  0.82646476299E+03  0.50400000000E-02 0.  1.
          1   -1    0    0  501    0  0.00000000000E+00 -0.00000000000E+00 -0.13286626584E+04  0.13286626584E+04  0.50400000000E-02 0. -1.
    8880023    1    1    2    0    0  0.19069890216E+03 -0.41024027851E+03  0.56991474655E+03  0.98146634277E+03  0.65864270000E+03 0.  1.
    8880022    1    1    2    0    0 -0.19069890216E+03  0.41024027851E+03 -0.10721126419E+04  0.11736610786E+04  0.15294330000E+03 0.  0.
<mgrwt>
<rscale>  0 0.70256005E+03</rscale>
<asrwt>0</asrwt>
<pdfrwt beam="1">  1        1 0.20440964E+00 0.79904528E+03</pdfrwt>
<pdfrwt beam="2">  1       -1 0.12714843E+00 0.79904528E+03</pdfrwt>
<totfact> 0.47753428E+00</totfact>
</mgrwt>
</event>
<event>
 4    1  0.2514307E-008  0.1078560E+04  0.7818608E-02  0.9285311E-01
          1   -1    0    0  501    0  0.00000000000E+00  0.00000000000E+00  0.15771404896E+04  0.15771404896E+04  0.50400000000E-02 0. -1.
         -1   -1    0    0    0  501 -0.00000000000E+00 -0.00000000000E+00 -0.91492463049E+03  0.91492463051E+03  0.50400000000E-02 0.  1.
    8880023    1    1    2    0    0  0.30118102415E+03 -0.79923128556E+03 -0.37306596230E+03  0.11412576728E+04  0.65864270000E+03 0. -1.
    8880022    1    1    2    0    0 -0.30118102415E+03  0.79923128556E+03  0.10352818214E+04  0.13508074474E+04  0.15294330000E+03 0.  0.
<mgrwt>
<rscale>  0 0.10214645E+04</rscale>
<asrwt>0</asrwt>
<pdfrwt beam="1">  1        1 0.24263700E+00 0.10785596E+04</pdfrwt>
<pdfrwt beam="2">  1       -1 0.14075764E+00 0.10785596E+04</pdfrwt>
<totfact> 0.23811939E+00</totfact>
</mgrwt>
</event>
<event>
 4    1  0.2514307E-008  0.1020673E+04  0.7818608E-02  0.9354997E-01
         -1   -1    0    0    0  501 -0.00000000000E+00  0.00000000000E+00  0.12901482190E+04  0.12901482190E+04  0.50400000000E-02 0.  1.
          1   -1    0    0  501    0  0.00000000000E+00 -0.00000000000E+00 -0.75292448713E+03  0.75292448714E+03  0.50400000000E-02 0. -1.
    8880023    1    1    2    0    0 -0.20414416016E+02 -0.77945296513E+03  0.69255576787E+03  0.12334534329E+04  0.65864270000E+03 0.  0.
    8880022    1    1    2    0    0  0.20414416016E+02  0.77945296513E+03 -0.15533203599E+03  0.80961927327E+03  0.15294330000E+03 0.  0.
<mgrwt>
<rscale>  0 0.95873654E+03</rscale>
<asrwt>0</asrwt>
<pdfrwt beam="1">  1        1 0.11583454E+00 0.10206732E+04</pdfrwt>
<pdfrwt beam="2">  1       -1 0.19848434E+00 0.10206732E+04</pdfrwt>
<totfact> 0.37592889E+00</totfact>
</mgrwt>
</event>
<event>
 4    1  0.2514307E-008  0.7566715E+03  0.7818608E-02  0.9813802E-01
         -1   -1    0    0    0  501 -0.00000000000E+00  0.00000000000E+00  0.64521849161E+03  0.64521849163E+03  0.50400000000E-02 0.  1.
          1   -1    0    0  501    0  0.00000000000E+00 -0.00000000000E+00 -0.84296773305E+03  0.84296773306E+03  0.50400000000E-02 0. -1.
    8880023    1    1    2    0    0  0.12192707901E+03  0.35195933240E+03  0.32905251998E+03  0.82512262812E+03  0.65864270000E+03 0.  1.
    8880022    1    1    2    0    0 -0.12192707901E+03 -0.35195933240E+03 -0.52680176142E+03  0.66306359658E+03  0.15294330000E+03 0.  0.
<mgrwt>
<rscale>  0 0.64627082E+03</rscale>
<asrwt>0</asrwt>
<pdfrwt beam="1">  1        1 0.12968734E+00 0.75667152E+03</pdfrwt>
<pdfrwt beam="2">  1       -1 0.99264383E-01 0.75667152E+03</pdfrwt>
<totfact> 0.20213273E+01</totfact>
</mgrwt>
</event>
<event>
 4    1  0.2514307E-008  0.7367955E+03  0.7818608E-02  0.9869382E-01
         -1   -1    0    0    0  501 -0.00000000000E+00  0.00000000000E+00  0.23524291906E+03  0.23524291912E+03  0.50400000000E-02 0.  1.
          1   -1    0    0  501    0  0.00000000000E+00 -0.00000000000E+00 -0.15089531952E+04  0.15089531952E+04  0.50400000000E-02 0. -1.
    8880023    1    1    2    0    0  0.20546514095E+03  0.25853728729E+03 -0.50370451306E+03  0.89251660814E+03  0.65864270000E+03 0.  1.
    8880022    1    1    2    0    0 -0.20546514095E+03 -0.25853728729E+03 -0.77000576306E+03  0.85167950616E+03  0.15294330000E+03 0.  0.
<mgrwt>
<rscale>  0 0.61768402E+03</rscale>
<asrwt>0</asrwt>
<pdfrwt beam="1">  1        1 0.23214664E+00 0.73679553E+03</pdfrwt>
<pdfrwt beam="2">  1       -1 0.36191219E-01 0.73679553E+03</pdfrwt>
<totfact> 0.48520096E+01</totfact>
</mgrwt>
</event>
<event>
 4    1  0.2514307E-008  0.6753568E+03  0.7818608E-02  0.1012082E+00
         -1   -1    0    0    0  501 -0.00000000000E+00  0.00000000000E+00  0.52679079117E+03  0.52679079119E+03  0.50400000000E-02 0.  1.
          1   -1    0    0  501    0  0.00000000000E+00 -0.00000000000E+00 -0.58659444966E+03  0.58659444968E+03  0.50400000000E-02 0. -1.
    8880023    1    1    2    0    0  0.78502579478E+02 -0.12701945346E+03  0.26422652552E+03  0.72520511553E+03  0.65864270000E+03 0.  1.
    8880022    1    1    2    0    0 -0.78502579478E+02  0.12701945346E+03 -0.32403018401E+03  0.38818012534E+03  0.15294330000E+03 0.  0.
<mgrwt>
<rscale>  0 0.50655373E+03</rscale>
<asrwt>0</asrwt>
<pdfrwt beam="1">  1        1 0.90245300E-01 0.67535680E+03</pdfrwt>
<pdfrwt beam="2">  1       -1 0.81044737E-01 0.67535680E+03</pdfrwt>
<totfact> 0.55194415E+01</totfact>
</mgrwt>
</event>
<event>
 4    1  0.2514307E-008  0.7563794E+03  0.7818608E-02  0.9814572E-01
         -1   -1    0    0    0  501 -0.00000000000E+00  0.00000000000E+00  0.45227263621E+03  0.45227263624E+03  0.50400000000E-02 0.  1.
          1   -1    0    0  501    0  0.00000000000E+00 -0.00000000000E+00 -0.14243664610E+04  0.14243664610E+04  0.50400000000E-02 0. -1.
    8880023    1    1    2    0    0 -0.19489702824E+01 -0.37188149315E+03  0.70043444514E+02  0.75961564874E+03  0.65864270000E+03 0.  1.
    8880022    1    1    2    0    0  0.19489702824E+01  0.37188149315E+03 -0.10421372693E+04  0.11170234485E+04  0.15294330000E+03 0. -1.
<mgrwt>
<rscale>  0 0.64586331E+03</rscale>
<asrwt>0</asrwt>
<pdfrwt beam="1">  1        1 0.21913330E+00 0.75637944E+03</pdfrwt>
<pdfrwt beam="2">  1       -1 0.69580406E-01 0.75637944E+03</pdfrwt>
<totfact> 0.15954646E+01</totfact>
</mgrwt>
</event>
<event>
 4    1  0.2514307E-008  0.7353608E+03  0.7818608E-02  0.9873673E-01
          1   -1    0    0  501    0  0.00000000000E+00  0.00000000000E+00  0.92781671736E+03  0.92781671738E+03  0.50400000000E-02 0. -1.
         -1   -1    0    0    0  501 -0.00000000000E+00 -0.00000000000E+00 -0.63355879505E+03  0.63355879507E+03  0.50400000000E-02 0.  1.
    8880023    1    1    2    0    0  0.31593657779E+03  0.84435609018E+02 -0.35647196749E+03  0.81720729507E+03  0.65864270000E+03 0.  1.
    8880022    1    1    2    0    0 -0.31593657779E+03 -0.84435609018E+02  0.65072988980E+03  0.74416821737E+03  0.15294330000E+03 0.  0.
<mgrwt>
<rscale>  0 0.61554357E+03</rscale>
<asrwt>0</asrwt>
<pdfrwt beam="1">  1        1 0.14274103E+00 0.73536080E+03</pdfrwt>
<pdfrwt beam="2">  1       -1 0.97470585E-01 0.73536080E+03</pdfrwt>
<totfact> 0.17989513E+01</totfact>
</mgrwt>
</event>
<event>
 4    1  0.2514307E-008  0.7111766E+03  0.7818608E-02  0.9953657E-01
          1   -1    0    0  501    0  0.00000000000E+00  0.00000000000E+00  0.15420939901E+04  0.15420939901E+04  0.50400000000E-02 0. -1.
         -1   -1    0    0    0  501 -0.00000000000E+00 -0.00000000000E+00 -0.33194307758E+03  0.33194307762E+03  0.50400000000E-02 0.  1.
    8880023    1    1    2    0    0 -0.10966832342E+03 -0.24481588975E+03  0.95688010112E+02  0.71758509083E+03  0.65864270000E+03 0.  1.
    8880022    1    1    2    0    0  0.10966832342E+03  0.24481588975E+03  0.11144629024E+04  0.11564519769E+04  0.15294330000E+03 0.  0.
<mgrwt>
<rscale>  0 0.57729825E+03</rscale>
<asrwt>0</asrwt>
<pdfrwt beam="1">  1        1 0.23724523E+00 0.71117661E+03</pdfrwt>
<pdfrwt beam="2">  1       -1 0.51068166E-01 0.71117661E+03</pdfrwt>
<totfact> 0.24502308E+01</totfact>
</mgrwt>
</event>
<event>
 4    1  0.2514307E-008  0.6870798E+03  0.7818608E-02  0.1005573E+00
         -1   -1    0    0    0  501 -0.00000000000E+00  0.00000000000E+00  0.96553774307E+03  0.96553774309E+03  0.50400000000E-02 0.  1.
          1   -1    0    0  501    0  0.00000000000E+00 -0.00000000000E+00 -0.20818827704E+04  0.20818827704E+04  0.50400000000E-02 0. -1.
    8880023    1    1    2    0    0 -0.13076115197E+03 -0.14549889056E+03  0.83443093907E+03  0.10809040681E+04  0.65864270000E+03 0.  1.
    8880022    1    1    2    0    0  0.13076115197E+03  0.14549889056E+03 -0.19507759664E+04  0.19665164455E+04  0.15294330000E+03 0.  0.
<mgrwt>
<rscale>  0 0.53272842E+03</rscale>
<asrwt>0</asrwt>
<pdfrwt beam="1">  1        1 0.32028966E+00 0.68707977E+03</pdfrwt>
<pdfrwt beam="2">  1       -1 0.14854427E+00 0.68707977E+03</pdfrwt>
<totfact> 0.10097169E+00</totfact>
</mgrwt>
</event>
<event>
 4    1  0.2514307E-008  0.1232715E+04  0.7818608E-02  0.9125959E-01
          1   -1    0    0  501    0  0.00000000000E+00  0.00000000000E+00  0.10979694363E+04  0.10979694363E+04  0.50400000000E-02 0. -1.
         -1   -1    0    0    0  501 -0.00000000000E+00 -0.00000000000E+00 -0.13145219430E+04  0.13145219431E+04  0.50400000000E-02 0.  1.
    8880023    1    1    2    0    0 -0.14673093794E+03 -0.10316229449E+04  0.25460538985E+03  0.12587334823E+04  0.65864270000E+03 0.  0.
    8880022    1    1    2    0    0  0.14673093794E+03  0.10316229449E+04 -0.47115789660E+03  0.11537578971E+04  0.15294330000E+03 0.  0.
<mgrwt>
<rscale>  0 0.11851454E+04</rscale>
<asrwt>0</asrwt>
<pdfrwt beam="1">  1        1 0.16891837E+00 0.12327149E+04</pdfrwt>
<pdfrwt beam="2">  1       -1 0.20223415E+00 0.12327149E+04</pdfrwt>
<totfact> 0.18058034E+00</totfact>
</mgrwt>
</event>
<event>
 4    1  0.2514307E-008  0.9587809E+03  0.7818608E-02  0.9437591E-01
          1   -1    0    0  501    0  0.00000000000E+00  0.00000000000E+00  0.20005883565E+04  0.20005883566E+04  0.50400000000E-02 0. -1.
         -1   -1    0    0    0  501 -0.00000000000E+00 -0.00000000000E+00 -0.40993246359E+03  0.40993246362E+03  0.50400000000E-02 0.  1.
    8880023    1    1    2    0    0  0.64947518986E+03 -0.25225510829E+03  0.43592909380E+03  0.10532307644E+04  0.65864270000E+03 0.  0.
    8880022    1    1    2    0    0 -0.64947518986E+03  0.25225510829E+03  0.11547267992E+04  0.13572900558E+04  0.15294330000E+03 0.  0.
<mgrwt>
<rscale>  0 0.89045595E+03</rscale>
<asrwt>0</asrwt>
<pdfrwt beam="1">  1        1 0.30778282E+00 0.95878093E+03</pdfrwt>
<pdfrwt beam="2">  1       -1 0.63066533E-01 0.95878093E+03</pdfrwt>
<totfact> 0.77176621E+00</totfact>
</mgrwt>
</event>
<event>
 4    1  0.2514307E-008  0.1187909E+04  0.7818608E-02  0.9168966E-01
          1   -1    0    0  501    0  0.00000000000E+00  0.00000000000E+00  0.10109078840E+04  0.10109078840E+04  0.50400000000E-02 0. -1.
         -1   -1    0    0    0  501 -0.00000000000E+00 -0.00000000000E+00 -0.29087211835E+04  0.29087211835E+04  0.50400000000E-02 0.  1.
    8880023    1    1    2    0    0 -0.82589575261E+03 -0.54333668936E+03 -0.24887872995E+04  0.27577510730E+04  0.65864270000E+03 0.  0.
    8880022    1    1    2    0    0  0.82589575261E+03  0.54333668936E+03  0.59097400002E+03  0.11618779944E+04  0.15294330000E+03 0.  0.
<mgrwt>
<rscale>  0 0.11379575E+04</rscale>
<asrwt>0</asrwt>
<pdfrwt beam="1">  1        1 0.15552429E+00 0.11879094E+04</pdfrwt>
<pdfrwt beam="2">  1       -1 0.44749556E+00 0.11879094E+04</pdfrwt>
<totfact> 0.49641911E-02</totfact>
</mgrwt>
</event>
<event>
 4    1  0.2514307E-008  0.7009222E+03  0.7818608E-02  0.9993397E-01
         -1   -1    0    0    0  501 -0.00000000000E+00  0.00000000000E+00  0.15906720731E+04  0.15906720731E+04  0.50400000000E-02 0.  1.
          1   -1    0    0  501    0  0.00000000000E+00 -0.00000000000E+00 -0.19640048612E+03  0.19640048618E+03  0.50400000000E-02 0. -1.
    8880023    1    1    2    0    0 -0.23642521271E+03 -0.39810520173E+02  0.13177620059E+04  0.14925778603E+04  0.65864270000E+03 0.  1.
    8880022    1    1    2    0    0  0.23642521271E+03  0.39810520173E+02  0.76509581140E+02  0.29449469901E+03  0.15294330000E+03 0.  0.
<mgrwt>
<rscale>  0 0.55940725E+03</rscale>
<asrwt>0</asrwt>
<pdfrwt beam="1">  1        1 0.30215459E-01 0.70092222E+03</pdfrwt>
<pdfrwt beam="2">  1       -1 0.24471878E+00 0.70092222E+03</pdfrwt>
<totfact> 0.11950058E+01</totfact>
</mgrwt>
</event>
<event>
 4    1  0.2514307E-008  0.1334488E+04  0.7818608E-02  0.9036335E-01
         -1   -1    0    0    0  501 -0.00000000000E+00  0.00000000000E+00  0.50333581911E+03  0.50333581914E+03  0.50400000000E-02 0.  1.
          1   -1    0    0  501    0  0.00000000000E+00 -0.00000000000E+00 -0.38573444737E+04  0.38573444737E+04  0.50400000000E-02 0. -1.
    8880023    1    1    2    0    0  0.85295233835E+03 -0.78709591287E+03 -0.81212744897E+03  0.15621808049E+04  0.65864270000E+03 0.  0.
    8880022    1    1    2    0    0 -0.85295233835E+03  0.78709591287E+03 -0.25418812056E+04  0.27984994879E+04  0.15294330000E+03 0.  0.
<mgrwt>
<rscale>  0 0.12914971E+04</rscale>
<asrwt>0</asrwt>
<pdfrwt beam="1">  1        1 0.59343759E+00 0.13344879E+04</pdfrwt>
<pdfrwt beam="2">  1       -1 0.77436282E-01 0.13344879E+04</pdfrwt>
<totfact> 0.21168832E-01</totfact>
</mgrwt>
</event>
<event>
 4    1  0.2514307E-008  0.1128995E+04  0.7818608E-02  0.9229440E-01
          1   -1    0    0  501    0  0.00000000000E+00  0.00000000000E+00  0.97464944524E+03  0.97464944525E+03  0.50400000000E-02 0. -1.
         -1   -1    0    0    0  501 -0.00000000000E+00 -0.00000000000E+00 -0.12241632499E+04  0.12241632499E+04  0.50400000000E-02 0.  1.
    8880023    1    1    2    0    0 -0.81266087245E+03 -0.42473828155E+03 -0.50190233810E+03  0.12355308433E+04  0.65864270000E+03 0.  0.
    8880022    1    1    2    0    0  0.81266087245E+03  0.42473828155E+03  0.25238853341E+03  0.96328185192E+03  0.15294330000E+03 0.  0.
<mgrwt>
<rscale>  0 0.10754659E+04</rscale>
<asrwt>0</asrwt>
<pdfrwt beam="1">  1        1 0.14994607E+00 0.11289954E+04</pdfrwt>
<pdfrwt beam="2">  1       -1 0.18833281E+00 0.11289954E+04</pdfrwt>
<totfact> 0.28435547E+00</totfact>
</mgrwt>
</event>
<event>
 4    1  0.2514307E-008  0.9253605E+03  0.7818608E-02  0.9486488E-01
         -1   -1    0    0    0  501 -0.00000000000E+00  0.00000000000E+00  0.12608608797E+04  0.12608608797E+04  0.50400000000E-02 0.  1.
          1   -1    0    0  501    0  0.00000000000E+00 -0.00000000000E+00 -0.10791263718E+04  0.10791263718E+04  0.50400000000E-02 0. -1.
    8880023    1    1    2    0    0 -0.64004520195E+03 -0.11324310878E+03  0.94721090572E+03  0.13241980850E+04  0.65864270000E+03 0.  0.
    8880022    1    1    2    0    0  0.64004520195E+03  0.11324310878E+03 -0.76547639780E+03  0.10157891665E+04  0.15294330000E+03 0.  0.
<mgrwt>
<rscale>  0 0.85287362E+03</rscale>
<asrwt>0</asrwt>
<pdfrwt beam="1">  1        1 0.16601944E+00 0.92536051E+03</pdfrwt>
<pdfrwt beam="2">  1       -1 0.19397860E+00 0.92536051E+03</pdfrwt>
<totfact> 0.22105300E+00</totfact>
</mgrwt>
</event>
<event>
 4    1  0.2514307E-008  0.7726364E+03  0.7818608E-02  0.9773427E-01
         -1   -1    0    0    0  501 -0.00000000000E+00  0.00000000000E+00  0.35826595422E+03  0.35826595426E+03  0.50400000000E-02 0.  1.
          1   -1    0    0  501    0  0.00000000000E+00 -0.00000000000E+00 -0.38298740722E+04  0.38298740722E+04  0.50400000000E-02 0. -1.
    8880023    1    1    2    0    0 -0.34457003153E+03 -0.21078025890E+03 -0.88631711952E+02  0.77770342085E+03  0.65864270000E+03 0.  0.
    8880022    1    1    2    0    0  0.34457003153E+03  0.21078025890E+03 -0.33829764061E+04  0.34104366056E+04  0.15294330000E+03 0.  0.
<mgrwt>
<rscale>  0 0.66808288E+03</rscale>
<asrwt>0</asrwt>
<pdfrwt beam="1">  1        1 0.58921137E+00 0.77263642E+03</pdfrwt>
<pdfrwt beam="2">  1       -1 0.55117842E-01 0.77263642E+03</pdfrwt>
<totfact> 0.49218431E-01</totfact>
</mgrwt>
</event>
<event>
 4    1  0.2514307E-008  0.8460352E+03  0.7818608E-02  0.9618904E-01
         -1   -1    0    0    0  501 -0.00000000000E+00  0.00000000000E+00  0.24486296428E+04  0.24486296428E+04  0.50400000000E-02 0.  1.
          1   -1    0    0  501    0  0.00000000000E+00 -0.00000000000E+00 -0.35953961816E+03  0.35953961820E+03  0.50400000000E-02 0. -1.
    8880023    1    1    2    0    0  0.50225001998E+03  0.17236660452E+03  0.20908954453E+04  0.22555751591E+04  0.65864270000E+03 0.  0.
    8880022    1    1    2    0    0 -0.50225001998E+03 -0.17236660452E+03 -0.18054206443E+01  0.55259410192E+03  0.15294330000E+03 0.  0.
<mgrwt>
<rscale>  0 0.76057545E+03</rscale>
<asrwt>0</asrwt>
<pdfrwt beam="1">  1        1 0.55313784E-01 0.84603519E+03</pdfrwt>
<pdfrwt beam="2">  1       -1 0.37671228E+00 0.84603519E+03</pdfrwt>
<totfact> 0.74630788E-01</totfact>
</mgrwt>
</event>
<event>
 4    1  0.2514307E-008  0.1123761E+04  0.7818608E-02  0.9235051E-01
         -1   -1    0    0    0  501 -0.00000000000E+00  0.00000000000E+00  0.10338398004E+04  0.10338398004E+04  0.50400000000E-02 0.  1.
          1   -1    0    0  501    0  0.00000000000E+00 -0.00000000000E+00 -0.16759567142E+04  0.16759567142E+04  0.50400000000E-02 0. -1.
    8880023    1    1    2    0    0  0.91047571878E+03  0.79035881558E+01  0.50942187563E+03  0.12338352219E+04  0.65864270000E+03 0.  0.
    8880022    1    1    2    0    0 -0.91047571878E+03 -0.79035881558E+01 -0.11515387894E+04  0.14759612927E+04  0.15294330000E+03 0.  0.
<mgrwt>
<rscale>  0 0.10698852E+04</rscale>
<asrwt>0</asrwt>
<pdfrwt beam="1">  1        1 0.25783949E+00 0.11237610E+04</pdfrwt>
<pdfrwt beam="2">  1       -1 0.15905228E+00 0.11237610E+04</pdfrwt>
<totfact> 0.14565686E+00</totfact>
</mgrwt>
</event>
<event>
 4    1  0.2514307E-008  0.2511973E+04  0.7818608E-02  0.8406219E-01
          1   -1    0    0  501    0  0.00000000000E+00  0.00000000000E+00  0.34806366479E+04  0.34806366479E+04  0.50400000000E-02 0. -1.
         -1   -1    0    0    0  501 -0.00000000000E+00 -0.00000000000E+00 -0.20285971825E+04  0.20285971825E+04  0.50400000000E-02 0.  1.
    8880023    1    1    2    0    0 -0.24194672862E+04 -0.14958555838E+03 -0.27781735053E+03  0.25272891554E+04  0.65864270000E+03 0.  0.
    8880022    1    1    2    0    0  0.24194672862E+04  0.14958555838E+03  0.17298568159E+04  0.29819446750E+04  0.15294330000E+03 0.  0.
<mgrwt>
<rscale>  0 0.24909439E+04</rscale>
<asrwt>0</asrwt>
<pdfrwt beam="1">  1        1 0.53548255E+00 0.25119729E+04</pdfrwt>
<pdfrwt beam="2">  1       -1 0.31209188E+00 0.25119729E+04</pdfrwt>
<totfact> 0.59719340E-03</totfact>
</mgrwt>
</event>
<event>
 4    1  0.2514307E-008  0.8343423E+03  0.7818608E-02  0.9640942E-01
          1   -1    0    0  501    0  0.00000000000E+00  0.00000000000E+00  0.99626652472E+03  0.99626652474E+03  0.50400000000E-02 0. -1.
         -1   -1    0    0    0  501 -0.00000000000E+00 -0.00000000000E+00 -0.86437711073E+03  0.86437711075E+03  0.50400000000E-02 0.  1.
    8880023    1    1    2    0    0 -0.14587032362E+03 -0.49095693349E+03 -0.54618899874E+03  0.99722088348E+03  0.65864270000E+03 0.  0.
    8880022    1    1    2    0    0  0.14587032362E+03  0.49095693349E+03  0.67807841273E+03  0.86342275200E+03  0.15294330000E+03 0.  0.
<mgrwt>
<rscale>  0 0.74644634E+03</rscale>
<asrwt>0</asrwt>
<pdfrwt beam="1">  1        1 0.15327177E+00 0.83434230E+03</pdfrwt>
<pdfrwt beam="2">  1       -1 0.13298109E+00 0.83434230E+03</pdfrwt>
<totfact> 0.74548825E+00</totfact>
</mgrwt>
</event>
<event>
 4    1  0.2514307E-008  0.7339450E+03  0.7818608E-02  0.9877949E-01
          1   -1    0    0  501    0  0.00000000000E+00  0.00000000000E+00  0.24609786462E+04  0.24609786462E+04  0.50400000000E-02 0. -1.
         -1   -1    0    0    0  501 -0.00000000000E+00 -0.00000000000E+00 -0.86446274269E+03  0.86446274271E+03  0.50400000000E-02 0.  1.
    8880023    1    1    2    0    0  0.31398695717E+03  0.79229376589E+02 -0.69220406890E+03  0.10088715392E+04  0.65864270000E+03 0.  1.
    8880022    1    1    2    0    0 -0.31398695717E+03 -0.79229376589E+02  0.22887199724E+04  0.23165698496E+04  0.15294330000E+03 0.  0.
<mgrwt>
<rscale>  0 0.61341965E+03</rscale>
<asrwt>0</asrwt>
<pdfrwt beam="1">  1        1 0.37861209E+00 0.73394503E+03</pdfrwt>
<pdfrwt beam="2">  1       -1 0.13299427E+00 0.73394503E+03</pdfrwt>
<totfact> 0.74009469E-01</totfact>
</mgrwt>
</event>
<event>
 4    1  0.2514307E-008  0.1430316E+04  0.7818608E-02  0.8960478E-01
         -1   -1    0    0    0  501 -0.00000000000E+00  0.00000000000E+00  0.12506639791E+04  0.12506639792E+04  0.50400000000E-02 0.  1.
          1   -1    0    0  501    0  0.00000000000E+00 -0.00000000000E+00 -0.18419762260E+04  0.18419762260E+04  0.50400000000E-02 0. -1.
    8880023    1    1    2    0    0 -0.11320437051E+04  0.57486478232E+03  0.38789314945E+03  0.14819796793E+04  0.65864270000E+03 0.  0.
    8880022    1    1    2    0    0  0.11320437051E+04 -0.57486478232E+03 -0.97920539629E+03  0.16106605258E+04  0.15294330000E+03 0.  0.
<mgrwt>
<rscale>  0 0.13908374E+04</rscale>
<asrwt>0</asrwt>
<pdfrwt beam="1">  1        1 0.28338096E+00 0.14303156E+04</pdfrwt>
<pdfrwt beam="2">  1       -1 0.19240984E+00 0.14303156E+04</pdfrwt>
<totfact> 0.61832243E-01</totfact>
</mgrwt>
</event>
<event>
 4    1  0.2514307E-008  0.1078264E+04  0.7818608E-02  0.9285652E-01
         -1   -1    0    0    0  501 -0.00000000000E+00  0.00000000000E+00  0.17676862041E+04  0.17676862041E+04  0.50400000000E-02 0.  1.
          1   -1    0    0  501    0  0.00000000000E+00 -0.00000000000E+00 -0.68996089423E+03  0.68996089425E+03  0.50400000000E-02 0. -1.
    8880023    1    1    2    0    0  0.54223625935E+03 -0.65941025211E+03  0.11632478916E+04  0.15861266989E+04  0.65864270000E+03 0.  0.
    8880022    1    1    2    0    0 -0.54223625935E+03  0.65941025211E+03 -0.85522581739E+02  0.87152039939E+03  0.15294330000E+03 0.  0.
<mgrwt>
<rscale>  0 0.10211459E+04</rscale>
<asrwt>0</asrwt>
<pdfrwt beam="1">  1        1 0.10614783E+00 0.10782635E+04</pdfrwt>
<pdfrwt beam="2">  1       -1 0.27195172E+00 0.10782635E+04</pdfrwt>
<totfact> 0.13980531E+00</totfact>
</mgrwt>
</event>
<event>
 4    1  0.2514307E-008  0.8240974E+03  0.7818608E-02  0.9660928E-01
          1   -1    0    0  501    0  0.00000000000E+00  0.00000000000E+00  0.36164352385E+04  0.36164352385E+04  0.50400000000E-02 0. -1.
         -1   -1    0    0    0  501 -0.00000000000E+00 -0.00000000000E+00 -0.68316798333E+03  0.68316798335E+03  0.50400000000E-02 0.  1.
    8880023    1    1    2    0    0 -0.31395796680E+03 -0.38308845817E+03 -0.40716007547E+03  0.91919307277E+03  0.65864270000E+03 0.  1.
    8880022    1    1    2    0    0  0.31395796680E+03  0.38308845817E+03  0.33404273307E+04  0.33804101491E+04  0.15294330000E+03 0.  0.
<mgrwt>
<rscale>  0 0.73391543E+03</rscale>
<asrwt>0</asrwt>
<pdfrwt beam="1">  1        1 0.55637466E+00 0.82409743E+03</pdfrwt>
<pdfrwt beam="2">  1       -1 0.10510276E+00 0.82409743E+03</pdfrwt>
<totfact> 0.18574761E-01</totfact>
</mgrwt>
</event>
<event>
 4    1  0.2514307E-008  0.6882273E+03  0.7818608E-02  0.1005007E+00
          1   -1    0    0  501    0  0.00000000000E+00  0.00000000000E+00  0.83211986180E+03  0.83211986181E+03  0.50400000000E-02 0. -1.
         -1   -1    0    0    0  501 -0.00000000000E+00 -0.00000000000E+00 -0.87901372981E+03  0.87901372982E+03  0.50400000000E-02 0.  1.
    8880023    1    1    2    0    0 -0.15172905022E+03 -0.12971075394E+03 -0.71792997042E+03  0.99452512942E+03  0.65864270000E+03 0.  1.
    8880022    1    1    2    0    0  0.15172905022E+03  0.12971075394E+03  0.67103610240E+03  0.71660846221E+03  0.15294330000E+03 0.  0.
<mgrwt>
<rscale>  0 0.53508328E+03</rscale>
<asrwt>0</asrwt>
<pdfrwt beam="1">  1        1 0.12801844E+00 0.68822728E+03</pdfrwt>
<pdfrwt beam="2">  1       -1 0.13523288E+00 0.68822728E+03</pdfrwt>
<totfact> 0.98964289E+00</totfact>
</mgrwt>
</event>
<event>
 4    1  0.2514307E-008  0.8700369E+03  0.7818608E-02  0.9575953E-01
          1   -1    0    0  501    0  0.00000000000E+00  0.00000000000E+00  0.62437300053E+03  0.62437300055E+03  0.50400000000E-02 0. -1.
         -1   -1    0    0    0  501 -0.00000000000E+00 -0.00000000000E+00 -0.19713736884E+04  0.19713736884E+04  0.50400000000E-02 0.  1.
    8880023    1    1    2    0    0  0.11351431945E+03 -0.55701744890E+03 -0.16997417904E+04  0.19094727805E+04  0.65864270000E+03 0.  1.
    8880022    1    1    2    0    0 -0.11351431945E+03  0.55701744890E+03  0.35274110249E+03  0.68627390851E+03  0.15294330000E+03 0.  0.
<mgrwt>
<rscale>  0 0.78908409E+03</rscale>
<asrwt>0</asrwt>
<pdfrwt beam="1">  1        1 0.96057386E-01 0.87003686E+03</pdfrwt>
<pdfrwt beam="2">  1       -1 0.30328826E+00 0.87003686E+03</pdfrwt>
<totfact> 0.10510305E+00</totfact>
</mgrwt>
</event>
<event>
 4    1  0.2514307E-008  0.8062641E+03  0.7818608E-02  0.9697412E-01
          1   -1    0    0  501    0  0.00000000000E+00  0.00000000000E+00  0.44975241158E+03  0.44975241161E+03  0.50400000000E-02 0. -1.
         -1   -1    0    0    0  501 -0.00000000000E+00 -0.00000000000E+00 -0.24897276117E+04  0.24897276117E+04  0.50400000000E-02 0.  1.
    8880023    1    1    2    0    0 -0.96684875672E+02 -0.45486665027E+03 -0.22624084391E+04  0.24017813777E+04  0.65864270000E+03 0.  1.
    8880022    1    1    2    0    0  0.96684875672E+02  0.45486665027E+03  0.22243323896E+03  0.53769864564E+03  0.15294330000E+03 0.  0.
<mgrwt>
<rscale>  0 0.71171097E+03</rscale>
<asrwt>0</asrwt>
<pdfrwt beam="1">  1        1 0.69192680E-01 0.80626413E+03</pdfrwt>
<pdfrwt beam="2">  1       -1 0.38303501E+00 0.80626413E+03</pdfrwt>
<totfact> 0.50606688E-01</totfact>
</mgrwt>
</event>
<event>
 4    1  0.2514307E-008  0.6691775E+03  0.7818608E-02  0.1016259E+00
          1   -1    0    0  501    0  0.00000000000E+00  0.00000000000E+00  0.44846631769E+03  0.44846631772E+03  0.50400000000E-02 0. -1.
         -1   -1    0    0    0  501 -0.00000000000E+00 -0.00000000000E+00 -0.58237607271E+03  0.58237607274E+03  0.50400000000E-02 0.  1.
    8880023    1    1    2    0    0  0.11310688658E+03  0.34570661400E+02 -0.33801678796E+03  0.74970251009E+03  0.65864270000E+03 0.  1.
    8880022    1    1    2    0    0 -0.11310688658E+03 -0.34570661400E+02  0.20410703294E+03  0.28113988037E+03  0.15294330000E+03 0.  0.
<mgrwt>
<rscale>  0 0.49060936E+03</rscale>
<asrwt>0</asrwt>
<pdfrwt beam="1">  1        1 0.68994817E-01 0.66917748E+03</pdfrwt>
<pdfrwt beam="2">  1       -1 0.89596320E-01 0.66917748E+03</pdfrwt>
<totfact> 0.64424174E+01</totfact>
</mgrwt>
</event>
<event>
 4    1  0.2514307E-008  0.1220895E+04  0.7818608E-02  0.9137074E-01
         -1   -1    0    0    0  501 -0.00000000000E+00  0.00000000000E+00  0.20174018260E+04  0.20174018260E+04  0.50400000000E-02 0.  1.
          1   -1    0    0  501    0  0.00000000000E+00 -0.00000000000E+00 -0.10064675105E+04  0.10064675105E+04  0.50400000000E-02 0. -1.
    8880023    1    1    2    0    0 -0.99848960091E+03 -0.24452410376E+03  0.14500676538E+04  0.18955948742E+04  0.65864270000E+03 0.  0.
    8880022    1    1    2    0    0  0.99848960091E+03  0.24452410376E+03 -0.43913333829E+03  0.11282744623E+04  0.15294330000E+03 0.  0.
<mgrwt>
<rscale>  0 0.11727216E+04</rscale>
<asrwt>0</asrwt>
<pdfrwt beam="1">  1        1 0.15484115E+00 0.12208946E+04</pdfrwt>
<pdfrwt beam="2">  1       -1 0.31036951E+00 0.12208946E+04</pdfrwt>
<totfact> 0.41588268E-01</totfact>
</mgrwt>
</event>
<event>
 4    1  0.2514307E-008  0.7880840E+03  0.7818608E-02  0.9737179E-01
         -1   -1    0    0    0  501 -0.00000000000E+00  0.00000000000E+00  0.34327605518E+03  0.34327605522E+03  0.50400000000E-02 0.  1.
          1   -1    0    0  501    0  0.00000000000E+00 -0.00000000000E+00 -0.22493550958E+04  0.22493550958E+04  0.50400000000E-02 0. -1.
    8880023    1    1    2    0    0  0.33300484257E+03 -0.27635850466E+03 -0.18243407875E+03  0.80892437695E+03  0.65864270000E+03 0.  1.
    8880022    1    1    2    0    0 -0.33300484257E+03  0.27635850466E+03 -0.17236449618E+04  0.17837067740E+04  0.15294330000E+03 0.  0.
<mgrwt>
<rscale>  0 0.68845668E+03</rscale>
<asrwt>0</asrwt>
<pdfrwt beam="1">  1        1 0.34605462E+00 0.78808404E+03</pdfrwt>
<pdfrwt beam="2">  1       -1 0.52811702E-01 0.78808404E+03</pdfrwt>
<totfact> 0.76141735E+00</totfact>
</mgrwt>
</event>
<event>
 4    1  0.2514307E-008  0.7913901E+03  0.7818608E-02  0.9729731E-01
          1   -1    0    0  501    0  0.00000000000E+00  0.00000000000E+00  0.14131548916E+04  0.14131548916E+04  0.50400000000E-02 0. -1.
         -1   -1    0    0    0  501 -0.00000000000E+00 -0.00000000000E+00 -0.36010770655E+03  0.36010770659E+03  0.50400000000E-02 0.  1.
    8880023    1    1    2    0    0 -0.43869544126E+03 -0.58686503925E+01  0.22331026805E+03  0.82229302157E+03  0.65864270000E+03 0.  1.
    8880022    1    1    2    0    0  0.43869544126E+03  0.58686503925E+01  0.82973691700E+03  0.95096957664E+03  0.15294330000E+03 0.  0.
<mgrwt>
<rscale>  0 0.69273873E+03</rscale>
<asrwt>0</asrwt>
<pdfrwt beam="1">  1        1 0.21740844E+00 0.79139013E+03</pdfrwt>
<pdfrwt beam="2">  1       -1 0.55401186E-01 0.79139013E+03</pdfrwt>
<totfact> 0.25442633E+01</totfact>
</mgrwt>
</event>
<event>
 4    1  0.2514307E-008  0.8112601E+03  0.7818608E-02  0.9686958E-01
         -1   -1    0    0    0  501 -0.00000000000E+00  0.00000000000E+00  0.62964896960E+03  0.62964896962E+03  0.50400000000E-02 0.  1.
          1   -1    0    0  501    0  0.00000000000E+00 -0.00000000000E+00 -0.93360402633E+03  0.93360402634E+03  0.50400000000E-02 0. -1.
    8880023    1    1    2    0    0  0.33881407840E+03  0.33096494826E+03  0.22002119408E+03  0.84056665935E+03  0.65864270000E+03 0.  0.
    8880022    1    1    2    0    0 -0.33881407840E+03 -0.33096494826E+03 -0.52397625081E+03  0.72268633662E+03  0.15294330000E+03 0.  1.
<mgrwt>
<rscale>  0 0.71798637E+03</rscale>
<asrwt>0</asrwt>
<pdfrwt beam="1">  1        1 0.14363139E+00 0.81126012E+03</pdfrwt>
<pdfrwt beam="2">  1       -1 0.96869072E-01 0.81126012E+03</pdfrwt>
<totfact> 0.17888327E+01</totfact>
</mgrwt>
</event>
<event>
 4    1  0.2514307E-008  0.1230644E+04  0.7818608E-02  0.9127895E-01
          1   -1    0    0  501    0  0.00000000000E+00  0.00000000000E+00  0.18392632952E+04  0.18392632952E+04  0.50400000000E-02 0. -1.
         -1   -1    0    0    0  501 -0.00000000000E+00 -0.00000000000E+00 -0.15848464691E+04  0.15848464691E+04  0.50400000000E-02 0.  1.
    8880023    1    1    2    0    0 -0.56638437027E+03  0.87171259842E+03 -0.11404067947E+04  0.16777997416E+04  0.65864270000E+03 0.  0.
    8880022    1    1    2    0    0  0.56638437027E+03 -0.87171259842E+03  0.13948236208E+04  0.17463100227E+04  0.15294330000E+03 0.  0.
<mgrwt>
<rscale>  0 0.11829698E+04</rscale>
<asrwt>0</asrwt>
<pdfrwt beam="1">  1        1 0.28296358E+00 0.12306439E+04</pdfrwt>
<pdfrwt beam="2">  1       -1 0.24382253E+00 0.12306439E+04</pdfrwt>
<totfact> 0.28652806E-01</totfact>
</mgrwt>
</event>
<event>
 4    1  0.2514307E-008  0.1193311E+04  0.7818608E-02  0.9163652E-01
          1   -1    0    0  501    0  0.00000000000E+00  0.00000000000E+00  0.22081473167E+04  0.22081473167E+04  0.50400000000E-02 0. -1.
         -1   -1    0    0    0  501 -0.00000000000E+00 -0.00000000000E+00 -0.11381479153E+04  0.11381479153E+04  0.50400000000E-02 0.  1.
    8880023    1    1    2    0    0 -0.55092382096E+03 -0.82865131983E+03 -0.64586464060E+03  0.13568829745E+04  0.65864270000E+03 0.  1.
    8880022    1    1    2    0    0  0.55092382096E+03  0.82865131983E+03  0.17158640421E+04  0.19894122575E+04  0.15294330000E+03 0.  0.
<mgrwt>
<rscale>  0 0.11436600E+04</rscale>
<asrwt>0</asrwt>
<pdfrwt beam="1">  1        1 0.33971497E+00 0.11933106E+04</pdfrwt>
<pdfrwt beam="2">  1       -1 0.17509968E+00 0.11933106E+04</pdfrwt>
<totfact> 0.47807890E-01</totfact>
</mgrwt>
</event>
<event>
 4    1  0.2514307E-008  0.7348011E+03  0.7818608E-02  0.9875358E-01
          1   -1    0    0  501    0  0.00000000000E+00  0.00000000000E+00  0.17316403077E+04  0.17316403077E+04  0.50400000000E-02 0. -1.
         -1   -1    0    0    0  501 -0.00000000000E+00 -0.00000000000E+00 -0.25173821434E+03  0.25173821439E+03  0.50400000000E-02 0.  1.
    8880023    1    1    2    0    0  0.39116600780E+02 -0.32340728320E+03  0.38233981603E+03  0.82832138719E+03  0.65864270000E+03 0.  1.
    8880022    1    1    2    0    0 -0.39116600780E+02  0.32340728320E+03  0.10975622774E+04  0.11550571350E+04  0.15294330000E+03 0.  0.
<mgrwt>
<rscale>  0 0.61470526E+03</rscale>
<asrwt>0</asrwt>
<pdfrwt beam="1">  1        1 0.26640620E+00 0.73480105E+03</pdfrwt>
<pdfrwt beam="2">  1       -1 0.38728957E-01 0.73480105E+03</pdfrwt>
<totfact> 0.30364790E+01</totfact>
</mgrwt>
</event>
<event>
 4    1  0.2514307E-008  0.8182800E+03  0.7818608E-02  0.9672581E-01
          1   -1    0    0  501    0  0.00000000000E+00  0.00000000000E+00  0.11559103182E+04  0.11559103182E+04  0.50400000000E-02 0. -1.
         -1   -1    0    0    0  501 -0.00000000000E+00 -0.00000000000E+00 -0.53050844054E+03  0.53050844056E+03  0.50400000000E-02 0.  1.
    8880023    1    1    2    0    0 -0.17358160623E+03 -0.45347698919E+03 -0.73711473101E+02  0.82159329432E+03  0.65864270000E+03 0.  0.
    8880022    1    1    2    0    0  0.17358160623E+03  0.45347698919E+03  0.69911335077E+03  0.86482546446E+03  0.15294330000E+03 0.  0.
<mgrwt>
<rscale>  0 0.72673019E+03</rscale>
<asrwt>0</asrwt>
<pdfrwt beam="1">  1        1 0.17783236E+00 0.81828000E+03</pdfrwt>
<pdfrwt beam="2">  1       -1 0.81616684E-01 0.81828000E+03</pdfrwt>
<totfact> 0.17601929E+01</totfact>
</mgrwt>
</event>
<event>
 4    1  0.2514307E-008  0.1014545E+04  0.7818608E-02  0.9362771E-01
         -1   -1    0    0    0  501 -0.00000000000E+00  0.00000000000E+00  0.88247797252E+03  0.88247797254E+03  0.50400000000E-02 0.  1.
          1   -1    0    0  501    0  0.00000000000E+00 -0.00000000000E+00 -0.21797156330E+04  0.21797156330E+04  0.50400000000E-02 0. -1.
    8880023    1    1    2    0    0 -0.52701365747E+03  0.56369062840E+03  0.47721234880E+03  0.11211745412E+04  0.65864270000E+03 0.  0.
    8880022    1    1    2    0    0  0.52701365747E+03 -0.56369062840E+03 -0.17744500093E+04  0.19410190644E+04  0.15294330000E+03 0.  0.
<mgrwt>
<rscale>  0 0.95203815E+03</rscale>
<asrwt>0</asrwt>
<pdfrwt beam="1">  1        1 0.33534087E+00 0.10145446E+04</pdfrwt>
<pdfrwt beam="2">  1       -1 0.13576584E+00 0.10145446E+04</pdfrwt>
<totfact> 0.10323739E+00</totfact>
</mgrwt>
</event>
<event>
 4    1  0.2514307E-008  0.1095160E+04  0.7818608E-02  0.9266464E-01
         -1   -1    0    0    0  501 -0.00000000000E+00  0.00000000000E+00  0.16378919595E+04  0.16378919595E+04  0.50400000000E-02 0.  1.
          1   -1    0    0  501    0  0.00000000000E+00 -0.00000000000E+00 -0.10917342031E+04  0.10917342031E+04  0.50400000000E-02 0. -1.
    8880023    1    1    2    0    0 -0.62276462577E+03  0.61459742577E+03  0.12015575375E+04  0.16257664338E+04  0.65864270000E+03 0.  0.
    8880022    1    1    2    0    0  0.62276462577E+03 -0.61459742577E+03 -0.65539978115E+03  0.11038597289E+04  0.15294330000E+03 0.  0.
<mgrwt>
<rscale>  0 0.10392977E+04</rscale>
<asrwt>0</asrwt>
<pdfrwt beam="1">  1        1 0.16795911E+00 0.10951603E+04</pdfrwt>
<pdfrwt beam="2">  1       -1 0.25198338E+00 0.10951603E+04</pdfrwt>
<totfact> 0.86620431E-01</totfact>
</mgrwt>
</event>
<event>
 4    1  0.2514307E-008  0.9080299E+03  0.7818608E-02  0.9513262E-01
         -1   -1    0    0    0  501 -0.00000000000E+00  0.00000000000E+00  0.66289513123E+03  0.66289513125E+03  0.50400000000E-02 0.  1.
          1   -1    0    0  501    0  0.00000000000E+00 -0.00000000000E+00 -0.28560493171E+04  0.28560493171E+04  0.50400000000E-02 0. -1.
    8880023    1    1    2    0    0 -0.45024159281E+03 -0.43357886718E+03  0.29043107761E+03  0.95334597238E+03  0.65864270000E+03 0.  0.
    8880022    1    1    2    0    0  0.45024159281E+03  0.43357886718E+03 -0.24835852635E+04  0.25655984760E+04  0.15294330000E+03 0.  0.
<mgrwt>
<rscale>  0 0.83313090E+03</rscale>
<asrwt>0</asrwt>
<pdfrwt beam="1">  1        1 0.43939220E+00 0.90802992E+03</pdfrwt>
<pdfrwt beam="2">  1       -1 0.10198387E+00 0.90802992E+03</pdfrwt>
<totfact> 0.72130084E-01</totfact>
</mgrwt>
</event>
<event>
 4    1  0.2514307E-008  0.1298178E+04  0.7818608E-02  0.9067135E-01
         -1   -1    0    0    0  501 -0.00000000000E+00  0.00000000000E+00  0.10334142718E+04  0.10334142718E+04  0.50400000000E-02 0.  1.
          1   -1    0    0  501    0  0.00000000000E+00 -0.00000000000E+00 -0.20681022219E+04  0.20681022219E+04  0.50400000000E-02 0. -1.
    8880023    1    1    2    0    0 -0.62870434297E+03  0.92530399990E+03  0.32094531480E+03  0.13372631545E+04  0.65864270000E+03 0.  0.
    8880022    1    1    2    0    0  0.62870434297E+03 -0.92530399990E+03 -0.13556332649E+04  0.17642533392E+04  0.15294330000E+03 0.  0.
<mgrwt>
<rscale>  0 0.12536695E+04</rscale>
<asrwt>0</asrwt>
<pdfrwt beam="1">  1        1 0.31816957E+00 0.12981783E+04</pdfrwt>
<pdfrwt beam="2">  1       -1 0.15898681E+00 0.12981783E+04</pdfrwt>
<totfact> 0.77350788E-01</totfact>
</mgrwt>
</event>
<event>
 4    1  0.2514307E-008  0.7779413E+03  0.7818608E-02  0.9760695E-01
         -1   -1    0    0    0  501 -0.00000000000E+00  0.00000000000E+00  0.12064689978E+03  0.12064689989E+03  0.50400000000E-02 0.  1.
          1   -1    0    0  501    0  0.00000000000E+00 -0.00000000000E+00 -0.33541440221E+04  0.33541440221E+04  0.50400000000E-02 0. -1.
    8880023    1    1    2    0    0 -0.37521173121E+03  0.17492478660E+03 -0.15481445861E+04  0.17326120137E+04  0.65864270000E+03 0.  1.
    8880022    1    1    2    0    0  0.37521173121E+03 -0.17492478660E+03 -0.16853525363E+04  0.17421789084E+04  0.15294330000E+03 0. -1.
<mgrwt>
<rscale>  0 0.67515200E+03</rscale>
<asrwt>0</asrwt>
<pdfrwt beam="1">  1        1 0.51602209E+00 0.77794134E+03</pdfrwt>
<pdfrwt beam="2">  1       -1 0.18561064E-01 0.77794134E+03</pdfrwt>
<totfact> 0.80211823E+00</totfact>
</mgrwt>
</event>
<event>
 4    1  0.2683605E-008  0.7204955E+03  0.7818608E-02  0.9920913E-01
         -1   -1    0    0    0  501 -0.00000000000E+00  0.00000000000E+00  0.18623581384E+04  0.18623581384E+04  0.50400000000E-02 0.  1.
          1   -1    0    0  501    0  0.00000000000E+00 -0.00000000000E+00 -0.20721099383E+04  0.20721099383E+04  0.50400000000E-02 0. -1.
    8880023    1    1    2    0    0 -0.24505535049E+03 -0.15890706064E+03  0.17785875767E+04  0.19189808631E+04  0.65864270000E+03 0.  0.
    8880022    1    1    2    0    0  0.24505535049E+03  0.15890706064E+03 -0.19883393766E+04  0.20154872137E+04  0.15294330000E+03 0.  0.
<mgrwt>
<rscale>  0 0.59258380E+03</rscale>
<asrwt>0</asrwt>
<pdfrwt beam="1">  1        1 0.31878614E+00 0.72049551E+03</pdfrwt>
<pdfrwt beam="2">  1       -1 0.28651664E+00 0.72049551E+03</pdfrwt>
<totfact> 0.11744486E-01</totfact>
</mgrwt>
</event>
<event>
 4    1  0.2514307E-008  0.7498961E+03  0.7818608E-02  0.9832005E-01
          1   -1    0    0  501    0  0.00000000000E+00  0.00000000000E+00  0.42140114153E+03  0.42140114156E+03  0.50400000000E-02 0. -1.
         -1   -1    0    0    0  501 -0.00000000000E+00 -0.00000000000E+00 -0.19326088330E+04  0.19326088330E+04  0.50400000000E-02 0.  1.
    8880023    1    1    2    0    0 -0.55230288001E+02 -0.35423656325E+03 -0.17451303625E+04  0.18994273126E+04  0.65864270000E+03 0.  1.
    8880022    1    1    2    0    0  0.55230288001E+02  0.35423656325E+03  0.23392267108E+03  0.45458266192E+03  0.15294330000E+03 0.  0.
<mgrwt>
<rscale>  0 0.63672907E+03</rscale>
<asrwt>0</asrwt>
<pdfrwt beam="1">  1        1 0.64830946E-01 0.74989608E+03</pdfrwt>
<pdfrwt beam="2">  1       -1 0.29732443E+00 0.74989608E+03</pdfrwt>
<totfact> 0.20214187E+00</totfact>
</mgrwt>
</event>
<event>
 4    1  0.2514307E-008  0.8573211E+03  0.7818608E-02  0.9598347E-01
          1   -1    0    0  501    0  0.00000000000E+00  0.00000000000E+00  0.14978896380E+04  0.14978896380E+04  0.50400000000E-02 0. -1.
         -1   -1    0    0    0  501 -0.00000000000E+00 -0.00000000000E+00 -0.49760391510E+03  0.49760391512E+03  0.50400000000E-02 0.  1.
    8880023    1    1    2    0    0 -0.54822274606E+03 -0.25318253105E+02  0.15119579537E+02  0.85745437266E+03  0.65864270000E+03 0.  1.
    8880022    1    1    2    0    0  0.54822274606E+03  0.25318253105E+02  0.98516614334E+03  0.11380391804E+04  0.15294330000E+03 0.  0.
<mgrwt>
<rscale>  0 0.77405707E+03</rscale>
<asrwt>0</asrwt>
<pdfrwt beam="1">  1        1 0.23044456E+00 0.85732106E+03</pdfrwt>
<pdfrwt beam="2">  1       -1 0.76554450E-01 0.85732106E+03</pdfrwt>
<totfact> 0.11494802E+01</totfact>
</mgrwt>
</event>
<event>
 4    1  0.2514307E-008  0.8897148E+03  0.7818608E-02  0.9542749E-01
          1   -1    0    0  501    0  0.00000000000E+00  0.00000000000E+00  0.14963928940E+04  0.14963928940E+04  0.50400000000E-02 0. -1.
         -1   -1    0    0    0  501 -0.00000000000E+00 -0.00000000000E+00 -0.26058326817E+04  0.26058326817E+04  0.50400000000E-02 0.  1.
    8880023    1    1    2    0    0  0.73688370921E+02 -0.59359260361E+03 -0.24606967140E+04  0.26166048000E+04  0.65864270000E+03 0.  1.
    8880022    1    1    2    0    0 -0.73688370921E+02  0.59359260361E+03  0.13512569263E+04  0.14856207756E+04  0.15294330000E+03 0.  0.
<mgrwt>
<rscale>  0 0.81204198E+03</rscale>
<asrwt>0</asrwt>
<pdfrwt beam="1">  1        1 0.23021429E+00 0.88971476E+03</pdfrwt>
<pdfrwt beam="2">  1       -1 0.40089734E+00 0.88971476E+03</pdfrwt>
<totfact> 0.48920799E-02</totfact>
</mgrwt>
</event>
<event>
 4    1  0.2514307E-008  0.1096439E+04  0.7818608E-02  0.9265032E-01
         -1   -1    0    0    0  501 -0.00000000000E+00  0.00000000000E+00  0.40633372038E+03  0.40633372041E+03  0.50400000000E-02 0.  1.
          1   -1    0    0  501    0  0.00000000000E+00 -0.00000000000E+00 -0.37307509533E+04  0.37307509533E+04  0.50400000000E-02 0. -1.
    8880023    1    1    2    0    0 -0.17272596197E+03  0.85937968379E+03 -0.55634480504E+03  0.12295110602E+04  0.65864270000E+03 0.  0.
    8880022    1    1    2    0    0  0.17272596197E+03 -0.85937968379E+03 -0.27680724279E+04  0.29075736135E+04  0.15294330000E+03 0.  0.
<mgrwt>
<rscale>  0 0.10406685E+04</rscale>
<asrwt>0</asrwt>
<pdfrwt beam="1">  1        1 0.57396166E+00 0.10964387E+04</pdfrwt>
<pdfrwt beam="2">  1       -1 0.62512883E-01 0.10964387E+04</pdfrwt>
<totfact> 0.43465148E-01</totfact>
</mgrwt>
</event>
<event>
 4    1  0.2514307E-008  0.1352451E+04  0.7818608E-02  0.9021539E-01
          1   -1    0    0  501    0  0.00000000000E+00  0.00000000000E+00  0.26808361757E+04  0.26808361757E+04  0.50400000000E-02 0. -1.
         -1   -1    0    0    0  501 -0.00000000000E+00 -0.00000000000E+00 -0.94619675678E+03  0.94619675680E+03  0.50400000000E-02 0.  1.
    8880023    1    1    2    0    0  0.78892065379E+03  0.87915765138E+03  0.19926898793E+04  0.24083058642E+04  0.65864270000E+03 0. -1.
    8880022    1    1    2    0    0 -0.78892065379E+03 -0.87915765138E+03 -0.25805046041E+03  0.12187270683E+04  0.15294330000E+03 0.  0.
<mgrwt>
<rscale>  0 0.13101702E+04</rscale>
<asrwt>0</asrwt>
<pdfrwt beam="1">  1        1 0.41243633E+00 0.13524512E+04</pdfrwt>
<pdfrwt beam="2">  1       -1 0.14556873E+00 0.13524512E+04</pdfrwt>
<totfact> 0.37071940E-01</totfact>
</mgrwt>
</event>
<event>
 4    1  0.2514307E-008  0.1745457E+04  0.7818608E-02  0.8753323E-01
          1   -1    0    0  501    0  0.00000000000E+00  0.00000000000E+00  0.28313523211E+04  0.28313523211E+04  0.50400000000E-02 0. -1.
         -1   -1    0    0    0  501 -0.00000000000E+00 -0.00000000000E+00 -0.19953285788E+04  0.19953285788E+04  0.50400000000E-02 0.  1.
    8880023    1    1    2    0    0 -0.12789354585E+04  0.98850034026E+03 -0.12764071296E+04  0.21623677292E+04  0.65864270000E+03 0.  1.
    8880022    1    1    2    0    0  0.12789354585E+04 -0.98850034026E+03  0.21124308719E+04  0.26643131707E+04  0.15294330000E+03 0.  1.
<mgrwt>
<rscale>  0 0.17141709E+04</rscale>
<asrwt>0</asrwt>
<pdfrwt beam="1">  1        1 0.43559266E+00 0.17454567E+04</pdfrwt>
<pdfrwt beam="2">  1       -1 0.30697363E+00 0.17454567E+04</pdfrwt>
<totfact> 0.21503164E-02</totfact>
</mgrwt>
</event>
<event>
 4    1  0.2514307E-008  0.1193970E+04  0.7818608E-02  0.9163006E-01
         -1   -1    0    0    0  501 -0.00000000000E+00  0.00000000000E+00  0.75584574845E+03  0.75584574846E+03  0.50400000000E-02 0.  1.
          1   -1    0    0  501    0  0.00000000000E+00 -0.00000000000E+00 -0.19887139929E+04  0.19887139929E+04  0.50400000000E-02 0. -1.
    8880023    1    1    2    0    0  0.94232058029E+02 -0.99140021134E+03 -0.55956816273E+02  0.11952804823E+04  0.65864270000E+03 0.  0.
    8880022    1    1    2    0    0 -0.94232058029E+02  0.99140021134E+03 -0.11769114282E+04  0.15492792591E+04  0.15294330000E+03 0.  0.
<mgrwt>
<rscale>  0 0.11443559E+04</rscale>
<asrwt>0</asrwt>
<pdfrwt beam="1">  1        1 0.30595600E+00 0.11939700E+04</pdfrwt>
<pdfrwt beam="2">  1       -1 0.11628396E+00 0.11939700E+04</pdfrwt>
<totfact> 0.19976765E+00</totfact>
</mgrwt>
</event>
<event>
 4    1  0.2514307E-008  0.1143740E+04  0.7818608E-02  0.9213851E-01
         -1   -1    0    0    0  501 -0.00000000000E+00  0.00000000000E+00  0.58564957553E+03  0.58564957555E+03  0.50400000000E-02 0.  1.
          1   -1    0    0  501    0  0.00000000000E+00 -0.00000000000E+00 -0.34152646250E+04  0.34152646250E+04  0.50400000000E-02 0. -1.
    8880023    1    1    2    0    0 -0.66155474993E+03  0.66081494537E+03 -0.14364000745E+03  0.11527244845E+04  0.65864270000E+03 0.  0.
    8880022    1    1    2    0    0  0.66155474993E+03 -0.66081494537E+03 -0.26859750420E+04  0.28481897161E+04  0.15294330000E+03 0.  0.
<mgrwt>
<rscale>  0 0.10911596E+04</rscale>
<asrwt>0</asrwt>
<pdfrwt beam="1">  1        1 0.52542531E+00 0.11437400E+04</pdfrwt>
<pdfrwt beam="2">  1       -1 0.90099937E-01 0.11437400E+04</pdfrwt>
<totfact> 0.35518497E-01</totfact>
</mgrwt>
</event>
<event>
 4    1  0.2514307E-008  0.8710308E+03  0.7818608E-02  0.9574235E-01
         -1   -1    0    0    0  501 -0.00000000000E+00  0.00000000000E+00  0.11510805105E+04  0.11510805105E+04  0.50400000000E-02 0.  1.
          1   -1    0    0  501    0  0.00000000000E+00 -0.00000000000E+00 -0.13393297363E+04  0.13393297363E+04  0.50400000000E-02 0. -1.
    8880023    1    1    2    0    0  0.45513558788E+03 -0.34312674870E+03  0.89997986070E+03  0.12524609076E+04  0.65864270000E+03 0.  1.
    8880022    1    1    2    0    0 -0.45513558788E+03  0.34312674870E+03 -0.10882290865E+04  0.12379493393E+04  0.15294330000E+03 0.  0.
<mgrwt>
<rscale>  0 0.79025193E+03</rscale>
<asrwt>0</asrwt>
<pdfrwt beam="1">  1        1 0.20605073E+00 0.87103075E+03</pdfrwt>
<pdfrwt beam="2">  1       -1 0.17708931E+00 0.87103075E+03</pdfrwt>
<totfact> 0.18971808E+00</totfact>
</mgrwt>
</event>
<event>
 4    1  0.2514307E-008  0.1536624E+04  0.7818608E-02  0.8884198E-01
         -1   -1    0    0    0  501 -0.00000000000E+00  0.00000000000E+00  0.12210741430E+04  0.12210741430E+04  0.50400000000E-02 0.  1.
          1   -1    0    0  501    0  0.00000000000E+00 -0.00000000000E+00 -0.28219782600E+04  0.28219782600E+04  0.50400000000E-02 0. -1.
    8880023    1    1    2    0    0 -0.57239565394E+03  0.12648186065E+04  0.41397764812E+03  0.15914115092E+04  0.65864270000E+03 0.  0.
    8880022    1    1    2    0    0  0.57239565394E+03 -0.12648186065E+04 -0.20148817651E+04  0.24516408939E+04  0.15294330000E+03 0.  0.
<mgrwt>
<rscale>  0 0.15003830E+04</rscale>
<asrwt>0</asrwt>
<pdfrwt beam="1">  1        1 0.43415050E+00 0.15366239E+04</pdfrwt>
<pdfrwt beam="2">  1       -1 0.18785756E+00 0.15366239E+04</pdfrwt>
<totfact> 0.13868255E-01</totfact>
</mgrwt>
</event>
<event>
 4    1  0.2514307E-008  0.7669439E+03  0.7818608E-02  0.9787451E-01
         -1   -1    0    0    0  501 -0.00000000000E+00  0.00000000000E+00  0.67041240621E+03  0.67041240623E+03  0.50400000000E-02 0.  1.
          1   -1    0    0  501    0  0.00000000000E+00 -0.00000000000E+00 -0.59030267378E+03  0.59030267380E+03  0.50400000000E-02 0. -1.
    8880023    1    1    2    0    0 -0.52384912739E+01  0.39289355941E+03 -0.14834205129E+03  0.78115834583E+03  0.65864270000E+03 0.  1.
    8880022    1    1    2    0    0  0.52384912739E+01 -0.39289355941E+03  0.22845178372E+03  0.47955673420E+03  0.15294330000E+03 0.  0.
<mgrwt>
<rscale>  0 0.66040360E+03</rscale>
<asrwt>0</asrwt>
<pdfrwt beam="1">  1        1 0.90815796E-01 0.76694393E+03</pdfrwt>
<pdfrwt beam="2">  1       -1 0.10314037E+00 0.76694393E+03</pdfrwt>
<totfact> 0.31814603E+01</totfact>
</mgrwt>
</event>
<event>
 4    1  0.2514307E-008  0.7374905E+03  0.7818608E-02  0.9867318E-01
          1   -1    0    0  501    0  0.00000000000E+00  0.00000000000E+00  0.29973932625E+04  0.29973932625E+04  0.50400000000E-02 0. -1.
         -1   -1    0    0    0  501 -0.00000000000E+00 -0.00000000000E+00 -0.31225879804E+03  0.31225879808E+03  0.50400000000E-02 0.  1.
    8880023    1    1    2    0    0  0.30292250395E+03 -0.13535133281E+03  0.15541587599E+03  0.75368848171E+03  0.65864270000E+03 0.  1.
    8880022    1    1    2    0    0 -0.30292250395E+03  0.13535133281E+03  0.25297185885E+04  0.25559635789E+04  0.15294330000E+03 0.  0.
<mgrwt>
<rscale>  0 0.61871661E+03</rscale>
<asrwt>0</asrwt>
<pdfrwt beam="1">  1        1 0.46113741E+00 0.73749050E+03</pdfrwt>
<pdfrwt beam="2">  1       -1 0.48039816E-01 0.73749050E+03</pdfrwt>
<totfact> 0.27950211E+00</totfact>
</mgrwt>
</event>
<event>
 4    1  0.2514307E-008  0.1515316E+04  0.7818608E-02  0.8898896E-01
         -1   -1    0    0    0  501 -0.00000000000E+00  0.00000000000E+00  0.19414582694E+04  0.19414582694E+04  0.50400000000E-02 0.  1.
          1   -1    0    0  501    0  0.00000000000E+00 -0.00000000000E+00 -0.21987339362E+04  0.21987339362E+04  0.50400000000E-02 0. -1.
    8880023    1    1    2    0    0 -0.61044148961E+03 -0.12205468092E+04  0.13476936688E+04  0.20279205499E+04  0.65864270000E+03 0.  1.
    8880022    1    1    2    0    0  0.61044148961E+03  0.12205468092E+04 -0.16049693357E+04  0.21122716556E+04  0.15294330000E+03 0.  0.
<mgrwt>
<rscale>  0 0.14784731E+04</rscale>
<asrwt>0</asrwt>
<pdfrwt beam="1">  1        1 0.33826676E+00 0.15153163E+04</pdfrwt>
<pdfrwt beam="2">  1       -1 0.29868589E+00 0.15153163E+04</pdfrwt>
<totfact> 0.69189451E-02</totfact>
</mgrwt>
</event>
<event>
 4    1  0.2514307E-008  0.7946444E+03  0.7818608E-02  0.9722498E-01
         -1   -1    0    0    0  501 -0.00000000000E+00  0.00000000000E+00  0.78888657621E+03  0.78888657623E+03  0.50400000000E-02 0.  1.
          1   -1    0    0  501    0  0.00000000000E+00 -0.00000000000E+00 -0.11863283622E+04  0.11863283622E+04  0.50400000000E-02 0. -1.
    8880023    1    1    2    0    0 -0.34953409470E+03 -0.27472801890E+03  0.51627989890E+03  0.94763110333E+03  0.65864270000E+03 0.  0.
    8880022    1    1    2    0    0  0.34953409470E+03  0.27472801890E+03 -0.91372168485E+03  0.10275838351E+04  0.15294330000E+03 0.  0.
<mgrwt>
<rscale>  0 0.69692941E+03</rscale>
<asrwt>0</asrwt>
<pdfrwt beam="1">  1        1 0.18251206E+00 0.79464443E+03</pdfrwt>
<pdfrwt beam="2">  1       -1 0.12136717E+00 0.79464443E+03</pdfrwt>
<totfact> 0.67789370E+00</totfact>
</mgrwt>
</event>
<event>
 4    1  0.2514307E-008  0.8052116E+03  0.7818608E-02  0.9699639E-01
         -1   -1    0    0    0  501 -0.00000000000E+00  0.00000000000E+00  0.65865096237E+03  0.65865096239E+03  0.50400000000E-02 0.  1.
          1   -1    0    0  501    0  0.00000000000E+00 -0.00000000000E+00 -0.12470607251E+04  0.12470607251E+04  0.50400000000E-02 0. -1.
    8880023    1    1    2    0    0 -0.22910902300E+03 -0.40257242565E+03  0.32649786051E+03  0.86888811794E+03  0.65864270000E+03 0.  1.
    8880022    1    1    2    0    0  0.22910902300E+03  0.40257242565E+03 -0.91490762324E+03  0.10368235696E+04  0.15294330000E+03 0.  0.
<mgrwt>
<rscale>  0 0.71038303E+03</rscale>
<asrwt>0</asrwt>
<pdfrwt beam="1">  1        1 0.19185550E+00 0.80521159E+03</pdfrwt>
<pdfrwt beam="2">  1       -1 0.10133092E+00 0.80521159E+03</pdfrwt>
<totfact> 0.93813700E+00</totfact>
</mgrwt>
</event>
<event>
 4    1  0.2514307E-008  0.1410276E+04  0.7818608E-02  0.8975739E-01
         -1   -1    0    0    0  501 -0.00000000000E+00  0.00000000000E+00  0.10489047811E+04  0.10489047811E+04  0.50400000000E-02 0.  1.
          1   -1    0    0  501    0  0.00000000000E+00 -0.00000000000E+00 -0.19978702759E+04  0.19978702759E+04  0.50400000000E-02 0. -1.
    8880023    1    1    2    0    0 -0.39029126169E+03  0.11843738673E+04  0.94719783254E+02  0.14134534906E+04  0.65864270000E+03 0.  0.
    8880022    1    1    2    0    0  0.39029126169E+03 -0.11843738673E+04 -0.10436852781E+04  0.16333215664E+04  0.15294330000E+03 0.  0.
<mgrwt>
<rscale>  0 0.13701160E+04</rscale>
<asrwt>0</asrwt>
<pdfrwt beam="1">  1        1 0.30736466E+00 0.14102762E+04</pdfrwt>
<pdfrwt beam="2">  1       -1 0.16136997E+00 0.14102762E+04</pdfrwt>
<totfact> 0.81720228E-01</totfact>
</mgrwt>
</event>
<event>
 4    1  0.2514307E-008  0.1144073E+04  0.7818608E-02  0.9213503E-01
          1   -1    0    0  501    0  0.00000000000E+00  0.00000000000E+00  0.31503223475E+04  0.31503223475E+04  0.50400000000E-02 0. -1.
         -1   -1    0    0    0  501 -0.00000000000E+00 -0.00000000000E+00 -0.60895311342E+03  0.60895311344E+03  0.50400000000E-02 0.  1.
    8880023    1    1    2    0    0 -0.59469789489E+03  0.72209970515E+03  0.10961665517E+03  0.11493126588E+04  0.65864270000E+03 0.  0.
    8880022    1    1    2    0    0  0.59469789489E+03 -0.72209970515E+03  0.24317525789E+04  0.26099628021E+04  0.15294330000E+03 0.  0.
<mgrwt>
<rscale>  0 0.10915139E+04</rscale>
<asrwt>0</asrwt>
<pdfrwt beam="1">  1        1 0.48466498E+00 0.11440733E+04</pdfrwt>
<pdfrwt beam="2">  1       -1 0.93685093E-01 0.11440733E+04</pdfrwt>
<totfact> 0.51528226E-01</totfact>
</mgrwt>
</event>
<event>
 4    1  0.2514307E-008  0.9712742E+03  0.7818608E-02  0.9420144E-01
         -1   -1    0    0    0  501 -0.00000000000E+00  0.00000000000E+00  0.70572932571E+03  0.70572932573E+03  0.50400000000E-02 0.  1.
          1   -1    0    0  501    0  0.00000000000E+00 -0.00000000000E+00 -0.19642087354E+04  0.19642087354E+04  0.50400000000E-02 0. -1.
    8880023    1    1    2    0    0  0.67844088764E+03  0.22199418452E+03  0.24227996392E+03  0.10010360848E+04  0.65864270000E+03 0.  0.
    8880022    1    1    2    0    0 -0.67844088764E+03 -0.22199418452E+03 -0.15007593736E+04  0.16689019763E+04  0.15294330000E+03 0.  0.
<mgrwt>
<rscale>  0 0.90436289E+03</rscale>
<asrwt>0</asrwt>
<pdfrwt beam="1">  1        1 0.30218596E+00 0.97127425E+03</pdfrwt>
<pdfrwt beam="2">  1       -1 0.10857374E+00 0.97127425E+03</pdfrwt>
<totfact> 0.25170789E+00</totfact>
</mgrwt>
</event>
<event>
 4    1  0.2514307E-008  0.7387768E+03  0.7818608E-02  0.9863525E-01
          1   -1    0    0  501    0  0.00000000000E+00  0.00000000000E+00  0.12936000791E+04  0.12936000791E+04  0.50400000000E-02 0. -1.
         -1   -1    0    0    0  501 -0.00000000000E+00 -0.00000000000E+00 -0.43429925678E+03  0.43429925681E+03  0.50400000000E-02 0.  1.
    8880023    1    1    2    0    0 -0.14555827835E+03  0.30132000400E+03 -0.56518425983E+02  0.74093555452E+03  0.65864270000E+03 0.  1.
    8880022    1    1    2    0    0  0.14555827835E+03 -0.30132000400E+03  0.91581924828E+03  0.98696378138E+03  0.15294330000E+03 0.  0.
<mgrwt>
<rscale>  0 0.62062074E+03</rscale>
<asrwt>0</asrwt>
<pdfrwt beam="1">  1        1 0.19901539E+00 0.73877680E+03</pdfrwt>
<pdfrwt beam="2">  1       -1 0.66815272E-01 0.73877680E+03</pdfrwt>
<totfact> 0.21435557E+01</totfact>
</mgrwt>
</event>
<event>
 4    1  0.2514307E-008  0.9207138E+03  0.7818608E-02  0.9493565E-01
          1   -1    0    0  501    0  0.00000000000E+00  0.00000000000E+00  0.16452424134E+04  0.16452424134E+04  0.50400000000E-02 0. -1.
         -1   -1    0    0    0  501 -0.00000000000E+00 -0.00000000000E+00 -0.76246314446E+03  0.76246314448E+03  0.50400000000E-02 0.  1.
    8880023    1    1    2    0    0  0.47571644938E+03  0.43312541019E+03 -0.36906895212E+03  0.99193036996E+03  0.65864270000E+03 0.  0.
    8880022    1    1    2    0    0 -0.47571644938E+03 -0.43312541019E+03  0.12518482211E+04  0.14157751879E+04  0.15294330000E+03 0.  0.
<mgrwt>
<rscale>  0 0.84759887E+03</rscale>
<asrwt>0</asrwt>
<pdfrwt beam="1">  1        1 0.25311421E+00 0.92071384E+03</pdfrwt>
<pdfrwt beam="2">  1       -1 0.11730202E+00 0.92071384E+03</pdfrwt>
<totfact> 0.34601096E+00</totfact>
</mgrwt>
</event>
<event>
 4    1  0.2514307E-008  0.1044139E+04  0.7818608E-02  0.9325961E-01
          1   -1    0    0  501    0  0.00000000000E+00  0.00000000000E+00  0.97085703529E+03  0.97085703530E+03  0.50400000000E-02 0. -1.
         -1   -1    0    0    0  501 -0.00000000000E+00 -0.00000000000E+00 -0.10109887010E+04  0.10109887010E+04  0.50400000000E-02 0.  1.
    8880023    1    1    2    0    0  0.40540445256E+03  0.70147181292E+03 -0.34969808002E+03  0.11011423286E+04  0.65864270000E+03 0.  0.
    8880022    1    1    2    0    0 -0.40540445256E+03 -0.70147181292E+03  0.30956641429E+03  0.88070340770E+03  0.15294330000E+03 0.  0.
<mgrwt>
<rscale>  0 0.98427594E+03</rscale>
<asrwt>0</asrwt>
<pdfrwt beam="1">  1        1 0.14936262E+00 0.10441387E+04</pdfrwt>
<pdfrwt beam="2">  1       -1 0.15553672E+00 0.10441387E+04</pdfrwt>
<totfact> 0.50309801E+00</totfact>
</mgrwt>
</event>
<event>
 4    1  0.2514307E-008  0.1458173E+04  0.7818608E-02  0.8939751E-01
          1   -1    0    0  501    0  0.00000000000E+00  0.00000000000E+00  0.16697097083E+04  0.16697097083E+04  0.50400000000E-02 0. -1.
         -1   -1    0    0    0  501 -0.00000000000E+00 -0.00000000000E+00 -0.16721471922E+04  0.16721471922E+04  0.50400000000E-02 0.  1.
    8880023    1    1    2    0    0 -0.40964779066E+03  0.12347654944E+04 -0.93652470620E+03  0.17330164079E+04  0.65864270000E+03 0.  0.
    8880022    1    1    2    0    0  0.40964779066E+03 -0.12347654944E+04  0.93408722234E+03  0.16088404926E+04  0.15294330000E+03 0.  0.
<mgrwt>
<rscale>  0 0.14196019E+04</rscale>
<asrwt>0</asrwt>
<pdfrwt beam="1">  1        1 0.25687841E+00 0.14581726E+04</pdfrwt>
<pdfrwt beam="2">  1       -1 0.25725342E+00 0.14581726E+04</pdfrwt>
<totfact> 0.29664329E-01</totfact>
</mgrwt>
</event>
<event>
 4    1  0.2514307E-008  0.6762891E+03  0.7818608E-02  0.1011506E+00
          1   -1    0    0  501    0  0.00000000000E+00  0.00000000000E+00  0.65904851908E+03  0.65904851910E+03  0.50400000000E-02 0. -1.
         -1   -1    0    0    0  501 -0.00000000000E+00 -0.00000000000E+00 -0.62270523348E+03  0.62270523350E+03  0.50400000000E-02 0.  1.
    8880023    1    1    2    0    0 -0.47929533271E+00 -0.15348137564E+03 -0.40627932199E+03  0.78894223878E+03  0.65864270000E+03 0.  1.
    8880022    1    1    2    0    0  0.47929533271E+00  0.15348137564E+03  0.44262260759E+03  0.49281151382E+03  0.15294330000E+03 0.  0.
<mgrwt>
<rscale>  0 0.50880564E+03</rscale>
<asrwt>0</asrwt>
<pdfrwt beam="1">  1        1 0.10139208E+00 0.67628912E+03</pdfrwt>
<pdfrwt beam="2">  1       -1 0.95800805E-01 0.67628912E+03</pdfrwt>
<totfact> 0.32361422E+01</totfact>
</mgrwt>
</event>
<event>
 4    1  0.2514307E-008  0.7737249E+03  0.7818608E-02  0.9770789E-01
         -1   -1    0    0    0  501 -0.00000000000E+00  0.00000000000E+00  0.49428122358E+03  0.49428122361E+03  0.50400000000E-02 0.  1.
          1   -1    0    0  501    0  0.00000000000E+00 -0.00000000000E+00 -0.21926812430E+04  0.21926812430E+04  0.50400000000E-02 0. -1.
    8880023    1    1    2    0    0  0.28547563796E+03  0.28869317634E+03  0.15016899694E+03  0.78816306932E+03  0.65864270000E+03 0.  1.
    8880022    1    1    2    0    0 -0.28547563796E+03 -0.28869317634E+03 -0.18485690163E+04  0.18987993973E+04  0.15294330000E+03 0.  0.
<mgrwt>
<rscale>  0 0.66954005E+03</rscale>
<asrwt>0</asrwt>
<pdfrwt beam="1">  1        1 0.33733557E+00 0.77372495E+03</pdfrwt>
<pdfrwt beam="2">  1       -1 0.76043266E-01 0.77372495E+03</pdfrwt>
<totfact> 0.40186831E+00</totfact>
</mgrwt>
</event>
<event>
 4    1  0.2514307E-008  0.9439227E+03  0.7818608E-02  0.9458912E-01
          1   -1    0    0  501    0  0.00000000000E+00  0.00000000000E+00  0.11751053188E+04  0.11751053188E+04  0.50400000000E-02 0. -1.
         -1   -1    0    0    0  501 -0.00000000000E+00 -0.00000000000E+00 -0.83509849063E+03  0.83509849064E+03  0.50400000000E-02 0.  1.
    8880023    1    1    2    0    0  0.61651438212E+03 -0.27765077681E+03 -0.37373378494E+03  0.10152177527E+04  0.65864270000E+03 0.  0.
    8880022    1    1    2    0    0 -0.61651438212E+03  0.27765077681E+03  0.71374061313E+03  0.99498605672E+03  0.15294330000E+03 0.  0.
<mgrwt>
<rscale>  0 0.87382024E+03</rscale>
<asrwt>0</asrwt>
<pdfrwt beam="1">  1        1 0.18078543E+00 0.94392274E+03</pdfrwt>
<pdfrwt beam="2">  1       -1 0.12847669E+00 0.94392274E+03</pdfrwt>
<totfact> 0.58802022E+00</totfact>
</mgrwt>
</event>
<event>
 4    1  0.2514307E-008  0.6686592E+03  0.7818608E-02  0.1016643E+00
         -1   -1    0    0    0  501 -0.00000000000E+00  0.00000000000E+00  0.24904836320E+04  0.24904836321E+04  0.50400000000E-02 0.  1.
          1   -1    0    0  501    0  0.00000000000E+00 -0.00000000000E+00 -0.13056254754E+04  0.13056254754E+04  0.50400000000E-02 0. -1.
    8880023    1    1    2    0    0  0.83915798780E+02 -0.79076679426E+02  0.24381952152E+04  0.25282209350E+04  0.65864270000E+03 0.  1.
    8880022    1    1    2    0    0 -0.83915798780E+02  0.79076679426E+02 -0.12533370586E+04  0.12678881725E+04  0.15294330000E+03 0.  0.
<mgrwt>
<rscale>  0 0.48917824E+03</rscale>
<asrwt>0</asrwt>
<pdfrwt beam="1">  1        1 0.20086546E+00 0.66865925E+03</pdfrwt>
<pdfrwt beam="2">  1       -1 0.38315133E+00 0.66865925E+03</pdfrwt>
<totfact> 0.92793543E-02</totfact>
</mgrwt>
</event>
<event>
 4    1  0.2514307E-008  0.6725023E+03  0.7818608E-02  0.1013929E+00
          1   -1    0    0  501    0  0.00000000000E+00  0.00000000000E+00  0.78384039743E+03  0.78384039745E+03  0.50400000000E-02 0. -1.
         -1   -1    0    0    0  501 -0.00000000000E+00 -0.00000000000E+00 -0.55521704304E+03  0.55521704307E+03  0.50400000000E-02 0.  1.
    8880023    1    1    2    0    0 -0.11787986331E+03 -0.67479078881E+02 -0.32641037891E+03  0.74753129031E+03  0.65864270000E+03 0.  1.
    8880022    1    1    2    0    0  0.11787986331E+03  0.67479078881E+02  0.55503373330E+03  0.59152615021E+03  0.15294330000E+03 0.  0.
<mgrwt>
<rscale>  0 0.49942495E+03</rscale>
<asrwt>0</asrwt>
<pdfrwt beam="1">  1        1 0.12059083E+00 0.67250226E+03</pdfrwt>
<pdfrwt beam="2">  1       -1 0.85418008E-01 0.67250226E+03</pdfrwt>
<totfact> 0.31992292E+01</totfact>
</mgrwt>
</event>
<event>
 4    1  0.2514307E-008  0.7188119E+03  0.7818608E-02  0.9926627E-01
          1   -1    0    0  501    0  0.00000000000E+00  0.00000000000E+00  0.15784637339E+04  0.15784637339E+04  0.50400000000E-02 0. -1.
         -1   -1    0    0    0  501 -0.00000000000E+00 -0.00000000000E+00 -0.53172829847E+03  0.53172829850E+03  0.50400000000E-02 0.  1.
    8880023    1    1    2    0    0  0.25375026253E+03  0.13598231287E+03 -0.25925044096E+03  0.76413440084E+03  0.65864270000E+03 0.  1.
    8880022    1    1    2    0    0 -0.25375026253E+03 -0.13598231287E+03  0.13059858764E+04  0.13460576315E+04  0.15294330000E+03 0.  0.
<mgrwt>
<rscale>  0 0.58988022E+03</rscale>
<asrwt>0</asrwt>
<pdfrwt beam="1">  1        1 0.24284058E+00 0.71881193E+03</pdfrwt>
<pdfrwt beam="2">  1       -1 0.81804353E-01 0.71881193E+03</pdfrwt>
<totfact> 0.89748646E+00</totfact>
</mgrwt>
</event>
<event>
 4    1  0.2514307E-008  0.7481681E+03  0.7818608E-02  0.9836762E-01
          1   -1    0    0  501    0  0.00000000000E+00  0.00000000000E+00  0.19269484650E+04  0.19269484650E+04  0.50400000000E-02 0. -1.
         -1   -1    0    0    0  501 -0.00000000000E+00 -0.00000000000E+00 -0.81682513201E+03  0.81682513202E+03  0.50400000000E-02 0.  1.
    8880023    1    1    2    0    0 -0.29791007021E+03  0.19285984267E+03 -0.61959164913E+03  0.97141615530E+03  0.65864270000E+03 0.  1.
    8880022    1    1    2    0    0  0.29791007021E+03 -0.19285984267E+03  0.17297149821E+04  0.17723574417E+04  0.15294330000E+03 0.  0.
<mgrwt>
<rscale>  0 0.63426438E+03</rscale>
<asrwt>0</asrwt>
<pdfrwt beam="1">  1        1 0.29645361E+00 0.74816812E+03</pdfrwt>
<pdfrwt beam="2">  1       -1 0.12566540E+00 0.74816812E+03</pdfrwt>
<totfact> 0.19441384E+00</totfact>
</mgrwt>
</event>
<event>
 4    1  0.2514307E-008  0.8682099E+03  0.7818608E-02  0.9579123E-01
          1   -1    0    0  501    0  0.00000000000E+00  0.00000000000E+00  0.14113697389E+04  0.14113697389E+04  0.50400000000E-02 0. -1.
         -1   -1    0    0    0  501 -0.00000000000E+00 -0.00000000000E+00 -0.70373230532E+03  0.70373230534E+03  0.50400000000E-02 0.  1.
    8880023    1    1    2    0    0 -0.44719092128E+03  0.34640802482E+03 -0.32560985579E+03  0.92725952364E+03  0.65864270000E+03 0.  1.
    8880022    1    1    2    0    0  0.44719092128E+03 -0.34640802482E+03  0.10332472894E+04  0.11878425206E+04  0.15294330000E+03 0.  0.
<mgrwt>
<rscale>  0 0.78693494E+03</rscale>
<asrwt>0</asrwt>
<pdfrwt beam="1">  1        1 0.21713381E+00 0.86820991E+03</pdfrwt>
<pdfrwt beam="2">  1       -1 0.10826651E+00 0.86820991E+03</pdfrwt>
<totfact> 0.61060495E+00</totfact>
</mgrwt>
</event>
<event>
 4    1  0.2514307E-008  0.1540302E+04  0.7818608E-02  0.8881689E-01
          1   -1    0    0  501    0  0.00000000000E+00  0.00000000000E+00  0.16747245242E+04  0.16747245242E+04  0.50400000000E-02 0. -1.
         -1   -1    0    0    0  501 -0.00000000000E+00 -0.00000000000E+00 -0.13712010818E+04  0.13712010818E+04  0.50400000000E-02 0.  1.
    8880023    1    1    2    0    0  0.11281450380E+04 -0.81609373399E+03 -0.20886432295E+03  0.15543985078E+04  0.65864270000E+03 0.  0.
    8880022    1    1    2    0    0 -0.11281450380E+04  0.81609373399E+03  0.51238776532E+03  0.14915270981E+04  0.15294330000E+03 0.  0.
<mgrwt>
<rscale>  0 0.15041630E+04</rscale>
<asrwt>0</asrwt>
<pdfrwt beam="1">  1        1 0.25764993E+00 0.15403021E+04</pdfrwt>
<pdfrwt beam="2">  1       -1 0.21095401E+00 0.15403021E+04</pdfrwt>
<totfact> 0.59172302E-01</totfact>
</mgrwt>
</event>
<event>
 4    1  0.2514307E-008  0.1057624E+04  0.7818608E-02  0.9309772E-01
          1   -1    0    0  501    0  0.00000000000E+00  0.00000000000E+00  0.22074479161E+04  0.22074479161E+04  0.50400000000E-02 0. -1.
         -1   -1    0    0    0  501 -0.00000000000E+00 -0.00000000000E+00 -0.68664320459E+03  0.68664320461E+03  0.50400000000E-02 0.  1.
    8880023    1    1    2    0    0 -0.81160413082E+03 -0.16142011154E+03 -0.10559536232E+03  0.10628820745E+04  0.65864270000E+03 0. -1.
    8880022    1    1    2    0    0  0.81160413082E+03  0.16142011154E+03  0.16264000738E+04  0.18312090461E+04  0.15294330000E+03 0.  0.
<mgrwt>
<rscale>  0 0.99888156E+03</rscale>
<asrwt>0</asrwt>
<pdfrwt beam="1">  1        1 0.33960737E+00 0.10576237E+04</pdfrwt>
<pdfrwt beam="2">  1       -1 0.10563742E+00 0.10576237E+04</pdfrwt>
<totfact> 0.18174728E+00</totfact>
</mgrwt>
</event>
<event>
 4    1  0.2514307E-008  0.1118241E+04  0.7818608E-02  0.9241013E-01
         -1   -1    0    0    0  501 -0.00000000000E+00  0.00000000000E+00  0.46966960300E+03  0.46966960303E+03  0.50400000000E-02 0.  1.
          1   -1    0    0  501    0  0.00000000000E+00 -0.00000000000E+00 -0.23994768544E+04  0.23994768544E+04  0.50400000000E-02 0. -1.
    8880023    1    1    2    0    0  0.40907465608E+03 -0.80579869744E+03 -0.64499371758E+03  0.12909224287E+04  0.65864270000E+03 0.  0.
    8880022    1    1    2    0    0 -0.40907465608E+03  0.80579869744E+03 -0.12848135338E+04  0.15782240287E+04  0.15294330000E+03 0.  0.
<mgrwt>
<rscale>  0 0.10639948E+04</rscale>
<asrwt>0</asrwt>
<pdfrwt beam="1">  1        1 0.36915028E+00 0.11182414E+04</pdfrwt>
<pdfrwt beam="2">  1       -1 0.72256864E-01 0.11182414E+04</pdfrwt>
<totfact> 0.30770661E+00</totfact>
</mgrwt>
</event>
<event>
 4    1  0.2514307E-008  0.6818936E+03  0.7818608E-02  0.1008272E+00
          1   -1    0    0  501    0  0.00000000000E+00  0.00000000000E+00  0.12984270781E+04  0.12984270781E+04  0.50400000000E-02 0. -1.
         -1   -1    0    0    0  501 -0.00000000000E+00 -0.00000000000E+00 -0.57172498073E+03  0.57172498075E+03  0.50400000000E-02 0.  1.
    8880023    1    1    2    0    0  0.12015410476E+03  0.12935088772E+03 -0.35134723643E+03  0.76708783582E+03  0.65864270000E+03 0.  1.
    8880022    1    1    2    0    0 -0.12015410476E+03 -0.12935088772E+03  0.10780493338E+04  0.11030642231E+04  0.15294330000E+03 0.  0.
<mgrwt>
<rscale>  0 0.52167144E+03</rscale>
<asrwt>0</asrwt>
<pdfrwt beam="1">  1        1 0.19975801E+00 0.68189359E+03</pdfrwt>
<pdfrwt beam="2">  1       -1 0.87957691E-01 0.68189359E+03</pdfrwt>
<totfact> 0.12046191E+01</totfact>
</mgrwt>
</event>
<event>
 4    1  0.2514307E-008  0.8669155E+03  0.7818608E-02  0.9581378E-01
          1   -1    0    0  501    0  0.00000000000E+00  0.00000000000E+00  0.32908849684E+04  0.32908849684E+04  0.50400000000E-02 0. -1.
         -1   -1    0    0    0  501 -0.00000000000E+00 -0.00000000000E+00 -0.66659154699E+03  0.66659154701E+03  0.50400000000E-02 0.  1.
    8880023    1    1    2    0    0  0.32554884512E+03 -0.46016331454E+03 -0.34369973018E+03  0.93256208233E+03  0.65864270000E+03 0.  1.
    8880022    1    1    2    0    0 -0.32554884512E+03  0.46016331454E+03  0.29679931516E+04  0.30249144331E+04  0.15294330000E+03 0.  0.
<mgrwt>
<rscale>  0 0.78541035E+03</rscale>
<asrwt>0</asrwt>
<pdfrwt beam="1">  1        1 0.50629000E+00 0.86691553E+03</pdfrwt>
<pdfrwt beam="2">  1       -1 0.10255255E+00 0.86691553E+03</pdfrwt>
<totfact> 0.34663952E-01</totfact>
</mgrwt>
</event>
<event>
 4    1  0.2514307E-008  0.9877091E+03  0.7818608E-02  0.9397817E-01
         -1   -1    0    0    0  501 -0.00000000000E+00  0.00000000000E+00  0.91202605962E+03  0.91202605963E+03  0.50400000000E-02 0.  1.
          1   -1    0    0  501    0  0.00000000000E+00 -0.00000000000E+00 -0.16395259979E+04  0.16395259979E+04  0.50400000000E-02 0. -1.
    8880023    1    1    2    0    0 -0.48753440841E+03  0.55142482457E+03  0.50389353500E+03  0.11088183068E+04  0.65864270000E+03 0.  0.
    8880022    1    1    2    0    0  0.48753440841E+03 -0.55142482457E+03 -0.12313934733E+04  0.14427337508E+04  0.15294330000E+03 0.  0.
<mgrwt>
<rscale>  0 0.92255517E+03</rscale>
<asrwt>0</asrwt>
<pdfrwt beam="1">  1        1 0.25223477E+00 0.98770914E+03</pdfrwt>
<pdfrwt beam="2">  1       -1 0.14031170E+00 0.98770914E+03</pdfrwt>
<totfact> 0.22031396E+00</totfact>
</mgrwt>
</event>
<event>
 4    1  0.2514307E-008  0.1138461E+04  0.7818608E-02  0.9219396E-01
         -1   -1    0    0    0  501 -0.00000000000E+00  0.00000000000E+00  0.46491307386E+03  0.46491307389E+03  0.50400000000E-02 0.  1.
          1   -1    0    0  501    0  0.00000000000E+00 -0.00000000000E+00 -0.26987090348E+04  0.26987090348E+04  0.50400000000E-02 0. -1.
    8880023    1    1    2    0    0  0.92504496341E+03 -0.81083810982E+02 -0.62227039219E+03  0.12974256880E+04  0.65864270000E+03 0.  0.
    8880022    1    1    2    0    0 -0.92504496341E+03  0.81083810982E+02 -0.16115255688E+04  0.18661964207E+04  0.15294330000E+03 0.  0.
<mgrwt>
<rscale>  0 0.10855450E+04</rscale>
<asrwt>0</asrwt>
<pdfrwt beam="1">  1        1 0.41518599E+00 0.11384608E+04</pdfrwt>
<pdfrwt beam="2">  1       -1 0.71525090E-01 0.11384608E+04</pdfrwt>
<totfact> 0.19461690E+00</totfact>
</mgrwt>
</event>
<event>
 4    1  0.2514307E-008  0.1095930E+04  0.7818608E-02  0.9265601E-01
          1   -1    0    0  501    0  0.00000000000E+00  0.00000000000E+00  0.16802153317E+04  0.16802153317E+04  0.50400000000E-02 0. -1.
         -1   -1    0    0    0  501 -0.00000000000E+00 -0.00000000000E+00 -0.67894995261E+03  0.67894995263E+03  0.50400000000E-02 0.  1.
    8880023    1    1    2    0    0  0.49888959515E+03  0.71997400201E+03  0.11204241643E+03  0.11016429100E+04  0.65864270000E+03 0.  0.
    8880022    1    1    2    0    0 -0.49888959515E+03 -0.71997400201E+03  0.88922296268E+03  0.12575223744E+04  0.15294330000E+03 0.  0.
<mgrwt>
<rscale>  0 0.10401236E+04</rscale>
<asrwt>0</asrwt>
<pdfrwt beam="1">  1        1 0.25849467E+00 0.10959305E+04</pdfrwt>
<pdfrwt beam="2">  1       -1 0.10445384E+00 0.10959305E+04</pdfrwt>
<totfact> 0.42187561E+00</totfact>
</mgrwt>
</event>
<event>
 4    1  0.2514307E-008  0.1134606E+04  0.7818608E-02  0.9223471E-01
          1   -1    0    0  501    0  0.00000000000E+00  0.00000000000E+00  0.32152934883E+04  0.32152934883E+04  0.50400000000E-02 0. -1.
         -1   -1    0    0    0  501 -0.00000000000E+00 -0.00000000000E+00 -0.43458937240E+03  0.43458937243E+03  0.50400000000E-02 0.  1.
    8880023    1    1    2    0    0 -0.78198409273E+03 -0.49195703724E+03  0.61538543262E+03  0.12907479555E+04  0.65864270000E+03 0.  1.
    8880022    1    1    2    0    0  0.78198409273E+03  0.49195703724E+03  0.21653186833E+04  0.23591349052E+04  0.15294330000E+03 0.  0.
<mgrwt>
<rscale>  0 0.10814424E+04</rscale>
<asrwt>0</asrwt>
<pdfrwt beam="1">  1        1 0.49466054E+00 0.11346061E+04</pdfrwt>
<pdfrwt beam="2">  1       -1 0.66859903E-01 0.11346061E+04</pdfrwt>
<totfact> 0.94914766E-01</totfact>
</mgrwt>
</event>
<event>
 4    1  0.2514307E-008  0.7741414E+03  0.7818608E-02  0.9769783E-01
         -1   -1    0    0    0  501 -0.00000000000E+00  0.00000000000E+00  0.11421300976E+04  0.11421300977E+04  0.50400000000E-02 0.  1.
          1   -1    0    0  501    0  0.00000000000E+00 -0.00000000000E+00 -0.73161135000E+03  0.73161135002E+03  0.50400000000E-02 0. -1.
    8880023    1    1    2    0    0 -0.26493796942E+03 -0.30869484960E+03  0.92111939244E+03  0.12032272351E+04  0.65864270000E+03 0.  0.
    8880022    1    1    2    0    0  0.26493796942E+03  0.30869484960E+03 -0.51060064481E+03  0.67051421260E+03  0.15294330000E+03 0.  0.
<mgrwt>
<rscale>  0 0.67009655E+03</rscale>
<asrwt>0</asrwt>
<pdfrwt beam="1">  1        1 0.11255559E+00 0.77414136E+03</pdfrwt>
<pdfrwt beam="2">  1       -1 0.17571232E+00 0.77414136E+03</pdfrwt>
<totfact> 0.58661711E+00</totfact>
</mgrwt>
</event>
<event>
 4    1  0.2514307E-008  0.9079468E+03  0.7818608E-02  0.9513393E-01
          1   -1    0    0  501    0  0.00000000000E+00  0.00000000000E+00  0.95103731046E+03  0.95103731047E+03  0.50400000000E-02 0. -1.
         -1   -1    0    0    0  501 -0.00000000000E+00 -0.00000000000E+00 -0.73719425328E+03  0.73719425330E+03  0.50400000000E-02 0.  1.
    8880023    1    1    2    0    0  0.61560823476E+03  0.10762766199E+03 -0.19133848453E+03  0.92788891267E+03  0.65864270000E+03 0.  0.
    8880022    1    1    2    0    0 -0.61560823476E+03 -0.10762766199E+03  0.40518154170E+03  0.76034265110E+03  0.15294330000E+03 0.  0.
<mgrwt>
<rscale>  0 0.83303576E+03</rscale>
<asrwt>0</asrwt>
<pdfrwt beam="1">  1        1 0.14631343E+00 0.90794681E+03</pdfrwt>
<pdfrwt beam="2">  1       -1 0.11341450E+00 0.90794681E+03</pdfrwt>
<totfact> 0.11880016E+01</totfact>
</mgrwt>
</event>
<event>
 4    1  0.2514307E-008  0.1620430E+04  0.7818608E-02  0.8828968E-01
         -1   -1    0    0    0  501 -0.00000000000E+00  0.00000000000E+00  0.16590746525E+04  0.16590746525E+04  0.50400000000E-02 0.  1.
          1   -1    0    0  501    0  0.00000000000E+00 -0.00000000000E+00 -0.18009079342E+04  0.18009079342E+04  0.50400000000E-02 0. -1.
    8880023    1    1    2    0    0  0.29511187848E+03 -0.14508242589E+04 -0.82948819399E+03  0.18203963637E+04  0.65864270000E+03 0.  0.
    8880022    1    1    2    0    0 -0.29511187848E+03  0.14508242589E+04  0.68765491231E+03  0.16395862229E+04  0.15294330000E+03 0.  0.
<mgrwt>
<rscale>  0 0.15863664E+04</rscale>
<asrwt>0</asrwt>
<pdfrwt beam="1">  1        1 0.27706276E+00 0.16204297E+04</pdfrwt>
<pdfrwt beam="2">  1       -1 0.25524225E+00 0.16204297E+04</pdfrwt>
<totfact> 0.24413983E-01</totfact>
</mgrwt>
</event>
<event>
 4    1  0.2514307E-008  0.8432498E+03  0.7818608E-02  0.9624083E-01
          1   -1    0    0  501    0  0.00000000000E+00  0.00000000000E+00  0.16109416093E+04  0.16109416093E+04  0.50400000000E-02 0. -1.
         -1   -1    0    0    0  501 -0.00000000000E+00 -0.00000000000E+00 -0.43602940735E+03  0.43602940738E+03  0.50400000000E-02 0.  1.
    8880023    1    1    2    0    0 -0.38535281641E+03  0.35883583465E+03  0.11159280512E+03  0.85060161636E+03  0.65864270000E+03 0.  0.
    8880022    1    1    2    0    0  0.38535281641E+03 -0.35883583465E+03  0.10633193968E+04  0.11963694003E+04  0.15294330000E+03 0.  0.
<mgrwt>
<rscale>  0 0.75722529E+03</rscale>
<asrwt>0</asrwt>
<pdfrwt beam="1">  1        1 0.24783717E+00 0.84324976E+03</pdfrwt>
<pdfrwt beam="2">  1       -1 0.67081448E-01 0.84324976E+03</pdfrwt>
<totfact> 0.12661125E+01</totfact>
</mgrwt>
</event>
<event>
 4    1  0.2514307E-008  0.6655376E+03  0.7818608E-02  0.1019087E+00
          1   -1    0    0  501    0  0.00000000000E+00  0.00000000000E+00  0.49959874665E+03  0.49959874668E+03  0.50400000000E-02 0. -1.
         -1   -1    0    0    0  501 -0.00000000000E+00 -0.00000000000E+00 -0.10618100010E+04  0.10618100010E+04  0.50400000000E-02 0.  1.
    8880023    1    1    2    0    0 -0.57953392125E+02 -0.75970443157E+02 -0.93477440003E+03  0.11474944397E+04  0.65864270000E+03 0.  1.
    8880022    1    1    2    0    0  0.57953392125E+02  0.75970443157E+02  0.37256314565E+03  0.41391430804E+03  0.15294330000E+03 0.  0.
<mgrwt>
<rscale>  0 0.48017683E+03</rscale>
<asrwt>0</asrwt>
<pdfrwt beam="1">  1        1 0.76861346E-01 0.66553761E+03</pdfrwt>
<pdfrwt beam="2">  1       -1 0.16335538E+00 0.66553761E+03</pdfrwt>
<totfact> 0.12722518E+01</totfact>
</mgrwt>
</event>
<event>
 4    1  0.2514307E-008  0.1191464E+04  0.7818608E-02  0.9165465E-01
         -1   -1    0    0    0  501 -0.00000000000E+00  0.00000000000E+00  0.29254125410E+04  0.29254125410E+04  0.50400000000E-02 0.  1.
          1   -1    0    0  501    0  0.00000000000E+00 -0.00000000000E+00 -0.89761379009E+03  0.89761379010E+03  0.50400000000E-02 0. -1.
    8880023    1    1    2    0    0 -0.97140225335E+03 -0.20531340876E+03  0.24569682968E+04  0.27306188587E+04  0.65864270000E+03 0.  0.
    8880022    1    1    2    0    0  0.97140225335E+03  0.20531340876E+03 -0.42916954591E+03  0.10924074724E+04  0.15294330000E+03 0.  0.
<mgrwt>
<rscale>  0 0.11417107E+04</rscale>
<asrwt>0</asrwt>
<pdfrwt beam="1">  1        1 0.13809443E+00 0.11914639E+04</pdfrwt>
<pdfrwt beam="2">  1       -1 0.45006345E+00 0.11914639E+04</pdfrwt>
<totfact> 0.58717658E-02</totfact>
</mgrwt>
</event>
<event>
 4    1  0.2514307E-008  0.7414759E+03  0.7818608E-02  0.9855669E-01
         -1   -1    0    0    0  501 -0.00000000000E+00  0.00000000000E+00  0.98542485107E+03  0.98542485108E+03  0.50400000000E-02 0.  1.
          1   -1    0    0  501    0  0.00000000000E+00 -0.00000000000E+00 -0.32896739961E+04  0.32896739961E+04  0.50400000000E-02 0. -1.
    8880023    1    1    2    0    0 -0.33939088347E+03  0.28109616489E+02  0.83329537654E+03  0.11154226612E+04  0.65864270000E+03 0.  1.
    8880022    1    1    2    0    0  0.33939088347E+03 -0.28109616489E+02 -0.31375445215E+04  0.31596761859E+04  0.15294330000E+03 0.  0.
<mgrwt>
<rscale>  0 0.62458731E+03</rscale>
<asrwt>0</asrwt>
<pdfrwt beam="1">  1        1 0.50610369E+00 0.74147591E+03</pdfrwt>
<pdfrwt beam="2">  1       -1 0.15160382E+00 0.74147591E+03</pdfrwt>
<totfact> 0.13558429E-01</totfact>
</mgrwt>
</event>
<event>
 4    1  0.2514307E-008  0.1298524E+04  0.7818608E-02  0.9066836E-01
          1   -1    0    0  501    0  0.00000000000E+00  0.00000000000E+00  0.31978043891E+04  0.31978043891E+04  0.50400000000E-02 0. -1.
         -1   -1    0    0    0  501 -0.00000000000E+00 -0.00000000000E+00 -0.53298324399E+03  0.53298324401E+03  0.50400000000E-02 0.  1.
    8880023    1    1    2    0    0 -0.46342871445E+03  0.10186203129E+04  0.72796663602E+03  0.14886568257E+04  0.65864270000E+03 0.  0.
    8880022    1    1    2    0    0  0.46342871445E+03 -0.10186203129E+04  0.19368545091E+04  0.22421308075E+04  0.15294330000E+03 0.  0.
<mgrwt>
<rscale>  0 0.12540299E+04</rscale>
<asrwt>0</asrwt>
<pdfrwt beam="1">  1        1 0.49196990E+00 0.12985237E+04</pdfrwt>
<pdfrwt beam="2">  1       -1 0.81997422E-01 0.12985237E+04</pdfrwt>
<totfact> 0.62336883E-01</totfact>
</mgrwt>
</event>
<event>
 4    1  0.2514307E-008  0.6779044E+03  0.7818608E-02  0.1010535E+00
          1   -1    0    0  501    0  0.00000000000E+00  0.00000000000E+00  0.71788481432E+03  0.71788481433E+03  0.50400000000E-02 0. -1.
         -1   -1    0    0    0  501 -0.00000000000E+00 -0.00000000000E+00 -0.60924025518E+03  0.60924025520E+03  0.50400000000E-02 0.  1.
    8880023    1    1    2    0    0 -0.10899349188E+03 -0.11774819992E+03 -0.38953785645E+03  0.78185303461E+03  0.65864270000E+03 0.  1.
    8880022    1    1    2    0    0  0.10899349188E+03  0.11774819992E+03  0.49818241559E+03  0.54527203493E+03  0.15294330000E+03 0.  0.
<mgrwt>
<rscale>  0 0.51262666E+03</rscale>
<asrwt>0</asrwt>
<pdfrwt beam="1">  1        1 0.11044382E+00 0.67790444E+03</pdfrwt>
<pdfrwt beam="2">  1       -1 0.93729270E-01 0.67790444E+03</pdfrwt>
<totfact> 0.29886958E+01</totfact>
</mgrwt>
</event>
<event>
 4    1  0.2514307E-008  0.1742185E+04  0.7818608E-02  0.8755210E-01
          1   -1    0    0  501    0  0.00000000000E+00  0.00000000000E+00  0.38628155976E+04  0.38628155976E+04  0.50400000000E-02 0. -1.
         -1   -1    0    0    0  501 -0.00000000000E+00 -0.00000000000E+00 -0.79451820060E+03  0.79451820062E+03  0.50400000000E-02 0.  1.
    8880023    1    1    2    0    0 -0.15172501819E+04  0.54712821164E+03  0.22400253037E+04  0.28377668970E+04  0.65864270000E+03 0.  0.
    8880022    1    1    2    0    0  0.15172501819E+04 -0.54712821164E+03  0.82827209332E+03  0.18195669012E+04  0.15294330000E+03 0.  0.
<mgrwt>
<rscale>  0 0.17108323E+04</rscale>
<asrwt>0</asrwt>
<pdfrwt beam="1">  1        1 0.59427932E+00 0.17421847E+04</pdfrwt>
<pdfrwt beam="2">  1       -1 0.12223357E+00 0.17421847E+04</pdfrwt>
<totfact> 0.69760121E-02</totfact>
</mgrwt>
</event>
<event>
 4    1  0.2514307E-008  0.1853204E+04  0.7818608E-02  0.8693663E-01
         -1   -1    0    0    0  501 -0.00000000000E+00  0.00000000000E+00  0.16427973508E+04  0.16427973508E+04  0.50400000000E-02 0.  1.
          1   -1    0    0  501    0  0.00000000000E+00 -0.00000000000E+00 -0.24291726844E+04  0.24291726844E+04  0.50400000000E-02 0. -1.
    8880023    1    1    2    0    0 -0.37991155655E+03  0.16900358264E+04  0.48761465647E+03  0.19162808105E+04  0.65864270000E+03 0.  0.
    8880022    1    1    2    0    0  0.37991155655E+03 -0.16900358264E+04 -0.12739899901E+04  0.21556892246E+04  0.15294330000E+03 0.  0.
<mgrwt>
<rscale>  0 0.18239550E+04</rscale>
<asrwt>0</asrwt>
<pdfrwt beam="1">  1        1 0.37371887E+00 0.18532037E+04</pdfrwt>
<pdfrwt beam="2">  1       -1 0.25273805E+00 0.18532037E+04</pdfrwt>
<totfact> 0.91841262E-02</totfact>
</mgrwt>
</event>
<event>
 4    1  0.2514307E-008  0.8932224E+03  0.7818608E-02  0.9537001E-01
         -1   -1    0    0    0  501 -0.00000000000E+00  0.00000000000E+00  0.10811742245E+04  0.10811742245E+04  0.50400000000E-02 0.  1.
          1   -1    0    0  501    0  0.00000000000E+00 -0.00000000000E+00 -0.24014695052E+04  0.24014695052E+04  0.50400000000E-02 0. -1.
    8880023    1    1    2    0    0  0.57782562503E+03  0.17364792826E+03  0.84504805930E+03  0.12296147709E+04  0.65864270000E+03 0.  1.
    8880022    1    1    2    0    0 -0.57782562503E+03 -0.17364792826E+03 -0.21653433400E+04  0.22530289588E+04  0.15294330000E+03 0.  0.
<mgrwt>
<rscale>  0 0.81610031E+03</rscale>
<asrwt>0</asrwt>
<pdfrwt beam="1">  1        1 0.36945685E+00 0.89322240E+03</pdfrwt>
<pdfrwt beam="2">  1       -1 0.16633450E+00 0.89322240E+03</pdfrwt>
<totfact> 0.43081456E-01</totfact>
</mgrwt>
</event>
<event>
 4    1  0.2514307E-008  0.1888988E+04  0.7818608E-02  0.8674845E-01
         -1   -1    0    0    0  501 -0.00000000000E+00  0.00000000000E+00  0.16229883218E+04  0.16229883218E+04  0.50400000000E-02 0.  1.
          1   -1    0    0  501    0  0.00000000000E+00 -0.00000000000E+00 -0.30318763084E+04  0.30318763084E+04  0.50400000000E-02 0. -1.
    8880023    1    1    2    0    0 -0.16874530779E+04  0.53569423749E+03  0.59123800078E+03  0.19793531231E+04  0.65864270000E+03 0.  0.
    8880022    1    1    2    0    0  0.16874530779E+04 -0.53569423749E+03 -0.20001259874E+04  0.26755115071E+04  0.15294330000E+03 0.  0.
<mgrwt>
<rscale>  0 0.18603558E+04</rscale>
<asrwt>0</asrwt>
<pdfrwt beam="1">  1        1 0.46644251E+00 0.18889882E+04</pdfrwt>
<pdfrwt beam="2">  1       -1 0.24969051E+00 0.18889882E+04</pdfrwt>
<totfact> 0.35715010E-02</totfact>
</mgrwt>
</event>
<event>
 4    1  0.2514307E-008  0.7663623E+03  0.7818608E-02  0.9788906E-01
         -1   -1    0    0    0  501 -0.00000000000E+00  0.00000000000E+00  0.91111496343E+03  0.91111496344E+03  0.50400000000E-02 0.  1.
          1   -1    0    0  501    0  0.00000000000E+00 -0.00000000000E+00 -0.62352846156E+03  0.62352846158E+03  0.50400000000E-02 0. -1.
    8880023    1    1    2    0    0 -0.36132992664E+03 -0.15146488001E+03  0.63017599206E+03  0.99218592662E+03  0.65864270000E+03 0.  1.
    8880022    1    1    2    0    0  0.36132992664E+03  0.15146488001E+03 -0.34258949019E+03  0.54245749840E+03  0.15294330000E+03 0.  0.
<mgrwt>
<rscale>  0 0.65961313E+03</rscale>
<asrwt>0</asrwt>
<pdfrwt beam="1">  1        1 0.95927456E-01 0.76636227E+03</pdfrwt>
<pdfrwt beam="2">  1       -1 0.14017153E+00 0.76636227E+03</pdfrwt>
<totfact> 0.13888737E+01</totfact>
</mgrwt>
</event>
<event>
 4    1  0.2514307E-008  0.8141362E+03  0.7818608E-02  0.9681025E-01
          1   -1    0    0  501    0  0.00000000000E+00  0.00000000000E+00  0.40044315520E+03  0.40044315524E+03  0.50400000000E-02 0. -1.
         -1   -1    0    0    0  501 -0.00000000000E+00 -0.00000000000E+00 -0.12828664911E+04  0.12828664911E+04  0.50400000000E-02 0.  1.
    8880023    1    1    2    0    0 -0.13493520944E+03 -0.45912968936E+03 -0.85433779658E+03  0.11801317127E+04  0.65864270000E+03 0.  1.
    8880022    1    1    2    0    0  0.13493520944E+03  0.45912968936E+03 -0.28085539349E+02  0.50317793368E+03  0.15294330000E+03 0.  0.
<mgrwt>
<rscale>  0 0.72157888E+03</rscale>
<asrwt>0</asrwt>
<pdfrwt beam="1">  1        1 0.61606640E-01 0.81413622E+03</pdfrwt>
<pdfrwt beam="2">  1       -1 0.19736407E+00 0.81413622E+03</pdfrwt>
<totfact> 0.96265844E+00</totfact>
</mgrwt>
</event>
<event>
 4    1  0.2514307E-008  0.1090066E+04  0.7818608E-02  0.9272197E-01
         -1   -1    0    0    0  501 -0.00000000000E+00  0.00000000000E+00  0.89753783854E+03  0.89753783855E+03  0.50400000000E-02 0.  1.
          1   -1    0    0  501    0  0.00000000000E+00 -0.00000000000E+00 -0.18640010635E+04  0.18640010635E+04  0.50400000000E-02 0. -1.
    8880023    1    1    2    0    0  0.86840468182E+03  0.17536912047E+02  0.37789116175E+03  0.11537097430E+04  0.65864270000E+03 0.  0.
    8880022    1    1    2    0    0 -0.86840468182E+03 -0.17536912047E+02 -0.13443543867E+04  0.16078291591E+04  0.15294330000E+03 0.  0.
<mgrwt>
<rscale>  0 0.10338320E+04</rscale>
<asrwt>0</asrwt>
<pdfrwt beam="1">  1        1 0.28676939E+00 0.10900663E+04</pdfrwt>
<pdfrwt beam="2">  1       -1 0.13808274E+00 0.10900663E+04</pdfrwt>
<totfact> 0.15960821E+00</totfact>
</mgrwt>
</event>
<event>
 4    1  0.2514307E-008  0.1372196E+04  0.7818608E-02  0.9005594E-01
         -1   -1    0    0    0  501 -0.00000000000E+00  0.00000000000E+00  0.17181982682E+04  0.17181982682E+04  0.50400000000E-02 0.  1.
          1   -1    0    0  501    0  0.00000000000E+00 -0.00000000000E+00 -0.13456888151E+04  0.13456888151E+04  0.50400000000E-02 0. -1.
    8880023    1    1    2    0    0  0.28124983670E+03  0.11704746195E+04  0.99986927379E+03  0.16978401210E+04  0.65864270000E+03 0.  0.
    8880022    1    1    2    0    0 -0.28124983670E+03 -0.11704746195E+04 -0.62735982071E+03  0.13660469623E+04  0.15294330000E+03 0.  0.
<mgrwt>
<rscale>  0 0.13306665E+04</rscale>
<asrwt>0</asrwt>
<pdfrwt beam="1">  1        1 0.20702905E+00 0.13721962E+04</pdfrwt>
<pdfrwt beam="2">  1       -1 0.26433820E+00 0.13721962E+04</pdfrwt>
<totfact> 0.45335638E-01</totfact>
</mgrwt>
</event>
<event>
 4    1  0.2514307E-008  0.8621926E+03  0.7818608E-02  0.9589675E-01
          1   -1    0    0  501    0  0.00000000000E+00  0.00000000000E+00  0.34570064380E+04  0.34570064380E+04  0.50400000000E-02 0. -1.
         -1   -1    0    0    0  501 -0.00000000000E+00 -0.00000000000E+00 -0.46418993999E+03  0.46418994002E+03  0.50400000000E-02 0.  1.
    8880023    1    1    2    0    0 -0.27226524953E+03  0.48521898912E+03 -0.11197801900E+02  0.86226529011E+03  0.65864270000E+03 0.  1.
    8880022    1    1    2    0    0  0.27226524953E+03 -0.48521898912E+03  0.30040142999E+04  0.30589310879E+04  0.15294330000E+03 0.  0.
<mgrwt>
<rscale>  0 0.77983336E+03</rscale>
<asrwt>0</asrwt>
<pdfrwt beam="1">  1        1 0.53184714E+00 0.86219258E+03</pdfrwt>
<pdfrwt beam="2">  1       -1 0.71413837E-01 0.86219258E+03</pdfrwt>
<totfact> 0.57033485E-01</totfact>
</mgrwt>
</event>
<event>
 4    1  0.2514307E-008  0.1249542E+04  0.7818608E-02  0.9110406E-01
          1   -1    0    0  501    0  0.00000000000E+00  0.00000000000E+00  0.16541062249E+04  0.16541062249E+04  0.50400000000E-02 0. -1.
         -1   -1    0    0    0  501 -0.00000000000E+00 -0.00000000000E+00 -0.96179851353E+03  0.96179851354E+03  0.50400000000E-02 0.  1.
    8880023    1    1    2    0    0 -0.10609363966E+04  0.44261049344E+02 -0.14100027483E+03  0.12574722112E+04  0.65864270000E+03 0.  1.
    8880022    1    1    2    0    0  0.10609363966E+04 -0.44261049344E+02  0.83330798620E+03  0.13584325272E+04  0.15294330000E+03 0.  0.
<mgrwt>
<rscale>  0 0.12028032E+04</rscale>
<asrwt>0</asrwt>
<pdfrwt beam="1">  1        1 0.25447788E+00 0.12495420E+04</pdfrwt>
<pdfrwt beam="2">  1       -1 0.14796900E+00 0.12495420E+04</pdfrwt>
<totfact> 0.18094604E+00</totfact>
</mgrwt>
</event>
<event>
 4    1  0.2514307E-008  0.1225273E+04  0.7818608E-02  0.9132939E-01
         -1   -1    0    0    0  501 -0.00000000000E+00  0.00000000000E+00  0.38240293065E+03  0.38240293068E+03  0.50400000000E-02 0.  1.
          1   -1    0    0  501    0  0.00000000000E+00 -0.00000000000E+00 -0.40035834801E+04  0.40035834801E+04  0.50400000000E-02 0. -1.
    8880023    1    1    2    0    0 -0.19207728601E+03  0.10151792507E+04 -0.10604529583E+04  0.16204484805E+04  0.65864270000E+03 0.  1.
    8880022    1    1    2    0    0  0.19207728601E+03 -0.10151792507E+04 -0.25607275911E+04  0.27655379303E+04  0.15294330000E+03 0.  0.
<mgrwt>
<rscale>  0 0.11773250E+04</rscale>
<asrwt>0</asrwt>
<pdfrwt beam="1">  1        1 0.61593589E+00 0.12252725E+04</pdfrwt>
<pdfrwt beam="2">  1       -1 0.58831223E-01 0.12252725E+04</pdfrwt>
<totfact> 0.28310308E-01</totfact>
</mgrwt>
</event>
<event>
 4    1  0.2514307E-008  0.7423556E+03  0.7818608E-02  0.9853138E-01
         -1   -1    0    0    0  501 -0.00000000000E+00  0.00000000000E+00  0.13760098454E+03  0.13760098464E+03  0.50400000000E-02 0.  1.
          1   -1    0    0  501    0  0.00000000000E+00 -0.00000000000E+00 -0.23422142818E+04  0.23422142818E+04  0.50400000000E-02 0. -1.
    8880023    1    1    2    0    0  0.77548983034E+02  0.33356817679E+03 -0.12451918797E+04  0.14496877584E+04  0.65864270000E+03 0.  1.
    8880022    1    1    2    0    0 -0.77548983034E+02 -0.33356817679E+03 -0.95942141751E+03  0.10301275080E+04  0.15294330000E+03 0.  0.
<mgrwt>
<rscale>  0 0.62587183E+03</rscale>
<asrwt>0</asrwt>
<pdfrwt beam="1">  1        1 0.36034063E+00 0.74235556E+03</pdfrwt>
<pdfrwt beam="2">  1       -1 0.21169384E-01 0.74235556E+03</pdfrwt>
<totfact> 0.33738322E+01</totfact>
</mgrwt>
</event>
<event>
 4    1  0.2514307E-008  0.6675185E+03  0.7818608E-02  0.1017508E+00
         -1   -1    0    0    0  501 -0.00000000000E+00  0.00000000000E+00  0.44553983385E+03  0.44553983388E+03  0.50400000000E-02 0.  1.
          1   -1    0    0  501    0  0.00000000000E+00 -0.00000000000E+00 -0.10068112544E+04  0.10068112544E+04  0.50400000000E-02 0. -1.
    8880023    1    1    2    0    0  0.10561752555E+02  0.10797749986E+03  0.17704180318E+03  0.69059734826E+03  0.65864270000E+03 0.  1.
    8880022    1    1    2    0    0 -0.10561752555E+02 -0.10797749986E+03 -0.73831322368E+03  0.76175373998E+03  0.15294330000E+03 0.  0.
<mgrwt>
<rscale>  0 0.48596746E+03</rscale>
<asrwt>0</asrwt>
<pdfrwt beam="1">  1        1 0.15489404E+00 0.66751846E+03</pdfrwt>
<pdfrwt beam="2">  1       -1 0.68544590E-01 0.66751846E+03</pdfrwt>
<totfact> 0.33368034E+01</totfact>
</mgrwt>
</event>
<event>
 4    1  0.2514307E-008  0.8016687E+03  0.7818608E-02  0.9707199E-01
         -1   -1    0    0    0  501 -0.00000000000E+00  0.00000000000E+00  0.18877123032E+04  0.18877123032E+04  0.50400000000E-02 0.  1.
          1   -1    0    0  501    0  0.00000000000E+00 -0.00000000000E+00 -0.37158874381E+03  0.37158874385E+03  0.50400000000E-02 0. -1.
    8880023    1    1    2    0    0 -0.45350358205E+03 -0.56542428409E+02  0.15813817689E+04  0.17729751973E+04  0.65864270000E+03 0.  1.
    8880022    1    1    2    0    0  0.45350358205E+03  0.56542428409E+02 -0.65258209527E+02  0.48632584968E+03  0.15294330000E+03 0.  0.
<mgrwt>
<rscale>  0 0.70589752E+03</rscale>
<asrwt>0</asrwt>
<pdfrwt beam="1">  1        1 0.57167498E-01 0.80166873E+03</pdfrwt>
<pdfrwt beam="2">  1       -1 0.29041728E+00 0.80166873E+03</pdfrwt>
<totfact> 0.26225428E+00</totfact>
</mgrwt>
</event>
<event>
 4    1  0.2514307E-008  0.6801608E+03  0.7818608E-02  0.1009233E+00
          1   -1    0    0  501    0  0.00000000000E+00  0.00000000000E+00  0.59148927611E+03  0.59148927614E+03  0.50400000000E-02 0. -1.
         -1   -1    0    0    0  501 -0.00000000000E+00 -0.00000000000E+00 -0.11166543543E+04  0.11166543543E+04  0.50400000000E-02 0.  1.
    8880023    1    1    2    0    0 -0.14359509680E+03 -0.90492533934E+02 -0.98363924895E+03  0.11958949907E+04  0.65864270000E+03 0.  0.
    8880022    1    1    2    0    0  0.14359509680E+03  0.90492533934E+02  0.45847417081E+03  0.51224863967E+03  0.15294330000E+03 0.  0.
<mgrwt>
<rscale>  0 0.51780662E+03</rscale>
<asrwt>0</asrwt>
<pdfrwt beam="1">  1        1 0.90998351E-01 0.68016076E+03</pdfrwt>
<pdfrwt beam="2">  1       -1 0.17179298E+00 0.68016076E+03</pdfrwt>
<totfact> 0.86938980E+00</totfact>
</mgrwt>
</event>
<event>
 4    1  0.2514307E-008  0.1764227E+04  0.7818608E-02  0.8742587E-01
          1   -1    0    0  501    0  0.00000000000E+00  0.00000000000E+00  0.22323497685E+04  0.22323497685E+04  0.50400000000E-02 0. -1.
         -1   -1    0    0    0  501 -0.00000000000E+00 -0.00000000000E+00 -0.13207470376E+04  0.13207470376E+04  0.50400000000E-02 0.  1.
    8880023    1    1    2    0    0  0.12865896680E+04  0.10116200211E+04  0.25303737037E+03  0.17822811670E+04  0.65864270000E+03 0.  0.
    8880022    1    1    2    0    0 -0.12865896680E+04 -0.10116200211E+04  0.65856536051E+03  0.17708156392E+04  0.15294330000E+03 0.  0.
<mgrwt>
<rscale>  0 0.17333178E+04</rscale>
<asrwt>0</asrwt>
<pdfrwt beam="1">  1        1 0.34343843E+00 0.17642274E+04</pdfrwt>
<pdfrwt beam="2">  1       -1 0.20319185E+00 0.17642274E+04</pdfrwt>
<totfact> 0.27212953E-01</totfact>
</mgrwt>
</event>
<event>
 4    1  0.2514307E-008  0.1064790E+04  0.7818608E-02  0.9301309E-01
          1   -1    0    0  501    0  0.00000000000E+00  0.00000000000E+00  0.23069197454E+04  0.23069197454E+04  0.50400000000E-02 0. -1.
         -1   -1    0    0    0  501 -0.00000000000E+00 -0.00000000000E+00 -0.58668681252E+03  0.58668681254E+03  0.50400000000E-02 0.  1.
    8880023    1    1    2    0    0  0.74879125956E+03 -0.37320148607E+03  0.10731319746E+03  0.10701841095E+04  0.65864270000E+03 0.  0.
    8880022    1    1    2    0    0 -0.74879125956E+03  0.37320148607E+03  0.16129197354E+04  0.18234224484E+04  0.15294330000E+03 0.  0.
<mgrwt>
<rscale>  0 0.10066239E+04</rscale>
<asrwt>0</asrwt>
<pdfrwt beam="1">  1        1 0.35491072E+00 0.10647901E+04</pdfrwt>
<pdfrwt beam="2">  1       -1 0.90259512E-01 0.10647901E+04</pdfrwt>
<totfact> 0.22237594E+00</totfact>
</mgrwt>
</event>
<event>
 4    1  0.2514307E-008  0.7113785E+03  0.7818608E-02  0.9952917E-01
          1   -1    0    0  501    0  0.00000000000E+00  0.00000000000E+00  0.67879226649E+03  0.67879226651E+03  0.50400000000E-02 0. -1.
         -1   -1    0    0    0  501 -0.00000000000E+00 -0.00000000000E+00 -0.14338455918E+04  0.14338455918E+04  0.50400000000E-02 0.  1.
    8880023    1    1    2    0    0  0.21348944630E+03  0.16331392649E+03 -0.13023706650E+04  0.14839908145E+04  0.65864270000E+03 0.  1.
    8880022    1    1    2    0    0 -0.21348944630E+03 -0.16331392649E+03  0.54731733972E+03  0.62864704377E+03  0.15294330000E+03 0.  0.
<mgrwt>
<rscale>  0 0.57763830E+03</rscale>
<asrwt>0</asrwt>
<pdfrwt beam="1">  1        1 0.10442958E+00 0.71137851E+03</pdfrwt>
<pdfrwt beam="2">  1       -1 0.22059163E+00 0.71137851E+03</pdfrwt>
<totfact> 0.32589304E+00</totfact>
</mgrwt>
</event>
<event>
 4    1  0.2514307E-008  0.9084888E+03  0.7818608E-02  0.9512539E-01
         -1   -1    0    0    0  501 -0.00000000000E+00  0.00000000000E+00  0.44179368136E+03  0.44179368139E+03  0.50400000000E-02 0.  1.
          1   -1    0    0  501    0  0.00000000000E+00 -0.00000000000E+00 -0.15353280255E+04  0.15353280256E+04  0.50400000000E-02 0. -1.
    8880023    1    1    2    0    0 -0.39655172594E+03  0.48403348751E+03 -0.30367082072E+03  0.95789762605E+03  0.65864270000E+03 0.  1.
    8880022    1    1    2    0    0  0.39655172594E+03 -0.48403348751E+03 -0.78986352346E+03  0.10192240809E+04  0.15294330000E+03 0.  0.
<mgrwt>
<rscale>  0 0.83365618E+03</rscale>
<asrwt>0</asrwt>
<pdfrwt beam="1">  1        1 0.23620431E+00 0.90848880E+03</pdfrwt>
<pdfrwt beam="2">  1       -1 0.67968260E-01 0.90848880E+03</pdfrwt>
<totfact> 0.13773072E+01</totfact>
</mgrwt>
</event>
<event>
 4    1  0.2514307E-008  0.9500433E+03  0.7818608E-02  0.9450052E-01
         -1   -1    0    0    0  501 -0.00000000000E+00  0.00000000000E+00  0.90433494115E+03  0.90433494116E+03  0.50400000000E-02 0.  1.
          1   -1    0    0  501    0  0.00000000000E+00 -0.00000000000E+00 -0.14104850957E+04  0.14104850957E+04  0.50400000000E-02 0. -1.
    8880023    1    1    2    0    0 -0.73280212074E+02 -0.68073638045E+03  0.51134596734E+03  0.10789146925E+04  0.65864270000E+03 0.  1.
    8880022    1    1    2    0    0  0.73280212074E+02  0.68073638045E+03 -0.10174961219E+04  0.12359053444E+04  0.15294330000E+03 0.  0.
<mgrwt>
<rscale>  0 0.88068628E+03</rscale>
<asrwt>0</asrwt>
<pdfrwt beam="1">  1        1 0.21699771E+00 0.95004327E+03</pdfrwt>
<pdfrwt beam="2">  1       -1 0.13912845E+00 0.95004327E+03</pdfrwt>
<totfact> 0.32549108E+00</totfact>
</mgrwt>
</event>
<event>
 4    1  0.2673865E-008  0.9916793E+03  0.7818608E-02  0.9392526E-01
         -1   -1    0    0    0  501 -0.00000000000E+00  0.00000000000E+00  0.16229088862E+04  0.16229088863E+04  0.50400000000E-02 0.  1.
          1   -1    0    0  501    0  0.00000000000E+00 -0.00000000000E+00 -0.19115761952E+04  0.19115761952E+04  0.50400000000E-02 0. -1.
    8880023    1    1    2    0    0 -0.30928031441E+03 -0.67376795372E+03  0.13816174486E+04  0.17006747334E+04  0.65864270000E+03 0.  0.
    8880022    1    1    2    0    0  0.30928031441E+03  0.67376795372E+03 -0.16702847575E+04  0.18338103480E+04  0.15294330000E+03 0.  0.
<mgrwt>
<rscale>  0 0.92693361E+03</rscale>
<asrwt>0</asrwt>
<pdfrwt beam="1">  1        1 0.29408865E+00 0.99167927E+03</pdfrwt>
<pdfrwt beam="2">  1       -1 0.24967829E+00 0.99167927E+03</pdfrwt>
<totfact> 0.24382506E-01</totfact>
</mgrwt>
</event>
<event>
 4    1  0.2514307E-008  0.1099220E+04  0.7818608E-02  0.9261925E-01
          1   -1    0    0  501    0  0.00000000000E+00  0.00000000000E+00  0.36523987555E+04  0.36523987556E+04  0.50400000000E-02 0. -1.
         -1   -1    0    0    0  501 -0.00000000000E+00 -0.00000000000E+00 -0.49440363538E+03  0.49440363540E+03  0.50400000000E-02 0.  1.
    8880023    1    1    2    0    0 -0.25930018778E+03 -0.84097465750E+03  0.28133229156E+03  0.11346510593E+04  0.65864270000E+03 0.  0.
    8880022    1    1    2    0    0  0.25930018778E+03  0.84097465750E+03  0.28766628286E+04  0.30121513316E+04  0.15294330000E+03 0.  0.
<mgrwt>
<rscale>  0 0.10436499E+04</rscale>
<asrwt>0</asrwt>
<pdfrwt beam="1">  1        1 0.56190752E+00 0.10992203E+04</pdfrwt>
<pdfrwt beam="2">  1       -1 0.76062095E-01 0.10992203E+04</pdfrwt>
<totfact> 0.33601650E-01</totfact>
</mgrwt>
</event>
<event>
 4    1  0.2514307E-008  0.6956279E+03  0.7818608E-02  0.1001585E+00
          1   -1    0    0  501    0  0.00000000000E+00  0.00000000000E+00  0.28812629228E+04  0.28812629228E+04  0.50400000000E-02 0. -1.
         -1   -1    0    0    0  501 -0.00000000000E+00 -0.00000000000E+00 -0.89014330911E+03  0.89014330912E+03  0.50400000000E-02 0.  1.
    8880023    1    1    2    0    0  0.20959909462E+03  0.78461782085E+02 -0.74651521481E+03  0.10203838513E+04  0.65864270000E+03 0.  1.
    8880022    1    1    2    0    0 -0.20959909462E+03 -0.78461782085E+02  0.27376348285E+04  0.27510223806E+04  0.15294330000E+03 0.  0.
<mgrwt>
<rscale>  0 0.54960880E+03</rscale>
<asrwt>0</asrwt>
<pdfrwt beam="1">  1        1 0.44327123E+00 0.69562795E+03</pdfrwt>
<pdfrwt beam="2">  1       -1 0.13694512E+00 0.69562795E+03</pdfrwt>
<totfact> 0.35495721E-01</totfact>
</mgrwt>
</event>
<event>
 4    1  0.2514307E-008  0.9130481E+03  0.7818608E-02  0.9505402E-01
         -1   -1    0    0    0  501 -0.00000000000E+00  0.00000000000E+00  0.87590391369E+03  0.87590391371E+03  0.50400000000E-02 0.  1.
          1   -1    0    0  501    0  0.00000000000E+00 -0.00000000000E+00 -0.18117059553E+04  0.18117059553E+04  0.50400000000E-02 0. -1.
    8880023    1    1    2    0    0  0.63079361849E+03  0.44113474572E+02  0.54980099849E+03  0.10658038900E+04  0.65864270000E+03 0.  1.
    8880022    1    1    2    0    0 -0.63079361849E+03 -0.44113474572E+02 -0.14856030401E+04  0.16218059790E+04  0.15294330000E+03 0.  0.
<mgrwt>
<rscale>  0 0.83886746E+03</rscale>
<asrwt>0</asrwt>
<pdfrwt beam="1">  1        1 0.27872399E+00 0.91304808E+03</pdfrwt>
<pdfrwt beam="2">  1       -1 0.13475445E+00 0.91304808E+03</pdfrwt>
<totfact> 0.18917980E+00</totfact>
</mgrwt>
</event>
<event>
 4    1  0.2514307E-008  0.1480174E+04  0.7818608E-02  0.8923764E-01
         -1   -1    0    0    0  501 -0.00000000000E+00  0.00000000000E+00  0.97488151298E+03  0.97488151300E+03  0.50400000000E-02 0.  1.
          1   -1    0    0  501    0  0.00000000000E+00 -0.00000000000E+00 -0.21913030756E+04  0.21913030756E+04  0.50400000000E-02 0. -1.
    8880023    1    1    2    0    0  0.57603458293E+03  0.11938542046E+04 -0.21033020260E+03  0.14950427094E+04  0.65864270000E+03 0.  0.
    8880022    1    1    2    0    0 -0.57603458293E+03 -0.11938542046E+04 -0.10060913600E+04  0.16711418791E+04  0.15294330000E+03 0.  0.
<mgrwt>
<rscale>  0 0.14422884E+04</rscale>
<asrwt>0</asrwt>
<pdfrwt beam="1">  1        1 0.33712355E+00 0.14801736E+04</pdfrwt>
<pdfrwt beam="2">  1       -1 0.14998177E+00 0.14801736E+04</pdfrwt>
<totfact> 0.73354365E-01</totfact>
</mgrwt>
</event>
<event>
 4    1  0.2514307E-008  0.8934091E+03  0.7818608E-02  0.9536696E-01
         -1   -1    0    0    0  501 -0.00000000000E+00  0.00000000000E+00  0.26976930717E+04  0.26976930717E+04  0.50400000000E-02 0.  1.
          1   -1    0    0  501    0  0.00000000000E+00 -0.00000000000E+00 -0.30431859839E+03  0.30431859843E+03  0.50400000000E-02 0. -1.
    8880023    1    1    2    0    0 -0.54445302512E+01  0.60360581492E+03  0.21591944738E+04  0.23367286116E+04  0.65864270000E+03 0.  0.
    8880022    1    1    2    0    0  0.54445302512E+01 -0.60360581492E+03  0.23417999955E+03  0.66528305849E+03  0.15294330000E+03 0.  0.
<mgrwt>
<rscale>  0 0.81631605E+03</rscale>
<asrwt>0</asrwt>
<pdfrwt beam="1">  1        1 0.46818245E-01 0.89340911E+03</pdfrwt>
<pdfrwt beam="2">  1       -1 0.41502971E+00 0.89340911E+03</pdfrwt>
<totfact> 0.50672112E-01</totfact>
</mgrwt>
</event>
<event>
 4    1  0.2514307E-008  0.6925731E+03  0.7818608E-02  0.1002953E+00
         -1   -1    0    0    0  501 -0.00000000000E+00  0.00000000000E+00  0.20930605834E+03  0.20930605840E+03  0.50400000000E-02 0.  1.
          1   -1    0    0  501    0  0.00000000000E+00 -0.00000000000E+00 -0.18364163338E+04  0.18364163338E+04  0.50400000000E-02 0. -1.
    8880023    1    1    2    0    0 -0.18014686812E+03 -0.11573394425E+03 -0.41936442162E+03  0.80964434434E+03  0.65864270000E+03 0.  1.
    8880022    1    1    2    0    0  0.18014686812E+03  0.11573394425E+03 -0.12077458538E+04  0.12360780479E+04  0.15294330000E+03 0.  0.
<mgrwt>
<rscale>  0 0.54374210E+03</rscale>
<asrwt>0</asrwt>
<pdfrwt beam="1">  1        1 0.28252558E+00 0.69257306E+03</pdfrwt>
<pdfrwt beam="2">  1       -1 0.32200933E-01 0.69257306E+03</pdfrwt>
<totfact> 0.36098435E+01</totfact>
</mgrwt>
</event>
<event>
 4    1  0.2514307E-008  0.8536870E+03  0.7818608E-02  0.9604893E-01
          1   -1    0    0  501    0  0.00000000000E+00  0.00000000000E+00  0.27939634529E+04  0.27939634529E+04  0.50400000000E-02 0. -1.
         -1   -1    0    0    0  501 -0.00000000000E+00 -0.00000000000E+00 -0.25620373736E+03  0.25620373741E+03  0.50400000000E-02 0.  1.
    8880023    1    1    2    0    0  0.20992552140E+03  0.50090176037E+03  0.63072315974E+03  0.10614109518E+04  0.65864270000E+03 0.  1.
    8880022    1    1    2    0    0 -0.20992552140E+03 -0.50090176037E+03  0.19070365558E+04  0.19887562385E+04  0.15294330000E+03 0.  0.
<mgrwt>
<rscale>  0 0.76973160E+03</rscale>
<asrwt>0</asrwt>
<pdfrwt beam="1">  1        1 0.42984055E+00 0.85368701E+03</pdfrwt>
<pdfrwt beam="2">  1       -1 0.39415958E-01 0.85368701E+03</pdfrwt>
<totfact> 0.55017799E+00</totfact>
</mgrwt>
</event>
<event>
 4    1  0.2514307E-008  0.1345345E+04  0.7818608E-02  0.9027359E-01
         -1   -1    0    0    0  501 -0.00000000000E+00  0.00000000000E+00  0.15978629012E+04  0.15978629012E+04  0.50400000000E-02 0.  1.
          1   -1    0    0  501    0  0.00000000000E+00 -0.00000000000E+00 -0.13301672733E+04  0.13301672733E+04  0.50400000000E-02 0. -1.
    8880023    1    1    2    0    0 -0.11593493218E+04  0.17902882901E+03  0.86836537715E+03  0.16012528864E+04  0.65864270000E+03 0.  1.
    8880022    1    1    2    0    0  0.11593493218E+04 -0.17902882901E+03 -0.60066974931E+03  0.13267772881E+04  0.15294330000E+03 0.  0.
<mgrwt>
<rscale>  0 0.13027861E+04</rscale>
<asrwt>0</asrwt>
<pdfrwt beam="1">  1        1 0.20464112E+00 0.13453447E+04</pdfrwt>
<pdfrwt beam="2">  1       -1 0.24582506E+00 0.13453447E+04</pdfrwt>
<totfact> 0.61581417E-01</totfact>
</mgrwt>
</event>
<event>
 4    1  0.2514307E-008  0.2074188E+04  0.7818608E-02  0.8584341E-01
          1   -1    0    0  501    0  0.00000000000E+00  0.00000000000E+00  0.14658363420E+04  0.14658363420E+04  0.50400000000E-02 0. -1.
         -1   -1    0    0    0  501 -0.00000000000E+00 -0.00000000000E+00 -0.35137182464E+04  0.35137182464E+04  0.50400000000E-02 0.  1.
    8880023    1    1    2    0    0 -0.58026516351E+03  0.18792915147E+04  0.82781990759E+02  0.20758389440E+04  0.65864270000E+03 0.  0.
    8880022    1    1    2    0    0  0.58026516351E+03 -0.18792915147E+04 -0.21306638951E+04  0.29037156445E+04  0.15294330000E+03 0.  0.
<mgrwt>
<rscale>  0 0.20483556E+04</rscale>
<asrwt>0</asrwt>
<pdfrwt beam="1">  1        1 0.22551328E+00 0.20741877E+04</pdfrwt>
<pdfrwt beam="2">  1       -1 0.54057204E+00 0.20741877E+04</pdfrwt>
<totfact> 0.50918831E-03</totfact>
</mgrwt>
</event>
<event>
 4    1  0.2514307E-008  0.6612582E+03  0.7818608E-02  0.1022903E+00
         -1   -1    0    0    0  501 -0.00000000000E+00  0.00000000000E+00  0.57543119195E+03  0.57543119197E+03  0.50400000000E-02 0.  1.
          1   -1    0    0  501    0  0.00000000000E+00 -0.00000000000E+00 -0.23825859315E+04  0.23825859315E+04  0.50400000000E-02 0. -1.
    8880023    1    1    2    0    0  0.91932397387E+01 -0.58032045442E+02  0.38138107508E+03  0.76335703615E+03  0.65864270000E+03 0.  1.
    8880022    1    1    2    0    0 -0.91932397387E+01  0.58032045442E+02 -0.21885358146E+04  0.21946600873E+04  0.15294330000E+03 0.  0.
<mgrwt>
<rscale>  0 0.46653474E+03</rscale>
<asrwt>0</asrwt>
<pdfrwt beam="1">  1        1 0.36655168E+00 0.66125823E+03</pdfrwt>
<pdfrwt beam="2">  1       -1 0.88527877E-01 0.66125823E+03</pdfrwt>
<totfact> 0.22129825E+00</totfact>
</mgrwt>
</event>
<event>
 4    1  0.2514307E-008  0.1250793E+04  0.7818608E-02  0.9109263E-01
         -1   -1    0    0    0  501 -0.00000000000E+00  0.00000000000E+00  0.93296242196E+03  0.93296242197E+03  0.50400000000E-02 0.  1.
          1   -1    0    0  501    0  0.00000000000E+00 -0.00000000000E+00 -0.23318594390E+04  0.23318594391E+04  0.50400000000E-02 0. -1.
    8880023    1    1    2    0    0 -0.35097725268E+03 -0.10037368213E+04  0.27043430297E+03  0.12796943217E+04  0.65864270000E+03 0.  0.
    8880022    1    1    2    0    0  0.35097725268E+03  0.10037368213E+04 -0.16693313201E+04  0.19851275394E+04  0.15294330000E+03 0.  0.
<mgrwt>
<rscale>  0 0.12041145E+04</rscale>
<asrwt>0</asrwt>
<pdfrwt beam="1">  1        1 0.35874760E+00 0.12507929E+04</pdfrwt>
<pdfrwt beam="2">  1       -1 0.14353268E+00 0.12507929E+04</pdfrwt>
<totfact> 0.68003792E-01</totfact>
</mgrwt>
</event>
<event>
 4    1  0.2514307E-008  0.1144220E+04  0.7818608E-02  0.9213349E-01
          1   -1    0    0  501    0  0.00000000000E+00  0.00000000000E+00  0.25055396069E+04  0.25055396069E+04  0.50400000000E-02 0. -1.
         -1   -1    0    0    0  501 -0.00000000000E+00 -0.00000000000E+00 -0.75781280383E+03  0.75781280384E+03  0.50400000000E-02 0.  1.
    8880023    1    1    2    0    0  0.73184453304E+03  0.58295223599E+03 -0.13820110591E+03  0.11525361087E+04  0.65864270000E+03 0.  1.
    8880022    1    1    2    0    0 -0.73184453304E+03 -0.58295223599E+03  0.18859279090E+04  0.21108163020E+04  0.15294330000E+03 0.  0.
<mgrwt>
<rscale>  0 0.10916700E+04</rscale>
<asrwt>0</asrwt>
<pdfrwt beam="1">  1        1 0.38546763E+00 0.11442202E+04</pdfrwt>
<pdfrwt beam="2">  1       -1 0.11658659E+00 0.11442202E+04</pdfrwt>
<totfact> 0.88871560E-01</totfact>
</mgrwt>
</event>
<event>
 4    1  0.2514307E-008  0.6987918E+03  0.7818608E-02  0.1000225E+00
          1   -1    0    0  501    0  0.00000000000E+00  0.00000000000E+00  0.43135081607E+03  0.43135081610E+03  0.50400000000E-02 0. -1.
         -1   -1    0    0    0  501 -0.00000000000E+00 -0.00000000000E+00 -0.10460938010E+04  0.10460938010E+04  0.50400000000E-02 0.  1.
    8880023    1    1    2    0    0  0.19755154173E+03 -0.12439127022E+03 -0.85846172945E+03  0.11069175881E+04  0.65864270000E+03 0.  0.
    8880022    1    1    2    0    0 -0.19755154173E+03  0.12439127022E+03  0.24371874452E+03  0.37052702896E+03  0.15294330000E+03 0.  0.
<mgrwt>
<rscale>  0 0.55551666E+03</rscale>
<asrwt>0</asrwt>
<pdfrwt beam="1">  1        1 0.66361664E-01 0.69879182E+03</pdfrwt>
<pdfrwt beam="2">  1       -1 0.16093751E+00 0.69879182E+03</pdfrwt>
<totfact> 0.16109288E+01</totfact>
</mgrwt>
</event>
<event>
 4    1  0.2514307E-008  0.7743613E+03  0.7818608E-02  0.9769253E-01
          1   -1    0    0  501    0  0.00000000000E+00  0.00000000000E+00  0.10517247744E+04  0.10517247744E+04  0.50400000000E-02 0. -1.
         -1   -1    0    0    0  501 -0.00000000000E+00 -0.00000000000E+00 -0.78160414058E+03  0.78160414060E+03  0.50400000000E-02 0.  1.
    8880023    1    1    2    0    0 -0.40718774153E+03 -0.48301426524E+01 -0.51904087939E+03  0.93222252058E+03  0.65864270000E+03 0.  1.
    8880022    1    1    2    0    0  0.40718774153E+03  0.48301426524E+01  0.78916151316E+03  0.90110639439E+03  0.15294330000E+03 0.  0.
<mgrwt>
<rscale>  0 0.67039026E+03</rscale>
<asrwt>0</asrwt>
<pdfrwt beam="1">  1        1 0.16180381E+00 0.77436128E+03</pdfrwt>
<pdfrwt beam="2">  1       -1 0.12024679E+00 0.77436128E+03</pdfrwt>
<totfact> 0.87554079E+00</totfact>
</mgrwt>
</event>
<event>
 4    1  0.2514307E-008  0.8359977E+03  0.7818608E-02  0.9637773E-01
         -1   -1    0    0    0  501 -0.00000000000E+00  0.00000000000E+00  0.46905595409E+03  0.46905595412E+03  0.50400000000E-02 0.  1.
          1   -1    0    0  501    0  0.00000000000E+00 -0.00000000000E+00 -0.19431944893E+04  0.19431944893E+04  0.50400000000E-02 0. -1.
    8880023    1    1    2    0    0  0.34730102265E+03  0.38008424220E+03  0.77473257758E+01  0.83603364694E+03  0.65864270000E+03 0.  1.
    8880022    1    1    2    0    0 -0.34730102265E+03 -0.38008424220E+03 -0.14818858610E+04  0.15762167965E+04  0.15294330000E+03 0.  0.
<mgrwt>
<rscale>  0 0.74845743E+03</rscale>
<asrwt>0</asrwt>
<pdfrwt beam="1">  1        1 0.29895299E+00 0.83599775E+03</pdfrwt>
<pdfrwt beam="2">  1       -1 0.72162455E-01 0.83599775E+03</pdfrwt>
<totfact> 0.65202052E+00</totfact>
</mgrwt>
</event>
<event>
 4    1  0.2514307E-008  0.8661521E+03  0.7818608E-02  0.9582712E-01
          1   -1    0    0  501    0  0.00000000000E+00  0.00000000000E+00  0.13846171535E+04  0.13846171535E+04  0.50400000000E-02 0. -1.
         -1   -1    0    0    0  501 -0.00000000000E+00 -0.00000000000E+00 -0.46105885959E+03  0.46105885961E+03  0.50400000000E-02 0.  1.
    8880023    1    1    2    0    0 -0.47281818503E+03 -0.30471654404E+03  0.15315246499E+03  0.87958802408E+03  0.65864270000E+03 0.  0.
    8880022    1    1    2    0    0  0.47281818503E+03  0.30471654404E+03  0.77040582889E+03  0.96608798901E+03  0.15294330000E+03 0.  0.
<mgrwt>
<rscale>  0 0.78451034E+03</rscale>
<asrwt>0</asrwt>
<pdfrwt beam="1">  1        1 0.21301802E+00 0.86615207E+03</pdfrwt>
<pdfrwt beam="2">  1       -1 0.70932132E-01 0.86615207E+03</pdfrwt>
<totfact> 0.16122074E+01</totfact>
</mgrwt>
</event>
<event>
 4    1  0.2514307E-008  0.1082768E+04  0.7818608E-02  0.9280488E-01
         -1   -1    0    0    0  501 -0.00000000000E+00  0.00000000000E+00  0.21754788684E+04  0.21754788684E+04  0.50400000000E-02 0.  1.
          1   -1    0    0  501    0  0.00000000000E+00 -0.00000000000E+00 -0.74181972310E+03  0.74181972311E+03  0.50400000000E-02 0. -1.
    8880023    1    1    2    0    0  0.78247668190E+03  0.35539706109E+03  0.16903743386E+04  0.20074243298E+04  0.65864270000E+03 0.  1.
    8880022    1    1    2    0    0 -0.78247668190E+03 -0.35539706109E+03 -0.25671519331E+03  0.90987426177E+03  0.15294330000E+03 0.  0.
<mgrwt>
<rscale>  0 0.10259915E+04</rscale>
<asrwt>0</asrwt>
<pdfrwt beam="1">  1        1 0.11412611E+00 0.10827682E+04</pdfrwt>
<pdfrwt beam="2">  1       -1 0.33468905E+00 0.10827682E+04</pdfrwt>
<totfact> 0.49152483E-01</totfact>
</mgrwt>
</event>
<event>
 4    1  0.2514307E-008  0.1434244E+04  0.7818608E-02  0.8957521E-01
          1   -1    0    0  501    0  0.00000000000E+00  0.00000000000E+00  0.22144355059E+04  0.22144355059E+04  0.50400000000E-02 0. -1.
         -1   -1    0    0    0  501 -0.00000000000E+00 -0.00000000000E+00 -0.22059882882E+04  0.22059882883E+04  0.50400000000E-02 0.  1.
    8880023    1    1    2    0    0 -0.10169565075E+04  0.76749289222E+03 -0.17379098717E+04  0.22533057507E+04  0.65864270000E+03 0.  0.
    8880022    1    1    2    0    0  0.10169565075E+04 -0.76749289222E+03  0.17463570893E+04  0.21671180434E+04  0.15294330000E+03 0.  0.
<mgrwt>
<rscale>  0 0.13948967E+04</rscale>
<asrwt>0</asrwt>
<pdfrwt beam="1">  1        1 0.34068239E+00 0.14342441E+04</pdfrwt>
<pdfrwt beam="2">  1       -1 0.33938281E+00 0.14342441E+04</pdfrwt>
<totfact> 0.37066745E-02</totfact>
</mgrwt>
</event>
<event>
 4    1  0.2514307E-008  0.1661255E+04  0.7818608E-02  0.8803436E-01
          1   -1    0    0  501    0  0.00000000000E+00  0.00000000000E+00  0.20103437577E+04  0.20103437577E+04  0.50400000000E-02 0. -1.
         -1   -1    0    0    0  501 -0.00000000000E+00 -0.00000000000E+00 -0.13484047181E+04  0.13484047181E+04  0.50400000000E-02 0.  1.
    8880023    1    1    2    0    0 -0.97394477967E+03 -0.11736217582E+04  0.75160510234E+03  0.18233696557E+04  0.65864270000E+03 0.  0.
    8880022    1    1    2    0    0  0.97394477967E+03  0.11736217582E+04 -0.89666062734E+02  0.15353788200E+04  0.15294330000E+03 0.  0.
<mgrwt>
<rscale>  0 0.16281543E+04</rscale>
<asrwt>0</asrwt>
<pdfrwt beam="1">  1        1 0.30928365E+00 0.16612545E+04</pdfrwt>
<pdfrwt beam="2">  1       -1 0.20744688E+00 0.16612545E+04</pdfrwt>
<totfact> 0.36444413E-01</totfact>
</mgrwt>
</event>
<event>
 4    1  0.2514307E-008  0.8694418E+03  0.7818608E-02  0.9576984E-01
         -1   -1    0    0    0  501 -0.00000000000E+00  0.00000000000E+00  0.71858503184E+03  0.71858503185E+03  0.50400000000E-02 0.  1.
          1   -1    0    0  501    0  0.00000000000E+00 -0.00000000000E+00 -0.22420366356E+04  0.22420366356E+04  0.50400000000E-02 0. -1.
    8880023    1    1    2    0    0 -0.11535491677E+03  0.55570860214E+03  0.39439946761E+03  0.95471459276E+03  0.65864270000E+03 0.  1.
    8880022    1    1    2    0    0  0.11535491677E+03 -0.55570860214E+03 -0.19178510713E+04  0.20059070747E+04  0.15294330000E+03 0.  0.
<mgrwt>
<rscale>  0 0.78838442E+03</rscale>
<asrwt>0</asrwt>
<pdfrwt beam="1">  1        1 0.34492871E+00 0.86944178E+03</pdfrwt>
<pdfrwt beam="2">  1       -1 0.11055154E+00 0.86944178E+03</pdfrwt>
<totfact> 0.15935488E+00</totfact>
</mgrwt>
</event>
<event>
 4    1  0.2514307E-008  0.1047866E+04  0.7818608E-02  0.9321451E-01
          1   -1    0    0  501    0  0.00000000000E+00  0.00000000000E+00  0.90373394249E+03  0.90373394250E+03  0.50400000000E-02 0. -1.
         -1   -1    0    0    0  501 -0.00000000000E+00 -0.00000000000E+00 -0.10394799908E+04  0.10394799908E+04  0.50400000000E-02 0.  1.
    8880023    1    1    2    0    0  0.28782967805E+03  0.76247447247E+03 -0.31630354573E+03  0.10945644723E+04  0.65864270000E+03 0.  1.
    8880022    1    1    2    0    0 -0.28782967805E+03 -0.76247447247E+03  0.18055749744E+03  0.84864946098E+03  0.15294330000E+03 0.  0.
<mgrwt>
<rscale>  0 0.98831805E+03</rscale>
<asrwt>0</asrwt>
<pdfrwt beam="1">  1        1 0.13903599E+00 0.10478661E+04</pdfrwt>
<pdfrwt beam="2">  1       -1 0.15992000E+00 0.10478661E+04</pdfrwt>
<totfact> 0.52737040E+00</totfact>
</mgrwt>
</event>
<event>
 4    1  0.2514307E-008  0.1362957E+04  0.7818608E-02  0.9013014E-01
         -1   -1    0    0    0  501 -0.00000000000E+00  0.00000000000E+00  0.10435473083E+04  0.10435473083E+04  0.50400000000E-02 0.  1.
          1   -1    0    0  501    0  0.00000000000E+00 -0.00000000000E+00 -0.19551151991E+04  0.19551151991E+04  0.50400000000E-02 0. -1.
    8880023    1    1    2    0    0  0.72448159697E+03 -0.94813948626E+03 -0.11367210748E+04  0.17747639499E+04  0.65864270000E+03 0.  0.
    8880022    1    1    2    0    0 -0.72448159697E+03  0.94813948626E+03  0.22515318403E+03  0.12238985575E+04  0.15294330000E+03 0.  0.
<mgrwt>
<rscale>  0 0.13210796E+04</rscale>
<asrwt>0</asrwt>
<pdfrwt beam="1">  1        1 0.30078695E+00 0.13629572E+04</pdfrwt>
<pdfrwt beam="2">  1       -1 0.16054574E+00 0.13629572E+04</pdfrwt>
<totfact> 0.89104667E-01</totfact>
</mgrwt>
</event>
<event>
 4    1  0.2514307E-008  0.1084819E+04  0.7818608E-02  0.9278150E-01
          1   -1    0    0  501    0  0.00000000000E+00  0.00000000000E+00  0.24068782708E+04  0.24068782708E+04  0.50400000000E-02 0. -1.
         -1   -1    0    0    0  501 -0.00000000000E+00 -0.00000000000E+00 -0.49802623674E+03  0.49802623676E+03  0.50400000000E-02 0.  1.
    8880023    1    1    2    0    0  0.85316628545E+03 -0.12299854584E+03  0.39185576498E+03  0.11534220822E+04  0.65864270000E+03 0.  1.
    8880022    1    1    2    0    0 -0.85316628545E+03  0.12299854584E+03  0.15169962691E+04  0.17514824253E+04  0.15294330000E+03 0.  0.
<mgrwt>
<rscale>  0 0.10281956E+04</rscale>
<asrwt>0</asrwt>
<pdfrwt beam="1">  1        1 0.37028897E+00 0.10848187E+04</pdfrwt>
<pdfrwt beam="2">  1       -1 0.76619421E-01 0.10848187E+04</pdfrwt>
<totfact> 0.27013497E+00</totfact>
</mgrwt>
</event>
<event>
 4    1  0.2514307E-008  0.1681046E+04  0.7818608E-02  0.8791358E-01
         -1   -1    0    0    0  501 -0.00000000000E+00  0.00000000000E+00  0.16992563969E+04  0.16992563969E+04  0.50400000000E-02 0.  1.
          1   -1    0    0  501    0  0.00000000000E+00 -0.00000000000E+00 -0.17056679528E+04  0.17056679528E+04  0.50400000000E-02 0. -1.
    8880023    1    1    2    0    0  0.13736918710E+04  0.71068716296E+03  0.52705224437E+03  0.17617320666E+04  0.65864270000E+03 0.  0.
    8880022    1    1    2    0    0 -0.13736918710E+04 -0.71068716296E+03 -0.53346380020E+03  0.16431922831E+04  0.15294330000E+03 0.  0.
<mgrwt>
<rscale>  0 0.16483921E+04</rscale>
<asrwt>0</asrwt>
<pdfrwt beam="1">  1        1 0.26241045E+00 0.16810460E+04</pdfrwt>
<pdfrwt beam="2">  1       -1 0.26142406E+00 0.16810460E+04</pdfrwt>
<totfact> 0.25690239E-01</totfact>
</mgrwt>
</event>
<event>
 4    1  0.2514307E-008  0.6743392E+03  0.7818608E-02  0.1012726E+00
         -1   -1    0    0    0  501 -0.00000000000E+00  0.00000000000E+00  0.71050137728E+03  0.71050137729E+03  0.50400000000E-02 0.  1.
          1   -1    0    0  501    0  0.00000000000E+00 -0.00000000000E+00 -0.90946839057E+03  0.90946839059E+03  0.50400000000E-02 0. -1.
    8880023    1    1    2    0    0 -0.40037685934E+02 -0.13899699183E+03  0.53223156301E+03  0.85907148885E+03  0.65864270000E+03 0.  1.
    8880022    1    1    2    0    0  0.40037685934E+02  0.13899699183E+03 -0.73119857630E+03  0.76089827903E+03  0.15294330000E+03 0.  0.
<mgrwt>
<rscale>  0 0.50405445E+03</rscale>
<asrwt>0</asrwt>
<pdfrwt beam="1">  1        1 0.13991821E+00 0.67433922E+03</pdfrwt>
<pdfrwt beam="2">  1       -1 0.10930790E+00 0.67433922E+03</pdfrwt>
<totfact> 0.14408142E+01</totfact>
</mgrwt>
</event>
<event>
 4    1  0.2514307E-008  0.1082433E+04  0.7818608E-02  0.9280871E-01
         -1   -1    0    0    0  501 -0.00000000000E+00  0.00000000000E+00  0.16571165579E+04  0.16571165579E+04  0.50400000000E-02 0.  1.
          1   -1    0    0  501    0  0.00000000000E+00 -0.00000000000E+00 -0.10236862628E+04  0.10236862628E+04  0.50400000000E-02 0. -1.
    8880023    1    1    2    0    0 -0.84046869359E+03 -0.17737971584E+03 -0.54710583585E+03  0.12128421952E+04  0.65864270000E+03 0. -1.
    8880022    1    1    2    0    0  0.84046869359E+03  0.17737971584E+03  0.11805361309E+04  0.14679606255E+04  0.15294330000E+03 0.  0.
<mgrwt>
<rscale>  0 0.10256311E+04</rscale>
<asrwt>0</asrwt>
<pdfrwt beam="1">  1        1 0.15749020E+00 0.10824331E+04</pdfrwt>
<pdfrwt beam="2">  1       -1 0.25494101E+00 0.10824331E+04</pdfrwt>
<totfact> 0.93600956E-01</totfact>
</mgrwt>
</event>
<event>
 4    1  0.2514307E-008  0.8791041E+03  0.7818608E-02  0.9560445E-01
         -1   -1    0    0    0  501 -0.00000000000E+00  0.00000000000E+00  0.40760956224E+03  0.40760956227E+03  0.50400000000E-02 0.  1.
          1   -1    0    0  501    0  0.00000000000E+00 -0.00000000000E+00 -0.27935963909E+04  0.27935963909E+04  0.50400000000E-02 0. -1.
    8880023    1    1    2    0    0 -0.29221355614E+03  0.50361204971E+03 -0.15783307091E+03  0.89316031234E+03  0.65864270000E+03 0.  1.
    8880022    1    1    2    0    0  0.29221355614E+03 -0.50361204971E+03 -0.22281537577E+04  0.23080456408E+04  0.15294330000E+03 0.  0.
<mgrwt>
<rscale>  0 0.79970459E+03</rscale>
<asrwt>0</asrwt>
<pdfrwt beam="1">  1        1 0.42978405E+00 0.87910413E+03</pdfrwt>
<pdfrwt beam="2">  1       -1 0.62709165E-01 0.87910413E+03</pdfrwt>
<totfact> 0.22676793E+00</totfact>
</mgrwt>
</event>
<event>
 4    1  0.2514307E-008  0.1028965E+04  0.7818608E-02  0.9344607E-01
          1   -1    0    0  501    0  0.00000000000E+00  0.00000000000E+00  0.37287530992E+04  0.37287530992E+04  0.50400000000E-02 0. -1.
         -1   -1    0    0    0  501 -0.00000000000E+00 -0.00000000000E+00 -0.46638367908E+03  0.46638367911E+03  0.50400000000E-02 0.  1.
    8880023    1    1    2    0    0  0.27595469639E+03  0.74081551861E+03  0.22556753060E+03  0.10533990432E+04  0.65864270000E+03 0.  1.
    8880022    1    1    2    0    0 -0.27595469639E+03 -0.74081551861E+03  0.30368018895E+04  0.31417377351E+04  0.15294330000E+03 0.  0.
<mgrwt>
<rscale>  0 0.96778000E+03</rscale>
<asrwt>0</asrwt>
<pdfrwt beam="1">  1        1 0.57365434E+00 0.10289649E+04</pdfrwt>
<pdfrwt beam="2">  1       -1 0.71751333E-01 0.10289649E+04</pdfrwt>
<totfact> 0.33332778E-01</totfact>
</mgrwt>
</event>
<event>
 4    1  0.2514307E-008  0.8776491E+03  0.7818608E-02  0.9562909E-01
          1   -1    0    0  501    0  0.00000000000E+00  0.00000000000E+00  0.34271726480E+04  0.34271726480E+04  0.50400000000E-02 0. -1.
         -1   -1    0    0    0  501 -0.00000000000E+00 -0.00000000000E+00 -0.31498386980E+03  0.31498386984E+03  0.50400000000E-02 0.  1.
    8880023    1    1    2    0    0 -0.27092532555E+03 -0.51289097825E+03  0.40014858708E+03  0.96456559424E+03  0.65864270000E+03 0.  1.
    8880022    1    1    2    0    0  0.27092532555E+03  0.51289097825E+03  0.27120401911E+04  0.27775909236E+04  0.15294330000E+03 0.  0.
<mgrwt>
<rscale>  0 0.79800528E+03</rscale>
<asrwt>0</asrwt>
<pdfrwt beam="1">  1        1 0.52725731E+00 0.87764907E+03</pdfrwt>
<pdfrwt beam="2">  1       -1 0.48459059E-01 0.87764907E+03</pdfrwt>
<totfact> 0.12865977E+00</totfact>
</mgrwt>
</event>
<event>
 4    1  0.2514307E-008  0.1237760E+04  0.7818608E-02  0.9121263E-01
          1   -1    0    0  501    0  0.00000000000E+00  0.00000000000E+00  0.23697559593E+04  0.23697559593E+04  0.50400000000E-02 0. -1.
         -1   -1    0    0    0  501 -0.00000000000E+00 -0.00000000000E+00 -0.61076378944E+03  0.61076378946E+03  0.50400000000E-02 0.  1.
    8880023    1    1    2    0    0 -0.10420210283E+04  0.11150291955E+03  0.49902408483E+03  0.13345695816E+04  0.65864270000E+03 0.  1.
    8880022    1    1    2    0    0  0.10420210283E+04 -0.11150291955E+03  0.12599680851E+04  0.16459501672E+04  0.15294330000E+03 0.  0.
<mgrwt>
<rscale>  0 0.11904434E+04</rscale>
<asrwt>0</asrwt>
<pdfrwt beam="1">  1        1 0.36457783E+00 0.12377604E+04</pdfrwt>
<pdfrwt beam="2">  1       -1 0.93963661E-01 0.12377604E+04</pdfrwt>
<totfact> 0.18016816E+00</totfact>
</mgrwt>
</event>
<event>
 4    1  0.2514307E-008  0.8495866E+03  0.7818608E-02  0.9612362E-01
          1   -1    0    0  501    0  0.00000000000E+00  0.00000000000E+00  0.18055178278E+04  0.18055178278E+04  0.50400000000E-02 0. -1.
         -1   -1    0    0    0  501 -0.00000000000E+00 -0.00000000000E+00 -0.68898727310E+03  0.68898727312E+03  0.50400000000E-02 0.  1.
    8880023    1    1    2    0    0  0.53260303727E+03 -0.65735815254E+02 -0.35496453544E+03  0.92075904579E+03  0.65864270000E+03 0.  0.
    8880022    1    1    2    0    0 -0.53260303727E+03  0.65735815254E+02  0.14714950902E+04  0.15737460551E+04  0.15294330000E+03 0.  0.
<mgrwt>
<rscale>  0 0.76483346E+03</rscale>
<asrwt>0</asrwt>
<pdfrwt beam="1">  1        1 0.27777197E+00 0.84958660E+03</pdfrwt>
<pdfrwt beam="2">  1       -1 0.10599804E+00 0.84958660E+03</pdfrwt>
<totfact> 0.34672734E+00</totfact>
</mgrwt>
</event>
<event>
 4    1  0.2514307E-008  0.1265233E+04  0.7818608E-02  0.9096180E-01
          1   -1    0    0  501    0  0.00000000000E+00  0.00000000000E+00  0.35999408268E+04  0.35999408269E+04  0.50400000000E-02 0. -1.
         -1   -1    0    0    0  501 -0.00000000000E+00 -0.00000000000E+00 -0.56023549286E+03  0.56023549288E+03  0.50400000000E-02 0.  1.
    8880023    1    1    2    0    0 -0.44854769915E+02  0.10793484714E+04  0.43790472581E+03  0.13388711021E+04  0.65864270000E+03 0.  0.
    8880022    1    1    2    0    0  0.44854769915E+02 -0.10793484714E+04  0.26018006082E+04  0.28213052176E+04  0.15294330000E+03 0.  0.
<mgrwt>
<rscale>  0 0.12192406E+04</rscale>
<asrwt>0</asrwt>
<pdfrwt beam="1">  1        1 0.55383704E+00 0.12652333E+04</pdfrwt>
<pdfrwt beam="2">  1       -1 0.86190078E-01 0.12652333E+04</pdfrwt>
<totfact> 0.27562460E-01</totfact>
</mgrwt>
</event>
<event>
 4    1  0.2514307E-008  0.7987415E+03  0.7818608E-02  0.9713524E-01
         -1   -1    0    0    0  501 -0.00000000000E+00  0.00000000000E+00  0.63716130699E+03  0.63716130701E+03  0.50400000000E-02 0.  1.
          1   -1    0    0  501    0  0.00000000000E+00 -0.00000000000E+00 -0.15876074332E+04  0.15876074333E+04  0.50400000000E-02 0. -1.
    8880023    1    1    2    0    0  0.26284516151E+03 -0.36754608731E+03  0.32553291595E+03  0.86253092168E+03  0.65864270000E+03 0.  1.
    8880022    1    1    2    0    0 -0.26284516151E+03  0.36754608731E+03 -0.12759790422E+04  0.13622378186E+04  0.15294330000E+03 0.  0.
<mgrwt>
<rscale>  0 0.70217262E+03</rscale>
<asrwt>0</asrwt>
<pdfrwt beam="1">  1        1 0.24424730E+00 0.79874145E+03</pdfrwt>
<pdfrwt beam="2">  1       -1 0.98024817E-01 0.79874145E+03</pdfrwt>
<totfact> 0.58714561E+00</totfact>
</mgrwt>
</event>
<event>
 4    1  0.2514307E-008  0.1182915E+04  0.7818608E-02  0.9173912E-01
         -1   -1    0    0    0  501 -0.00000000000E+00  0.00000000000E+00  0.18227421828E+04  0.18227421828E+04  0.50400000000E-02 0.  1.
          1   -1    0    0  501    0  0.00000000000E+00 -0.00000000000E+00 -0.89307535463E+03  0.89307535464E+03  0.50400000000E-02 0. -1.
    8880023    1    1    2    0    0  0.67381426136E+03 -0.71515826250E+03  0.12002976800E+04  0.16852304668E+04  0.65864270000E+03 0.  1.
    8880022    1    1    2    0    0 -0.67381426136E+03  0.71515826250E+03 -0.27063085184E+03  0.10305870707E+04  0.15294330000E+03 0.  0.
<mgrwt>
<rscale>  0 0.11326804E+04</rscale>
<asrwt>0</asrwt>
<pdfrwt beam="1">  1        1 0.13739621E+00 0.11829147E+04</pdfrwt>
<pdfrwt beam="2">  1       -1 0.28042187E+00 0.11829147E+04</pdfrwt>
<totfact> 0.80465537E-01</totfact>
</mgrwt>
</event>
<event>
 4    1  0.2514307E-008  0.6819553E+03  0.7818608E-02  0.1008239E+00
          1   -1    0    0  501    0  0.00000000000E+00  0.00000000000E+00  0.16651698853E+04  0.16651698853E+04  0.50400000000E-02 0. -1.
         -1   -1    0    0    0  501 -0.00000000000E+00 -0.00000000000E+00 -0.76731997708E+03  0.76731997709E+03  0.50400000000E-02 0.  1.
    8880023    1    1    2    0    0 -0.16969036215E+03  0.49577890503E+02 -0.60495644683E+03  0.91161137282E+03  0.65864270000E+03 0.  1.
    8880022    1    1    2    0    0  0.16969036215E+03 -0.49577890503E+02  0.15028063551E+04  0.15208784896E+04  0.15294330000E+03 0.  0.
<mgrwt>
<rscale>  0 0.52180732E+03</rscale>
<asrwt>0</asrwt>
<pdfrwt beam="1">  1        1 0.25617998E+00 0.68195527E+03</pdfrwt>
<pdfrwt beam="2">  1       -1 0.11804923E+00 0.68195527E+03</pdfrwt>
<totfact> 0.34382889E+00</totfact>
</mgrwt>
</event>
<event>
 4    1  0.2514307E-008  0.7979810E+03  0.7818608E-02  0.9715179E-01
          1   -1    0    0  501    0  0.00000000000E+00  0.00000000000E+00  0.35610595453E+03  0.35610595456E+03  0.50400000000E-02 0. -1.
         -1   -1    0    0    0  501 -0.00000000000E+00 -0.00000000000E+00 -0.25100523576E+04  0.25100523576E+04  0.50400000000E-02 0.  1.
    8880023    1    1    2    0    0  0.40349150837E+03  0.20039467091E+03 -0.22442495750E+04  0.23818962578E+04  0.65864270000E+03 0.  1.
    8880022    1    1    2    0    0 -0.40349150837E+03 -0.20039467091E+03  0.90303171958E+02  0.48426205440E+03  0.15294330000E+03 0.  0.
<mgrwt>
<rscale>  0 0.70120205E+03</rscale>
<asrwt>0</asrwt>
<pdfrwt beam="1">  1        1 0.54785533E-01 0.79798097E+03</pdfrwt>
<pdfrwt beam="2">  1       -1 0.38616189E+00 0.79798097E+03</pdfrwt>
<totfact> 0.65868437E-01</totfact>
</mgrwt>
</event>
<event>
 4    1  0.2514307E-008  0.9036279E+03  0.7818608E-02  0.9520233E-01
         -1   -1    0    0    0  501 -0.00000000000E+00  0.00000000000E+00  0.62626242216E+03  0.62626242218E+03  0.50400000000E-02 0.  1.
          1   -1    0    0  501    0  0.00000000000E+00 -0.00000000000E+00 -0.14209430969E+04  0.14209430969E+04  0.50400000000E-02 0. -1.
    8880023    1    1    2    0    0 -0.61829436994E+03 -0.21101494772E+02  0.14156584893E+03  0.91464982197E+03  0.65864270000E+03 0.  1.
    8880022    1    1    2    0    0  0.61829436994E+03  0.21101494772E+02 -0.93624652366E+03  0.11325556971E+04  0.15294330000E+03 0.  0.
<mgrwt>
<rscale>  0 0.82808454E+03</rscale>
<asrwt>0</asrwt>
<pdfrwt beam="1">  1        1 0.21860663E+00 0.90362791E+03</pdfrwt>
<pdfrwt beam="2">  1       -1 0.96348065E-01 0.90362791E+03</pdfrwt>
<totfact> 0.78319251E+00</totfact>
</mgrwt>
</event>
<event>
 4    1  0.2514307E-008  0.8703332E+03  0.7818608E-02  0.9575441E-01
         -1   -1    0    0    0  501 -0.00000000000E+00  0.00000000000E+00  0.22874519767E+04  0.22874519767E+04  0.50400000000E-02 0.  1.
          1   -1    0    0  501    0  0.00000000000E+00 -0.00000000000E+00 -0.10874250951E+04  0.10874250951E+04  0.50400000000E-02 0. -1.
    8880023    1    1    2    0    0  0.87640755313E+02  0.56212876248E+03  0.21147604426E+04  0.22868518937E+04  0.65864270000E+03 0.  0.
    8880022    1    1    2    0    0 -0.87640755313E+02 -0.56212876248E+03 -0.91473356100E+03  0.10880251781E+04  0.15294330000E+03 0.  0.
<mgrwt>
<rscale>  0 0.78943237E+03</rscale>
<asrwt>0</asrwt>
<pdfrwt beam="1">  1        1 0.16729617E+00 0.87033319E+03</pdfrwt>
<pdfrwt beam="2">  1       -1 0.35191568E+00 0.87033319E+03</pdfrwt>
<totfact> 0.20469337E-01</totfact>
</mgrwt>
</event>
<event>
 4    1  0.2514307E-008  0.7662433E+03  0.7818608E-02  0.9789204E-01
         -1   -1    0    0    0  501 -0.00000000000E+00  0.00000000000E+00  0.48425475563E+03  0.48425475566E+03  0.50400000000E-02 0.  1.
          1   -1    0    0  501    0  0.00000000000E+00 -0.00000000000E+00 -0.10086266254E+04  0.10086266254E+04  0.50400000000E-02 0. -1.
    8880023    1    1    2    0    0 -0.35933829329E+03 -0.15554596939E+03 -0.69948147640E+03  0.10374984818E+04  0.65864270000E+03 0. -1.
    8880022    1    1    2    0    0  0.35933829329E+03  0.15554596939E+03  0.17510960663E+03  0.45538289929E+03  0.15294330000E+03 0.  0.
<mgrwt>
<rscale>  0 0.65945128E+03</rscale>
<asrwt>0</asrwt>
<pdfrwt beam="1">  1        1 0.15517333E+00 0.76624328E+03</pdfrwt>
<pdfrwt beam="2">  1       -1 0.74500732E-01 0.76624328E+03</pdfrwt>
<totfact> 0.27704875E+01</totfact>
</mgrwt>
</event>
<event>
 4    1  0.2514307E-008  0.8786952E+03  0.7818608E-02  0.9561136E-01
          1   -1    0    0  501    0  0.00000000000E+00  0.00000000000E+00  0.20885228914E+04  0.20885228914E+04  0.50400000000E-02 0. -1.
         -1   -1    0    0    0  501 -0.00000000000E+00 -0.00000000000E+00 -0.49822535212E+03  0.49822535214E+03  0.50400000000E-02 0.  1.
    8880023    1    1    2    0    0  0.42495792770E+03  0.39712180727E+03 -0.83342858510E+01  0.87873467936E+03  0.65864270000E+03 0.  0.
    8880022    1    1    2    0    0 -0.42495792770E+03 -0.39712180727E+03  0.15986318251E+04  0.17080135642E+04  0.15294330000E+03 0.  0.
<mgrwt>
<rscale>  0 0.79922715E+03</rscale>
<asrwt>0</asrwt>
<pdfrwt beam="1">  1        1 0.32131122E+00 0.87869516E+03</pdfrwt>
<pdfrwt beam="2">  1       -1 0.76650052E-01 0.87869516E+03</pdfrwt>
<totfact> 0.45640815E+00</totfact>
</mgrwt>
</event>
<event>
 4    1  0.2514307E-008  0.1858970E+04  0.7818608E-02  0.8690599E-01
         -1   -1    0    0    0  501 -0.00000000000E+00  0.00000000000E+00  0.37601460695E+04  0.37601460695E+04  0.50400000000E-02 0.  1.
          1   -1    0    0  501    0  0.00000000000E+00 -0.00000000000E+00 -0.14235667889E+04  0.14235667889E+04  0.50400000000E-02 0. -1.
    8880023    1    1    2    0    0 -0.98550815962E+03  0.14320383900E+04  0.28157299900E+04  0.33740340641E+04  0.65864270000E+03 0.  0.
    8880022    1    1    2    0    0  0.98550815962E+03 -0.14320383900E+04 -0.47915070941E+03  0.18096787943E+04  0.15294330000E+03 0.  0.
<mgrwt>
<rscale>  0 0.18298227E+04</rscale>
<asrwt>0</asrwt>
<pdfrwt beam="1">  1        1 0.21901028E+00 0.18589703E+04</pdfrwt>
<pdfrwt beam="2">  1       -1 0.57848401E+00 0.18589703E+04</pdfrwt>
<totfact> 0.35485278E-03</totfact>
</mgrwt>
</event>
<event>
 4    1  0.2514307E-008  0.9295524E+03  0.7818608E-02  0.9480165E-01
          1   -1    0    0  501    0  0.00000000000E+00  0.00000000000E+00  0.95942100408E+03  0.95942100409E+03  0.50400000000E-02 0. -1.
         -1   -1    0    0    0  501 -0.00000000000E+00 -0.00000000000E+00 -0.93415152316E+03  0.93415152318E+03  0.50400000000E-02 0.  1.
    8880023    1    1    2    0    0  0.65281446274E+03  0.63958990213E+02 -0.48509515413E+03  0.10485156127E+04  0.65864270000E+03 0.  1.
    8880022    1    1    2    0    0 -0.65281446274E+03 -0.63958990213E+02  0.51036463505E+03  0.84505691460E+03  0.15294330000E+03 0.  0.
<mgrwt>
<rscale>  0 0.85762103E+03</rscale>
<asrwt>0</asrwt>
<pdfrwt beam="1">  1        1 0.14760323E+00 0.92955241E+03</pdfrwt>
<pdfrwt beam="2">  1       -1 0.14371562E+00 0.92955241E+03</pdfrwt>
<totfact> 0.64395695E+00</totfact>
</mgrwt>
</event>
<event>
 4    1  0.2514307E-008  0.7988359E+03  0.7818608E-02  0.9713319E-01
         -1   -1    0    0    0  501 -0.00000000000E+00  0.00000000000E+00  0.55929877325E+03  0.55929877328E+03  0.50400000000E-02 0.  1.
          1   -1    0    0  501    0  0.00000000000E+00 -0.00000000000E+00 -0.92534287128E+03  0.92534287129E+03  0.50400000000E-02 0. -1.
    8880023    1    1    2    0    0 -0.14344458592E+03  0.42866333465E+03  0.11498105901E+03  0.80706843198E+03  0.65864270000E+03 0.  1.
    8880022    1    1    2    0    0  0.14344458592E+03 -0.42866333465E+03 -0.48102515703E+03  0.67757321259E+03  0.15294330000E+03 0.  0.
<mgrwt>
<rscale>  0 0.70229309E+03</rscale>
<asrwt>0</asrwt>
<pdfrwt beam="1">  1        1 0.14236044E+00 0.79883591E+03</pdfrwt>
<pdfrwt beam="2">  1       -1 0.86045965E-01 0.79883591E+03</pdfrwt>
<totfact> 0.23641636E+01</totfact>
</mgrwt>
</event>
<event>
 4    1  0.2514307E-008  0.1188575E+04  0.7818608E-02  0.9168309E-01
         -1   -1    0    0    0  501 -0.00000000000E+00  0.00000000000E+00  0.49752616193E+03  0.49752616196E+03  0.50400000000E-02 0.  1.
          1   -1    0    0  501    0  0.00000000000E+00 -0.00000000000E+00 -0.25975025399E+04  0.25975025399E+04  0.50400000000E-02 0. -1.
    8880023    1    1    2    0    0  0.20789639740E+03 -0.96730527258E+03 -0.71828246967E+03  0.13887549514E+04  0.65864270000E+03 0.  0.
    8880022    1    1    2    0    0 -0.20789639740E+03  0.96730527258E+03 -0.13816939083E+04  0.17062737505E+04  0.15294330000E+03 0.  0.
<mgrwt>
<rscale>  0 0.11386605E+04</rscale>
<asrwt>0</asrwt>
<pdfrwt beam="1">  1        1 0.39961577E+00 0.11885750E+04</pdfrwt>
<pdfrwt beam="2">  1       -1 0.76542488E-01 0.11885750E+04</pdfrwt>
<totfact> 0.19741175E+00</totfact>
</mgrwt>
</event>
<event>
 4    1  0.2514307E-008  0.7113749E+03  0.7818608E-02  0.9952930E-01
         -1   -1    0    0    0  501 -0.00000000000E+00  0.00000000000E+00  0.37382673632E+03  0.37382673635E+03  0.50400000000E-02 0.  1.
          1   -1    0    0  501    0  0.00000000000E+00 -0.00000000000E+00 -0.20390422115E+04  0.20390422115E+04  0.50400000000E-02 0. -1.
    8880023    1    1    2    0    0  0.12309792492E+03  0.23893706561E+03  0.78945956781E+01  0.71141868920E+03  0.65864270000E+03 0.  0.
    8880022    1    1    2    0    0 -0.12309792492E+03 -0.23893706561E+03 -0.16731100709E+04  0.17014502586E+04  0.15294330000E+03 0. -1.
<mgrwt>
<rscale>  0 0.57763219E+03</rscale>
<asrwt>0</asrwt>
<pdfrwt beam="1">  1        1 0.31369879E+00 0.71137488E+03</pdfrwt>
<pdfrwt beam="2">  1       -1 0.57511807E-01 0.71137488E+03</pdfrwt>
<totfact> 0.90465643E+00</totfact>
</mgrwt>
</event>
<event>
 4    1  0.2514307E-008  0.1388573E+04  0.7818608E-02  0.8992613E-01
         -1   -1    0    0    0  501 -0.00000000000E+00  0.00000000000E+00  0.17308059435E+04  0.17308059435E+04  0.50400000000E-02 0.  1.
          1   -1    0    0  501    0  0.00000000000E+00 -0.00000000000E+00 -0.18240462830E+04  0.18240462830E+04  0.50400000000E-02 0. -1.
    8880023    1    1    2    0    0  0.10886996863E+03  0.12175678438E+04  0.11512267376E+04  0.18037342742E+04  0.65864270000E+03 0.  0.
    8880022    1    1    2    0    0 -0.10886996863E+03 -0.12175678438E+04 -0.12444670770E+04  0.17511179524E+04  0.15294330000E+03 0.  0.
<mgrwt>
<rscale>  0 0.13476443E+04</rscale>
<asrwt>0</asrwt>
<pdfrwt beam="1">  1        1 0.28062250E+00 0.13885728E+04</pdfrwt>
<pdfrwt beam="2">  1       -1 0.26627784E+00 0.13885728E+04</pdfrwt>
<totfact> 0.20511417E-01</totfact>
</mgrwt>
</event>
<event>
 4    1  0.2514307E-008  0.7282696E+03  0.7818608E-02  0.9895537E-01
         -1   -1    0    0    0  501 -0.00000000000E+00  0.00000000000E+00  0.21842402519E+03  0.21842402525E+03  0.50400000000E-02 0.  1.
          1   -1    0    0  501    0  0.00000000000E+00 -0.00000000000E+00 -0.16028150056E+04  0.16028150056E+04  0.50400000000E-02 0. -1.
    8880023    1    1    2    0    0 -0.30469663759E+03  0.61043941504E+02 -0.12559861714E+04  0.14518532546E+04  0.65864270000E+03 0.  1.
    8880022    1    1    2    0    0  0.30469663759E+03 -0.61043941504E+02 -0.12840480902E+03  0.36938577632E+03  0.15294330000E+03 0.  1.
<mgrwt>
<rscale>  0 0.60478055E+03</rscale>
<asrwt>0</asrwt>
<pdfrwt beam="1">  1        1 0.24658692E+00 0.72826960E+03</pdfrwt>
<pdfrwt beam="2">  1       -1 0.33603697E-01 0.72826960E+03</pdfrwt>
<totfact> 0.47842522E+01</totfact>
</mgrwt>
</event>
<event>
 4    1  0.2514307E-008  0.1678661E+04  0.7818608E-02  0.8792804E-01
          1   -1    0    0  501    0  0.00000000000E+00  0.00000000000E+00  0.24296392314E+04  0.24296392314E+04  0.50400000000E-02 0. -1.
         -1   -1    0    0    0  501 -0.00000000000E+00 -0.00000000000E+00 -0.19162432048E+04  0.19162432048E+04  0.50400000000E-02 0.  1.
    8880023    1    1    2    0    0  0.10857647329E+04  0.10978191976E+04 -0.11778864864E+04  0.20506874036E+04  0.65864270000E+03 0.  0.
    8880022    1    1    2    0    0 -0.10857647329E+04 -0.10978191976E+04  0.16912825130E+04  0.22951950327E+04  0.15294330000E+03 0.  0.
<mgrwt>
<rscale>  0 0.16459538E+04</rscale>
<asrwt>0</asrwt>
<pdfrwt beam="1">  1        1 0.37379065E+00 0.16786609E+04</pdfrwt>
<pdfrwt beam="2">  1       -1 0.29480665E+00 0.16786609E+04</pdfrwt>
<totfact> 0.49838352E-02</totfact>
</mgrwt>
</event>
<event>
 4    1  0.2514307E-008  0.6672693E+03  0.7818608E-02  0.1017701E+00
          1   -1    0    0  501    0  0.00000000000E+00  0.00000000000E+00  0.21956404979E+03  0.21956404985E+03  0.50400000000E-02 0. -1.
         -1   -1    0    0    0  501 -0.00000000000E+00 -0.00000000000E+00 -0.10944453387E+04  0.10944453387E+04  0.50400000000E-02 0.  1.
    8880023    1    1    2    0    0 -0.94359840571E+02  0.50341600364E+02 -0.90558852953E+03  0.11248728138E+04  0.65864270000E+03 0.  1.
    8880022    1    1    2    0    0  0.94359840571E+02 -0.50341600364E+02  0.30707240661E+02  0.18913657469E+03  0.15294330000E+03 0.  0.
<mgrwt>
<rscale>  0 0.48525450E+03</rscale>
<asrwt>0</asrwt>
<pdfrwt beam="1">  1        1 0.33779085E-01 0.66726926E+03</pdfrwt>
<pdfrwt beam="2">  1       -1 0.16837620E+00 0.66726926E+03</pdfrwt>
<totfact> 0.34306228E+01</totfact>
</mgrwt>
</event>
<event>
 4    1  0.2514307E-008  0.8979952E+03  0.7818608E-02  0.9529258E-01
         -1   -1    0    0    0  501 -0.00000000000E+00  0.00000000000E+00  0.60892736784E+03  0.60892736786E+03  0.50400000000E-02 0.  1.
          1   -1    0    0  501    0  0.00000000000E+00 -0.00000000000E+00 -0.10842650534E+04  0.10842650534E+04  0.50400000000E-02 0. -1.
    8880023    1    1    2    0    0  0.57348498900E+03 -0.20904598018E+03  0.10727882067E+02  0.89805932329E+03  0.65864270000E+03 0.  0.
    8880022    1    1    2    0    0 -0.57348498900E+03  0.20904598018E+03 -0.48606556761E+03  0.79513309796E+03  0.15294330000E+03 0.  0.
<mgrwt>
<rscale>  0 0.82160725E+03</rscale>
<asrwt>0</asrwt>
<pdfrwt beam="1">  1        1 0.16681001E+00 0.89799525E+03</pdfrwt>
<pdfrwt beam="2">  1       -1 0.93681134E-01 0.89799525E+03</pdfrwt>
<totfact> 0.14592210E+01</totfact>
</mgrwt>
</event>
<event>
 4    1  0.2514307E-008  0.1388231E+04  0.7818608E-02  0.8992882E-01
          1   -1    0    0  501    0  0.00000000000E+00  0.00000000000E+00  0.11962470719E+04  0.11962470719E+04  0.50400000000E-02 0. -1.
         -1   -1    0    0    0  501 -0.00000000000E+00 -0.00000000000E+00 -0.16428019709E+04  0.16428019709E+04  0.50400000000E-02 0.  1.
    8880023    1    1    2    0    0  0.25051311238E+03 -0.11960848658E+04 -0.73979458428E+03  0.15730486511E+04  0.65864270000E+03 0.  0.
    8880022    1    1    2    0    0 -0.25051311238E+03  0.11960848658E+04  0.29323968531E+03  0.12660003916E+04  0.15294330000E+03 0.  0.
<mgrwt>
<rscale>  0 0.13472905E+04</rscale>
<asrwt>0</asrwt>
<pdfrwt beam="1">  1        1 0.18403801E+00 0.13882313E+04</pdfrwt>
<pdfrwt beam="2">  1       -1 0.25273877E+00 0.13882313E+04</pdfrwt>
<totfact> 0.69068897E-01</totfact>
</mgrwt>
</event>
<event>
 4    1  0.2514307E-008  0.1064679E+04  0.7818608E-02  0.9301440E-01
          1   -1    0    0  501    0  0.00000000000E+00  0.00000000000E+00  0.89637309912E+03  0.89637309914E+03  0.50400000000E-02 0. -1.
         -1   -1    0    0    0  501 -0.00000000000E+00 -0.00000000000E+00 -0.22352432687E+04  0.22352432687E+04  0.50400000000E-02 0.  1.
    8880023    1    1    2    0    0  0.81105691729E+03  0.20473729425E+03 -0.18535930134E+04  0.21376033188E+04  0.65864270000E+03 0.  1.
    8880022    1    1    2    0    0 -0.81105691729E+03 -0.20473729425E+03  0.51472284384E+03  0.99401304908E+03  0.15294330000E+03 0.  0.
<mgrwt>
<rscale>  0 0.10065038E+04</rscale>
<asrwt>0</asrwt>
<pdfrwt beam="1">  1        1 0.13790355E+00 0.10646788E+04</pdfrwt>
<pdfrwt beam="2">  1       -1 0.34388358E+00 0.10646788E+04</pdfrwt>
<totfact> 0.31533802E-01</totfact>
</mgrwt>
</event>
<event>
 4    1  0.2514307E-008  0.7642057E+03  0.7818608E-02  0.9794339E-01
          1   -1    0    0  501    0  0.00000000000E+00  0.00000000000E+00  0.19115586317E+03  0.19115586324E+03  0.50400000000E-02 0. -1.
         -1   -1    0    0    0  501 -0.00000000000E+00 -0.00000000000E+00 -0.28590766536E+04  0.28590766536E+04  0.50400000000E-02 0.  1.
    8880023    1    1    2    0    0  0.11358264275E+03  0.37053894760E+03 -0.24764821184E+04  0.25917125646E+04  0.65864270000E+03 0.  1.
    8880022    1    1    2    0    0 -0.11358264275E+03 -0.37053894760E+03 -0.19143867198E+03  0.45851995220E+03  0.15294330000E+03 0.  0.
<mgrwt>
<rscale>  0 0.65667252E+03</rscale>
<asrwt>0</asrwt>
<pdfrwt beam="1">  1        1 0.29408596E-01 0.76420569E+03</pdfrwt>
<pdfrwt beam="2">  1       -1 0.43985792E+00 0.76420569E+03</pdfrwt>
<totfact> 0.63908840E-01</totfact>
</mgrwt>
</event>
<event>
 4    1  0.2514307E-008  0.7165481E+03  0.7818608E-02  0.9934444E-01
          1   -1    0    0  501    0  0.00000000000E+00  0.00000000000E+00  0.46243763455E+03  0.46243763457E+03  0.50400000000E-02 0. -1.
         -1   -1    0    0    0  501 -0.00000000000E+00 -0.00000000000E+00 -0.79167627103E+03  0.79167627105E+03  0.50400000000E-02 0.  1.
    8880023    1    1    2    0    0  0.28203625816E+03  0.93014443346E+01 -0.51577655191E+03  0.88287407117E+03  0.65864270000E+03 0.  1.
    8880022    1    1    2    0    0 -0.28203625816E+03 -0.93014443346E+01  0.18653791542E+03  0.37123983445E+03  0.15294330000E+03 0.  0.
<mgrwt>
<rscale>  0 0.58620644E+03</rscale>
<asrwt>0</asrwt>
<pdfrwt beam="1">  1        1 0.71144252E-01 0.71654810E+03</pdfrwt>
<pdfrwt beam="2">  1       -1 0.12179635E+00 0.71654810E+03</pdfrwt>
<totfact> 0.30243935E+01</totfact>
</mgrwt>
</event>
<event>
 4    1  0.2514307E-008  0.1271544E+04  0.7818608E-02  0.9090531E-01
          1   -1    0    0  501    0  0.00000000000E+00  0.00000000000E+00  0.80405899049E+03  0.80405899050E+03  0.50400000000E-02 0. -1.
         -1   -1    0    0    0  501 -0.00000000000E+00 -0.00000000000E+00 -0.32504822687E+04  0.32504822687E+04  0.50400000000E-02 0.  1.
    8880023    1    1    2    0    0 -0.78040571255E+03  0.75761515373E+03 -0.26483352329E+04  0.29377718614E+04  0.65864270000E+03 0.  1.
    8880022    1    1    2    0    0  0.78040571255E+03 -0.75761515373E+03  0.20191195475E+03  0.11167693978E+04  0.15294330000E+03 0.  0.
<mgrwt>
<rscale>  0 0.12258440E+04</rscale>
<asrwt>0</asrwt>
<pdfrwt beam="1">  1        1 0.12370139E+00 0.12715439E+04</pdfrwt>
<pdfrwt beam="2">  1       -1 0.50007419E+00 0.12715439E+04</pdfrwt>
<totfact> 0.31849899E-02</totfact>
</mgrwt>
</event>
<event>
 4    1  0.2514307E-008  0.8348626E+03  0.7818608E-02  0.9639944E-01
          1   -1    0    0  501    0  0.00000000000E+00  0.00000000000E+00  0.89466836665E+03  0.89466836666E+03  0.50400000000E-02 0. -1.
         -1   -1    0    0    0  501 -0.00000000000E+00 -0.00000000000E+00 -0.96414473448E+03  0.96414473449E+03  0.50400000000E-02 0.  1.
    8880023    1    1    2    0    0  0.42605873887E+03  0.28576093393E+03 -0.65817964413E+03  0.10631067729E+04  0.65864270000E+03 0.  1.
    8880022    1    1    2    0    0 -0.42605873887E+03 -0.28576093393E+03  0.58870327630E+03  0.79570632828E+03  0.15294330000E+03 0.  0.
<mgrwt>
<rscale>  0 0.74707882E+03</rscale>
<asrwt>0</asrwt>
<pdfrwt beam="1">  1        1 0.13764129E+00 0.83486260E+03</pdfrwt>
<pdfrwt beam="2">  1       -1 0.14832996E+00 0.83486260E+03</pdfrwt>
<totfact> 0.67551545E+00</totfact>
</mgrwt>
</event>
<event>
 4    1  0.2514307E-008  0.1409237E+04  0.7818608E-02  0.8976538E-01
          1   -1    0    0  501    0  0.00000000000E+00  0.00000000000E+00  0.20549331095E+04  0.20549331095E+04  0.50400000000E-02 0. -1.
         -1   -1    0    0    0  501 -0.00000000000E+00 -0.00000000000E+00 -0.14066553675E+04  0.14066553675E+04  0.50400000000E-02 0.  1.
    8880023    1    1    2    0    0  0.86863441112E+03 -0.89309220878E+03  0.14098684611E+04  0.19934088185E+04  0.65864270000E+03 0.  0.
    8880022    1    1    2    0    0 -0.86863441112E+03  0.89309220878E+03 -0.76159071911E+03  0.14681796586E+04  0.15294330000E+03 0.  0.
<mgrwt>
<rscale>  0 0.13690410E+04</rscale>
<asrwt>0</asrwt>
<pdfrwt beam="1">  1        1 0.31614355E+00 0.14092373E+04</pdfrwt>
<pdfrwt beam="2">  1       -1 0.21640852E+00 0.14092373E+04</pdfrwt>
<totfact> 0.30378972E-01</totfact>
</mgrwt>
</event>
<event>
 4    1  0.2514307E-008  0.1123851E+04  0.7818608E-02  0.9234954E-01
         -1   -1    0    0    0  501 -0.00000000000E+00  0.00000000000E+00  0.15116933130E+04  0.15116933130E+04  0.50400000000E-02 0.  1.
          1   -1    0    0  501    0  0.00000000000E+00 -0.00000000000E+00 -0.16731145392E+04  0.16731145392E+04  0.50400000000E-02 0. -1.
    8880023    1    1    2    0    0  0.14356140720E+01  0.91062055801E+03  0.11323071055E+04  0.15953562138E+04  0.65864270000E+03 0.  0.
    8880022    1    1    2    0    0 -0.14356140720E+01 -0.91062055801E+03 -0.12937283317E+04  0.15894516384E+04  0.15294330000E+03 0.  0.
<mgrwt>
<rscale>  0 0.10699817E+04</rscale>
<asrwt>0</asrwt>
<pdfrwt beam="1">  1        1 0.25740224E+00 0.11238514E+04</pdfrwt>
<pdfrwt beam="2">  1       -1 0.23256820E+00 0.11238514E+04</pdfrwt>
<totfact> 0.44745808E-01</totfact>
</mgrwt>
</event>
<event>
 4    1  0.2514307E-008  0.9656106E+03  0.7818608E-02  0.9428001E-01
          1   -1    0    0  501    0  0.00000000000E+00  0.00000000000E+00  0.15491629701E+04  0.15491629701E+04  0.50400000000E-02 0. -1.
         -1   -1    0    0    0  501 -0.00000000000E+00 -0.00000000000E+00 -0.71142452646E+03  0.71142452648E+03  0.50400000000E-02 0.  1.
    8880023    1    1    2    0    0  0.70205217675E+03  0.75606048779E+02 -0.20972478378E+03  0.98812358776E+03  0.65864270000E+03 0.  1.
    8880022    1    1    2    0    0 -0.70205217675E+03 -0.75606048779E+02  0.10474632274E+04  0.12724639089E+04  0.15294330000E+03 0.  0.
<mgrwt>
<rscale>  0 0.89806708E+03</rscale>
<asrwt>0</asrwt>
<pdfrwt beam="1">  1        1 0.23833276E+00 0.96561055E+03</pdfrwt>
<pdfrwt beam="2">  1       -1 0.10944993E+00 0.96561055E+03</pdfrwt>
<totfact> 0.47197736E+00</totfact>
</mgrwt>
</event>
<event>
 4    1  0.2514307E-008  0.1032912E+04  0.7818608E-02  0.9339711E-01
         -1   -1    0    0    0  501 -0.00000000000E+00  0.00000000000E+00  0.11545970948E+04  0.11545970948E+04  0.50400000000E-02 0.  1.
          1   -1    0    0  501    0  0.00000000000E+00 -0.00000000000E+00 -0.12398954263E+04  0.12398954263E+04  0.50400000000E-02 0. -1.
    8880023    1    1    2    0    0  0.47979488322E+03 -0.63473976466E+03  0.71453637990E+03  0.12559737829E+04  0.65864270000E+03 0.  0.
    8880022    1    1    2    0    0 -0.47979488322E+03  0.63473976466E+03 -0.79983471134E+03  0.11385187382E+04  0.15294330000E+03 0.  0.
<mgrwt>
<rscale>  0 0.97207788E+03</rscale>
<asrwt>0</asrwt>
<pdfrwt beam="1">  1        1 0.19075314E+00 0.10329123E+04</pdfrwt>
<pdfrwt beam="2">  1       -1 0.17763032E+00 0.10329123E+04</pdfrwt>
<totfact> 0.21631541E+00</totfact>
</mgrwt>
</event>
<event>
 4    1  0.2514307E-008  0.7022131E+03  0.7818608E-02  0.9988141E-01
          1   -1    0    0  501    0  0.00000000000E+00  0.00000000000E+00  0.13251046167E+04  0.13251046168E+04  0.50400000000E-02 0. -1.
         -1   -1    0    0    0  501 -0.00000000000E+00 -0.00000000000E+00 -0.19227937229E+04  0.19227937229E+04  0.50400000000E-02 0.  1.
    8880023    1    1    2    0    0  0.23337535835E+02  0.24238075301E+03 -0.18417293479E+04  0.19710581593E+04  0.65864270000E+03 0.  1.
    8880022    1    1    2    0    0 -0.23337535835E+02 -0.24238075301E+03  0.12440402418E+04  0.12768401804E+04  0.15294330000E+03 0.  0.
<mgrwt>
<rscale>  0 0.56173291E+03</rscale>
<asrwt>0</asrwt>
<pdfrwt beam="1">  1        1 0.20386225E+00 0.70221313E+03</pdfrwt>
<pdfrwt beam="2">  1       -1 0.29581442E+00 0.70221313E+03</pdfrwt>
<totfact> 0.32960075E-01</totfact>
</mgrwt>
</event>
<event>
 4    1  0.2514307E-008  0.1003709E+04  0.7818608E-02  0.9376721E-01
          1   -1    0    0  501    0  0.00000000000E+00  0.00000000000E+00  0.71102586042E+03  0.71102586044E+03  0.50400000000E-02 0. -1.
         -1   -1    0    0    0  501 -0.00000000000E+00 -0.00000000000E+00 -0.13650730673E+04  0.13650730673E+04  0.50400000000E-02 0.  1.
    8880023    1    1    2    0    0  0.26450193935E+03  0.70969045388E+03 -0.80765889070E+03  0.12883108733E+04  0.65864270000E+03 0.  1.
    8880022    1    1    2    0    0 -0.26450193935E+03 -0.70969045388E+03  0.15361168386E+03  0.78778805441E+03  0.15294330000E+03 0.  0.
<mgrwt>
<rscale>  0 0.94016466E+03</rscale>
<asrwt>0</asrwt>
<pdfrwt beam="1">  1        1 0.10938859E+00 0.10037091E+04</pdfrwt>
<pdfrwt beam="2">  1       -1 0.21001124E+00 0.10037091E+04</pdfrwt>
<totfact> 0.34338358E+00</totfact>
</mgrwt>
</event>
<event>
 4    1  0.2514307E-008  0.1247277E+04  0.7818608E-02  0.9112482E-01
         -1   -1    0    0    0  501 -0.00000000000E+00  0.00000000000E+00  0.16062788463E+04  0.16062788463E+04  0.50400000000E-02 0.  1.
          1   -1    0    0  501    0  0.00000000000E+00 -0.00000000000E+00 -0.17360930150E+04  0.17360930150E+04  0.50400000000E-02 0. -1.
    8880023    1    1    2    0    0 -0.96698510146E+03  0.43223722276E+03  0.11344172508E+04  0.16860017522E+04  0.65864270000E+03 0.  0.
    8880022    1    1    2    0    0  0.96698510146E+03 -0.43223722276E+03 -0.12642314196E+04  0.16563701091E+04  0.15294330000E+03 0.  0.
<mgrwt>
<rscale>  0 0.12004280E+04</rscale>
<asrwt>0</asrwt>
<pdfrwt beam="1">  1        1 0.26709123E+00 0.12472768E+04</pdfrwt>
<pdfrwt beam="2">  1       -1 0.24711982E+00 0.12472768E+04</pdfrwt>
<totfact> 0.31963635E-01</totfact>
</mgrwt>
</event>
<event>
 4    1  0.2514307E-008  0.1298172E+04  0.7818608E-02  0.9067140E-01
          1   -1    0    0  501    0  0.00000000000E+00  0.00000000000E+00  0.12415023394E+04  0.12415023394E+04  0.50400000000E-02 0. -1.
         -1   -1    0    0    0  501 -0.00000000000E+00 -0.00000000000E+00 -0.29615307902E+04  0.29615307902E+04  0.50400000000E-02 0.  1.
    8880023    1    1    2    0    0  0.60856054941E+03  0.93866683647E+03 -0.25094492855E+04  0.28253472875E+04  0.65864270000E+03 0.  0.
    8880022    1    1    2    0    0 -0.60856054941E+03 -0.93866683647E+03  0.78942083475E+03  0.13776858421E+04  0.15294330000E+03 0. -1.
<mgrwt>
<rscale>  0 0.12536634E+04</rscale>
<asrwt>0</asrwt>
<pdfrwt beam="1">  1        1 0.19100036E+00 0.12981724E+04</pdfrwt>
<pdfrwt beam="2">  1       -1 0.45562012E+00 0.12981724E+04</pdfrwt>
<totfact> 0.28754971E-02</totfact>
</mgrwt>
</event>
<event>
 4    1  0.2514307E-008  0.7567196E+03  0.7818608E-02  0.9813675E-01
         -1   -1    0    0    0  501 -0.00000000000E+00  0.00000000000E+00  0.56763565818E+03  0.56763565821E+03  0.50400000000E-02 0.  1.
          1   -1    0    0  501    0  0.00000000000E+00 -0.00000000000E+00 -0.97138453680E+03  0.97138453681E+03  0.50400000000E-02 0. -1.
    8880023    1    1    2    0    0  0.17470027785E+03  0.32908082147E+03  0.22754952066E+03  0.79019197968E+03  0.65864270000E+03 0.  1.
    8880022    1    1    2    0    0 -0.17470027785E+03 -0.32908082147E+03 -0.63129839928E+03  0.74882821534E+03  0.15294330000E+03 0.  0.
<mgrwt>
<rscale>  0 0.64633789E+03</rscale>
<asrwt>0</asrwt>
<pdfrwt beam="1">  1        1 0.14944377E+00 0.75671962E+03</pdfrwt>
<pdfrwt beam="2">  1       -1 0.87328563E-01 0.75671962E+03</pdfrwt>
<totfact> 0.21142207E+01</totfact>
</mgrwt>
</event>
<event>
 4    1  0.2514307E-008  0.9374021E+03  0.7818608E-02  0.9468476E-01
         -1   -1    0    0    0  501 -0.00000000000E+00  0.00000000000E+00  0.37344562757E+03  0.37344562760E+03  0.50400000000E-02 0.  1.
          1   -1    0    0  501    0  0.00000000000E+00 -0.00000000000E+00 -0.22697679685E+04  0.22697679685E+04  0.50400000000E-02 0. -1.
    8880023    1    1    2    0    0  0.63363324947E+03 -0.20837809435E+03 -0.44294293659E+03  0.10367840548E+04  0.65864270000E+03 0.  0.
    8880022    1    1    2    0    0 -0.63363324947E+03  0.20837809435E+03 -0.14533794043E+04  0.16064295412E+04  0.15294330000E+03 0.  0.
<mgrwt>
<rscale>  0 0.86648381E+03</rscale>
<asrwt>0</asrwt>
<pdfrwt beam="1">  1        1 0.34919506E+00 0.93740212E+03</pdfrwt>
<pdfrwt beam="2">  1       -1 0.57453175E-01 0.93740212E+03</pdfrwt>
<totfact> 0.61297697E+00</totfact>
</mgrwt>
</event>
<event>
 4    1  0.2514307E-008  0.8219020E+03  0.7818608E-02  0.9665299E-01
          1   -1    0    0  501    0  0.00000000000E+00  0.00000000000E+00  0.22157733547E+04  0.22157733547E+04  0.50400000000E-02 0. -1.
         -1   -1    0    0    0  501 -0.00000000000E+00 -0.00000000000E+00 -0.33097154079E+03  0.33097154083E+03  0.50400000000E-02 0.  1.
    8880023    1    1    2    0    0 -0.43942164597E+03 -0.22050228351E+03  0.29109279049E+03  0.87192766840E+03  0.65864270000E+03 0.  1.
    8880022    1    1    2    0    0  0.43942164597E+03  0.22050228351E+03  0.15937090234E+04  0.16748172271E+04  0.15294330000E+03 0.  0.
<mgrwt>
<rscale>  0 0.73120998E+03</rscale>
<asrwt>0</asrwt>
<pdfrwt beam="1">  1        1 0.34088821E+00 0.82190197E+03</pdfrwt>
<pdfrwt beam="2">  1       -1 0.50918698E-01 0.82190197E+03</pdfrwt>
<totfact> 0.85558242E+00</totfact>
</mgrwt>
</event>
<event>
 4    1  0.2514307E-008  0.7184764E+03  0.7818608E-02  0.9927775E-01
          1   -1    0    0  501    0  0.00000000000E+00  0.00000000000E+00  0.17371908609E+04  0.17371908609E+04  0.50400000000E-02 0. -1.
         -1   -1    0    0    0  501 -0.00000000000E+00 -0.00000000000E+00 -0.12545430677E+04  0.12545430677E+04  0.50400000000E-02 0.  1.
    8880023    1    1    2    0    0  0.23957376033E+03 -0.15812187039E+03 -0.11341340689E+04  0.13425603916E+04  0.65864270000E+03 0.  1.
    8880022    1    1    2    0    0 -0.23957376033E+03  0.15812187039E+03  0.16167818622E+04  0.16491735371E+04  0.15294330000E+03 0.  0.
<mgrwt>
<rscale>  0 0.58933852E+03</rscale>
<asrwt>0</asrwt>
<pdfrwt beam="1">  1        1 0.26726013E+00 0.71847639E+03</pdfrwt>
<pdfrwt beam="2">  1       -1 0.19300663E+00 0.71847639E+03</pdfrwt>
<totfact> 0.80554405E-01</totfact>
</mgrwt>
</event>
<event>
 4    1  0.2514307E-008  0.7974941E+03  0.7818608E-02  0.9716241E-01
         -1   -1    0    0    0  501 -0.00000000000E+00  0.00000000000E+00  0.54938609689E+03  0.54938609691E+03  0.50400000000E-02 0.  1.
          1   -1    0    0  501    0  0.00000000000E+00 -0.00000000000E+00 -0.74253101473E+03  0.74253101475E+03  0.50400000000E-02 0. -1.
    8880023    1    1    2    0    0  0.38615931203E+03  0.23036403913E+03 -0.65876035736E+02  0.80021026183E+03  0.65864270000E+03 0.  1.
    8880022    1    1    2    0    0 -0.38615931203E+03 -0.23036403913E+03 -0.12726888211E+03  0.49170684982E+03  0.15294330000E+03 0. -1.
<mgrwt>
<rscale>  0 0.70058003E+03</rscale>
<asrwt>0</asrwt>
<pdfrwt beam="1">  1        1 0.11423554E+00 0.79749408E+03</pdfrwt>
<pdfrwt beam="2">  1       -1 0.84520937E-01 0.79749408E+03</pdfrwt>
<totfact> 0.35158902E+01</totfact>
</mgrwt>
</event>
<event>
 4    1  0.2514307E-008  0.7764573E+03  0.7818608E-02  0.9764226E-01
         -1   -1    0    0    0  501 -0.00000000000E+00  0.00000000000E+00  0.77835920295E+03  0.77835920296E+03  0.50400000000E-02 0.  1.
          1   -1    0    0  501    0  0.00000000000E+00 -0.00000000000E+00 -0.12358777795E+04  0.12358777795E+04  0.50400000000E-02 0. -1.
    8880023    1    1    2    0    0 -0.20031255389E+03 -0.35909698167E+03  0.52563246511E+03  0.93764356561E+03  0.65864270000E+03 0.  1.
    8880022    1    1    2    0    0  0.20031255389E+03  0.35909698167E+03 -0.98315104163E+03  0.10765934168E+04  0.15294330000E+03 0.  0.
<mgrwt>
<rscale>  0 0.67318254E+03</rscale>
<asrwt>0</asrwt>
<pdfrwt beam="1">  1        1 0.19013504E+00 0.77645732E+03</pdfrwt>
<pdfrwt beam="2">  1       -1 0.11974757E+00 0.77645732E+03</pdfrwt>
<totfact> 0.64680421E+00</totfact>
</mgrwt>
</event>
<event>
 4    1  0.2514307E-008  0.7001789E+03  0.7818608E-02  0.9996460E-01
          1   -1    0    0  501    0  0.00000000000E+00  0.00000000000E+00  0.13777627660E+04  0.13777627660E+04  0.50400000000E-02 0. -1.
         -1   -1    0    0    0  501 -0.00000000000E+00 -0.00000000000E+00 -0.30996199411E+03  0.30996199415E+03  0.50400000000E-02 0.  1.
    8880023    1    1    2    0    0  0.13721014457E+03 -0.19394239702E+03  0.13500428302E+03  0.71307547976E+03  0.65864270000E+03 0.  1.
    8880022    1    1    2    0    0 -0.13721014457E+03  0.19394239702E+03  0.93279648889E+03  0.97464928042E+03  0.15294330000E+03 0.  0.
<mgrwt>
<rscale>  0 0.55805736E+03</rscale>
<asrwt>0</asrwt>
<pdfrwt beam="1">  1        1 0.21196350E+00 0.70017889E+03</pdfrwt>
<pdfrwt beam="2">  1       -1 0.47686462E-01 0.70017889E+03</pdfrwt>
<totfact> 0.36220009E+01</totfact>
</mgrwt>
</event>
<event>
 4    1  0.2514307E-008  0.1619985E+04  0.7818608E-02  0.8829251E-01
         -1   -1    0    0    0  501 -0.00000000000E+00  0.00000000000E+00  0.14746525490E+04  0.14746525490E+04  0.50400000000E-02 0.  1.
          1   -1    0    0  501    0  0.00000000000E+00 -0.00000000000E+00 -0.21809525366E+04  0.21809525366E+04  0.50400000000E-02 0. -1.
    8880023    1    1    2    0    0  0.99686300529E+03 -0.10939858251E+04  0.54734651718E+03  0.17099529973E+04  0.65864270000E+03 0.  1.
    8880022    1    1    2    0    0 -0.99686300529E+03  0.10939858251E+04 -0.12536465048E+04  0.19456520883E+04  0.15294330000E+03 0.  0.
<mgrwt>
<rscale>  0 0.15859108E+04</rscale>
<asrwt>0</asrwt>
<pdfrwt beam="1">  1        1 0.33553116E+00 0.16199849E+04</pdfrwt>
<pdfrwt beam="2">  1       -1 0.22686962E+00 0.16199849E+04</pdfrwt>
<totfact> 0.20691303E-01</totfact>
</mgrwt>
</event>
<event>
 4    1  0.2569265E-008  0.1392717E+04  0.7818608E-02  0.8989363E-01
         -1   -1    0    0    0  501 -0.00000000000E+00  0.00000000000E+00  0.19250300328E+04  0.19250300328E+04  0.50400000000E-02 0.  1.
          1   -1    0    0  501    0  0.00000000000E+00 -0.00000000000E+00 -0.20323430723E+04  0.20323430723E+04  0.50400000000E-02 0. -1.
    8880023    1    1    2    0    0  0.61358066082E+03  0.10627171886E+04  0.14221522551E+04  0.19905216134E+04  0.65864270000E+03 0.  1.
    8880022    1    1    2    0    0 -0.61358066082E+03 -0.10627171886E+04 -0.15294652945E+04  0.19668514917E+04  0.15294330000E+03 0.  0.
<mgrwt>
<rscale>  0 0.13519372E+04</rscale>
<asrwt>0</asrwt>
<pdfrwt beam="1">  1        1 0.31266816E+00 0.13927165E+04</pdfrwt>
<pdfrwt beam="2">  1       -1 0.29615847E+00 0.13927165E+04</pdfrwt>
<totfact> 0.94840930E-02</totfact>
</mgrwt>
</event>
<event>
 4    1  0.2514307E-008  0.1295561E+04  0.7818608E-02  0.9069403E-01
          1   -1    0    0  501    0  0.00000000000E+00  0.00000000000E+00  0.28186140186E+04  0.28186140186E+04  0.50400000000E-02 0. -1.
         -1   -1    0    0    0  501 -0.00000000000E+00 -0.00000000000E+00 -0.12269241447E+04  0.12269241447E+04  0.50400000000E-02 0.  1.
    8880023    1    1    2    0    0 -0.11053746673E+04  0.15104244756E+03 -0.71419887372E+03  0.14793773060E+04  0.65864270000E+03 0.  0.
    8880022    1    1    2    0    0  0.11053746673E+04 -0.15104244756E+03  0.23058887476E+04  0.25661608573E+04  0.15294330000E+03 0.  0.
<mgrwt>
<rscale>  0 0.12509378E+04</rscale>
<asrwt>0</asrwt>
<pdfrwt beam="1">  1        1 0.43363292E+00 0.12955606E+04</pdfrwt>
<pdfrwt beam="2">  1       -1 0.18875756E+00 0.12955606E+04</pdfrwt>
<totfact> 0.14201930E-01</totfact>
</mgrwt>
</event>
<event>
 4    1  0.2514307E-008  0.1343581E+04  0.7818608E-02  0.9028810E-01
         -1   -1    0    0    0  501 -0.00000000000E+00  0.00000000000E+00  0.10815597136E+04  0.10815597137E+04  0.50400000000E-02 0.  1.
          1   -1    0    0  501    0  0.00000000000E+00 -0.00000000000E+00 -0.16606579457E+04  0.16606579457E+04  0.50400000000E-02 0. -1.
    8880023    1    1    2    0    0 -0.10726350168E+04 -0.46995093262E+03  0.15368023365E+03  0.13523415170E+04  0.65864270000E+03 0.  1.
    8880022    1    1    2    0    0  0.10726350168E+04  0.46995093262E+03 -0.73277846574E+03  0.13898761424E+04  0.15294330000E+03 0.  0.
<mgrwt>
<rscale>  0 0.13009528E+04</rscale>
<asrwt>0</asrwt>
<pdfrwt beam="1">  1        1 0.25548584E+00 0.13435810E+04</pdfrwt>
<pdfrwt beam="2">  1       -1 0.16639380E+00 0.13435810E+04</pdfrwt>
<totfact> 0.12798660E+00</totfact>
</mgrwt>
</event>
<event>
 4    1  0.2514307E-008  0.9352661E+03  0.7818608E-02  0.9471638E-01
          1   -1    0    0  501    0  0.00000000000E+00  0.00000000000E+00  0.14407073690E+04  0.14407073690E+04  0.50400000000E-02 0. -1.
         -1   -1    0    0    0  501 -0.00000000000E+00 -0.00000000000E+00 -0.13783628878E+04  0.13783628878E+04  0.50400000000E-02 0.  1.
    8880023    1    1    2    0    0  0.66355328609E+03 -0.24689863525E+02 -0.11171093989E+04  0.14569338242E+04  0.65864270000E+03 0.  1.
    8880022    1    1    2    0    0 -0.66355328609E+03  0.24689863525E+02  0.11794538800E+04  0.13621364326E+04  0.15294330000E+03 0.  0.
<mgrwt>
<rscale>  0 0.86407559E+03</rscale>
<asrwt>0</asrwt>
<pdfrwt beam="1">  1        1 0.22164729E+00 0.93526614E+03</pdfrwt>
<pdfrwt beam="2">  1       -1 0.21205583E+00 0.93526614E+03</pdfrwt>
<totfact> 0.91166951E-01</totfact>
</mgrwt>
</event>
<event>
 4    1  0.3703479E-008  0.7979307E+03  0.7818608E-02  0.9715288E-01
          1   -1    0    0  501    0  0.00000000000E+00  0.00000000000E+00  0.22673970990E+04  0.22673970990E+04  0.50400000000E-02 0. -1.
         -1   -1    0    0    0  501 -0.00000000000E+00 -0.00000000000E+00 -0.22214349852E+04  0.22214349852E+04  0.50400000000E-02 0.  1.
    8880023    1    1    2    0    0 -0.75390352101E+02 -0.44407141010E+03 -0.21231677746E+04  0.22681566806E+04  0.65864270000E+03 0.  1.
    8880022    1    1    2    0    0  0.75390352101E+02  0.44407141010E+03  0.21691298884E+04  0.22206754036E+04  0.15294330000E+03 0.  0.
<mgrwt>
<rscale>  0 0.70113780E+03</rscale>
<asrwt>0</asrwt>
<pdfrwt beam="1">  1        1 0.34883032E+00 0.79793065E+03</pdfrwt>
<pdfrwt beam="2">  1       -1 0.34175923E+00 0.79793065E+03</pdfrwt>
<totfact> 0.37490935E-02</totfact>
</mgrwt>
</event>
<event>
 4    1  0.2514307E-008  0.1291495E+04  0.7818608E-02  0.9072940E-01
         -1   -1    0    0    0  501 -0.00000000000E+00  0.00000000000E+00  0.78134548332E+03  0.78134548334E+03  0.50400000000E-02 0.  1.
          1   -1    0    0  501    0  0.00000000000E+00 -0.00000000000E+00 -0.33786350073E+04  0.33786350073E+04  0.50400000000E-02 0. -1.
    8880023    1    1    2    0    0 -0.93132744845E+03  0.60562185312E+03  0.42165427194E+02  0.12921829494E+04  0.65864270000E+03 0.  0.
    8880022    1    1    2    0    0  0.93132744845E+03 -0.60562185312E+03 -0.26394549512E+04  0.28677975412E+04  0.15294330000E+03 0.  0.
<mgrwt>
<rscale>  0 0.12466936E+04</rscale>
<asrwt>0</asrwt>
<pdfrwt beam="1">  1        1 0.51978999E+00 0.12914948E+04</pdfrwt>
<pdfrwt beam="2">  1       -1 0.12020700E+00 0.12914948E+04</pdfrwt>
<totfact> 0.18899787E-01</totfact>
</mgrwt>
</event>
<event>
 4    1  0.2514307E-008  0.6903446E+03  0.7818608E-02  0.1003989E+00
         -1   -1    0    0    0  501 -0.00000000000E+00  0.00000000000E+00  0.54150704537E+03  0.54150704540E+03  0.50400000000E-02 0.  1.
          1   -1    0    0  501    0  0.00000000000E+00 -0.00000000000E+00 -0.10308116795E+04  0.10308116795E+04  0.50400000000E-02 0. -1.
    8880023    1    1    2    0    0  0.21593046435E+02  0.20566754501E+03  0.29215362779E+03  0.74961946828E+03  0.65864270000E+03 0.  0.
    8880022    1    1    2    0    0 -0.21593046435E+02 -0.20566754501E+03 -0.78145826189E+03  0.82269925660E+03  0.15294330000E+03 0.  0.
<mgrwt>
<rscale>  0 0.53935095E+03</rscale>
<asrwt>0</asrwt>
<pdfrwt beam="1">  1        1 0.15858641E+00 0.69034456E+03</pdfrwt>
<pdfrwt beam="2">  1       -1 0.83308776E-01 0.69034456E+03</pdfrwt>
<totfact> 0.21230522E+01</totfact>
</mgrwt>
</event>
<event>
 4    1  0.2514307E-008  0.6588531E+03  0.7818608E-02  0.1025363E+00
         -1   -1    0    0    0  501 -0.00000000000E+00  0.00000000000E+00  0.71797737679E+02  0.71797737856E+02  0.50400000000E-02 0.  1.
          1   -1    0    0  501    0  0.00000000000E+00 -0.00000000000E+00 -0.24113660445E+04  0.24113660445E+04  0.50400000000E-02 0. -1.
    8880023    1    1    2    0    0  0.15887213062E+02  0.49748037474E+01 -0.20753158173E+04  0.21773890557E+04  0.65864270000E+03 0. -1.
    8880022    1    1    2    0    0 -0.15887213062E+02 -0.49748037474E+01 -0.26425248949E+03  0.30577472660E+03  0.15294330000E+03 0.  0.
<mgrwt>
<rscale>  0 0.45799788E+03</rscale>
<asrwt>0</asrwt>
<pdfrwt beam="1">  1        1 0.37097933E+00 0.65885306E+03</pdfrwt>
<pdfrwt beam="2">  1       -1 0.11045808E-01 0.65885306E+03</pdfrwt>
<totfact> 0.88352281E+01</totfact>
</mgrwt>
</event>
<event>
 4    1  0.2514307E-008  0.8168357E+03  0.7818608E-02  0.9675510E-01
          1   -1    0    0  501    0  0.00000000000E+00  0.00000000000E+00  0.47675850053E+03  0.47675850056E+03  0.50400000000E-02 0. -1.
         -1   -1    0    0    0  501 -0.00000000000E+00 -0.00000000000E+00 -0.14361266057E+04  0.14361266057E+04  0.50400000000E-02 0.  1.
    8880023    1    1    2    0    0 -0.41875768133E+03  0.24094056651E+03 -0.11155270036E+04  0.13826138485E+04  0.65864270000E+03 0.  1.
    8880022    1    1    2    0    0  0.41875768133E+03 -0.24094056651E+03  0.15615889834E+03  0.53027125776E+03  0.15294330000E+03 0.  0.
<mgrwt>
<rscale>  0 0.72493795E+03</rscale>
<asrwt>0</asrwt>
<pdfrwt beam="1">  1        1 0.73347462E-01 0.81683570E+03</pdfrwt>
<pdfrwt beam="2">  1       -1 0.22094255E+00 0.81683570E+03</pdfrwt>
<totfact> 0.52745363E+00</totfact>
</mgrwt>
</event>
<event>
 4    1  0.2514307E-008  0.8554440E+03  0.7818608E-02  0.9601720E-01
         -1   -1    0    0    0  501 -0.00000000000E+00  0.00000000000E+00  0.14579614149E+04  0.14579614149E+04  0.50400000000E-02 0.  1.
          1   -1    0    0  501    0  0.00000000000E+00 -0.00000000000E+00 -0.40600546917E+03  0.40600546920E+03  0.50400000000E-02 0. -1.
    8880023    1    1    2    0    0  0.48997428607E+03 -0.24062306930E+03  0.26784708995E+03  0.89639641473E+03  0.65864270000E+03 0. -1.
    8880022    1    1    2    0    0 -0.48997428607E+03  0.24062306930E+03  0.78410885579E+03  0.96757046939E+03  0.15294330000E+03 0.  0.
<mgrwt>
<rscale>  0 0.77182470E+03</rscale>
<asrwt>0</asrwt>
<pdfrwt beam="1">  1        1 0.62462380E-01 0.85544402E+03</pdfrwt>
<pdfrwt beam="2">  1       -1 0.22430176E+00 0.85544402E+03</pdfrwt>
<totfact> 0.61926939E+00</totfact>
</mgrwt>
</event>
<event>
 4    1  0.2514307E-008  0.7319437E+03  0.7818608E-02  0.9884068E-01
         -1   -1    0    0    0  501 -0.00000000000E+00  0.00000000000E+00  0.41087706605E+03  0.41087706608E+03  0.50400000000E-02 0.  1.
          1   -1    0    0  501    0  0.00000000000E+00 -0.00000000000E+00 -0.21607734535E+04  0.21607734535E+04  0.50400000000E-02 0. -1.
    8880023    1    1    2    0    0  0.15716852650E+03  0.27790195263E+03  0.53442870941E+02  0.73389221805E+03  0.65864270000E+03 0.  0.
    8880022    1    1    2    0    0 -0.15716852650E+03 -0.27790195263E+03 -0.18033392584E+04  0.18377583015E+04  0.15294330000E+03 0.  0.
<mgrwt>
<rscale>  0 0.61039669E+03</rscale>
<asrwt>0</asrwt>
<pdfrwt beam="1">  1        1 0.33242668E+00 0.73194375E+03</pdfrwt>
<pdfrwt beam="2">  1       -1 0.63211858E-01 0.73194375E+03</pdfrwt>
<totfact> 0.62028702E+00</totfact>
</mgrwt>
</event>
<event>
 4    1  0.2514307E-008  0.7452491E+03  0.7818608E-02  0.9844912E-01
         -1   -1    0    0    0  501 -0.00000000000E+00  0.00000000000E+00  0.52599451217E+03  0.52599451220E+03  0.50400000000E-02 0.  1.
          1   -1    0    0  501    0  0.00000000000E+00 -0.00000000000E+00 -0.15417314417E+04  0.15417314418E+04  0.50400000000E-02 0. -1.
    8880023    1    1    2    0    0  0.34759726054E+03  0.27606998816E+02  0.21807306690E+03  0.77649988454E+03  0.65864270000E+03 0.  1.
    8880022    1    1    2    0    0 -0.34759726054E+03 -0.27606998816E+02 -0.12338099965E+04  0.12912260694E+04  0.15294330000E+03 0.  0.
<mgrwt>
<rscale>  0 0.63006989E+03</rscale>
<asrwt>0</asrwt>
<pdfrwt beam="1">  1        1 0.23718945E+00 0.74524909E+03</pdfrwt>
<pdfrwt beam="2">  1       -1 0.80922233E-01 0.74524909E+03</pdfrwt>
<totfact> 0.96886709E+00</totfact>
</mgrwt>
</event>
<event>
 4    1  0.2514307E-008  0.1401962E+04  0.7818608E-02  0.8982160E-01
         -1   -1    0    0    0  501 -0.00000000000E+00  0.00000000000E+00  0.26319511509E+04  0.26319511509E+04  0.50400000000E-02 0.  1.
          1   -1    0    0  501    0  0.00000000000E+00 -0.00000000000E+00 -0.13322924445E+04  0.13322924445E+04  0.50400000000E-02 0. -1.
    8880023    1    1    2    0    0 -0.83978623106E+03 -0.90909116850E+03  0.20688072779E+04  0.24990921204E+04  0.65864270000E+03 0.  1.
    8880022    1    1    2    0    0  0.83978623106E+03  0.90909116850E+03 -0.76914857158E+03  0.14651514750E+04  0.15294330000E+03 0.  0.
<mgrwt>
<rscale>  0 0.13615114E+04</rscale>
<asrwt>0</asrwt>
<pdfrwt beam="1">  1        1 0.20496807E+00 0.14019622E+04</pdfrwt>
<pdfrwt beam="2">  1       -1 0.40491556E+00 0.14019622E+04</pdfrwt>
<totfact> 0.54577168E-02</totfact>
</mgrwt>
</event>
<event>
 4    1  0.2514307E-008  0.1090023E+04  0.7818608E-02  0.9272246E-01
         -1   -1    0    0    0  501 -0.00000000000E+00  0.00000000000E+00  0.12679591475E+04  0.12679591475E+04  0.50400000000E-02 0.  1.
          1   -1    0    0  501    0  0.00000000000E+00 -0.00000000000E+00 -0.14834890130E+04  0.14834890130E+04  0.50400000000E-02 0. -1.
    8880023    1    1    2    0    0 -0.84414223397E+03 -0.20436252811E+03  0.83989666413E+03  0.13760729511E+04  0.65864270000E+03 0.  1.
    8880022    1    1    2    0    0  0.84414223397E+03  0.20436252811E+03 -0.10554265297E+04  0.13753752094E+04  0.15294330000E+03 0.  0.
<mgrwt>
<rscale>  0 0.10337857E+04</rscale>
<asrwt>0</asrwt>
<pdfrwt beam="1">  1        1 0.22822908E+00 0.10900231E+04</pdfrwt>
<pdfrwt beam="2">  1       -1 0.19507064E+00 0.10900231E+04</pdfrwt>
<totfact> 0.10870666E+00</totfact>
</mgrwt>
</event>
<event>
 4    1  0.2514307E-008  0.7230728E+03  0.7818608E-02  0.9912323E-01
         -1   -1    0    0    0  501 -0.00000000000E+00  0.00000000000E+00  0.88804873544E+03  0.88804873546E+03  0.50400000000E-02 0.  1.
          1   -1    0    0  501    0  0.00000000000E+00 -0.00000000000E+00 -0.85913768327E+03  0.85913768328E+03  0.50400000000E-02 0. -1.
    8880023    1    1    2    0    0  0.23378492342E+03  0.18538787428E+03  0.69408345644E+03  0.10022904295E+04  0.65864270000E+03 0.  1.
    8880022    1    1    2    0    0 -0.23378492342E+03 -0.18538787428E+03 -0.66517240426E+03  0.74489598922E+03  0.15294330000E+03 0.  0.
<mgrwt>
<rscale>  0 0.59667781E+03</rscale>
<asrwt>0</asrwt>
<pdfrwt beam="1">  1        1 0.13217503E+00 0.72307279E+03</pdfrwt>
<pdfrwt beam="2">  1       -1 0.13662288E+00 0.72307279E+03</pdfrwt>
<totfact> 0.91044987E+00</totfact>
</mgrwt>
</event>
<event>
 4    1  0.2514307E-008  0.7056621E+03  0.7818608E-02  0.9974477E-01
         -1   -1    0    0    0  501 -0.00000000000E+00  0.00000000000E+00  0.80232745280E+03  0.80232745282E+03  0.50400000000E-02 0.  1.
          1   -1    0    0  501    0  0.00000000000E+00 -0.00000000000E+00 -0.39509089204E+03  0.39509089207E+03  0.50400000000E-02 0. -1.
    8880023    1    1    2    0    0 -0.40367703193E+02 -0.25003841916E+03  0.52441481328E+03  0.87918704788E+03  0.65864270000E+03 0.  1.
    8880022    1    1    2    0    0  0.40367703193E+02  0.25003841916E+03 -0.11717825252E+03  0.31823129701E+03  0.15294330000E+03 0.  0.
<mgrwt>
<rscale>  0 0.56783696E+03</rscale>
<asrwt>0</asrwt>
<pdfrwt beam="1">  1        1 0.60783214E-01 0.70566208E+03</pdfrwt>
<pdfrwt beam="2">  1       -1 0.12343499E+00 0.70566208E+03</pdfrwt>
<totfact> 0.36155754E+01</totfact>
</mgrwt>
</event>
<event>
 4    1  0.2514307E-008  0.1199359E+04  0.7818608E-02  0.9157746E-01
         -1   -1    0    0    0  501 -0.00000000000E+00  0.00000000000E+00  0.86279427612E+03  0.86279427614E+03  0.50400000000E-02 0.  1.
          1   -1    0    0  501    0  0.00000000000E+00 -0.00000000000E+00 -0.19615100852E+04  0.19615100852E+04  0.50400000000E-02 0. -1.
    8880023    1    1    2    0    0  0.81418091491E+03  0.58460350091E+03  0.15782957508E+03  0.12096992174E+04  0.65864270000E+03 0.  0.
    8880022    1    1    2    0    0 -0.81418091491E+03 -0.58460350091E+03 -0.12565453842E+04  0.16146051440E+04  0.15294330000E+03 0.  0.
<mgrwt>
<rscale>  0 0.11500410E+04</rscale>
<asrwt>0</asrwt>
<pdfrwt beam="1">  1        1 0.30177078E+00 0.11993590E+04</pdfrwt>
<pdfrwt beam="2">  1       -1 0.13273758E+00 0.11993590E+04</pdfrwt>
<totfact> 0.14973574E+00</totfact>
</mgrwt>
</event>
<event>
 4    1  0.2514307E-008  0.9305309E+03  0.7818608E-02  0.9478697E-01
         -1   -1    0    0    0  501 -0.00000000000E+00  0.00000000000E+00  0.22148122656E+04  0.22148122656E+04  0.50400000000E-02 0.  1.
          1   -1    0    0  501    0  0.00000000000E+00 -0.00000000000E+00 -0.30689313476E+03  0.30689313480E+03  0.50400000000E-02 0. -1.
    8880023    1    1    2    0    0 -0.20736743345E+03 -0.62375979087E+03  0.13821095317E+04  0.16661676065E+04  0.65864270000E+03 0.  1.
    8880022    1    1    2    0    0  0.20736743345E+03  0.62375979087E+03  0.52580959912E+03  0.85553779385E+03  0.15294330000E+03 0.  0.
<mgrwt>
<rscale>  0 0.85872770E+03</rscale>
<asrwt>0</asrwt>
<pdfrwt beam="1">  1        1 0.47214326E-01 0.93053089E+03</pdfrwt>
<pdfrwt beam="2">  1       -1 0.34074036E+00 0.93053089E+03</pdfrwt>
<totfact> 0.15672640E+00</totfact>
</mgrwt>
</event>
<event>
 4    1  0.2514307E-008  0.7307551E+03  0.7818608E-02  0.9887744E-01
         -1   -1    0    0    0  501 -0.00000000000E+00  0.00000000000E+00  0.10318621967E+04  0.10318621967E+04  0.50400000000E-02 0.  1.
          1   -1    0    0  501    0  0.00000000000E+00 -0.00000000000E+00 -0.82347598906E+03  0.82347598907E+03  0.50400000000E-02 0. -1.
    8880023    1    1    2    0    0 -0.29159351833E+03  0.12315070274E+03  0.85170549821E+03  0.11222323010E+04  0.65864270000E+03 0.  1.
    8880022    1    1    2    0    0  0.29159351833E+03 -0.12315070274E+03 -0.64331929061E+03  0.73310588472E+03  0.15294330000E+03 0.  0.
<mgrwt>
<rscale>  0 0.60858946E+03</rscale>
<asrwt>0</asrwt>
<pdfrwt beam="1">  1        1 0.12668861E+00 0.73075514E+03</pdfrwt>
<pdfrwt beam="2">  1       -1 0.15874803E+00 0.73075514E+03</pdfrwt>
<totfact> 0.65344303E+00</totfact>
</mgrwt>
</event>
<event>
 4    1  0.2514307E-008  0.6765954E+03  0.7818608E-02  0.1011319E+00
          1   -1    0    0  501    0  0.00000000000E+00  0.00000000000E+00  0.27339513690E+04  0.27339513690E+04  0.50400000000E-02 0. -1.
         -1   -1    0    0    0  501 -0.00000000000E+00 -0.00000000000E+00 -0.75037731825E+02  0.75037731995E+02  0.50400000000E-02 0.  1.
    8880023    1    1    2    0    0 -0.47504868580E+02  0.14735825868E+03  0.18008612659E+04  0.19237678327E+04  0.65864270000E+03 0.  0.
    8880022    1    1    2    0    0  0.47504868580E+02 -0.14735825868E+03  0.85805237127E+03  0.88522126827E+03  0.15294330000E+03 0.  0.
<mgrwt>
<rscale>  0 0.50953790E+03</rscale>
<asrwt>0</asrwt>
<pdfrwt beam="1">  1        1 0.42060785E+00 0.67659543E+03</pdfrwt>
<pdfrwt beam="2">  1       -1 0.11544268E-01 0.67659543E+03</pdfrwt>
<totfact> 0.49399603E+01</totfact>
</mgrwt>
</event>
<event>
 4    1  0.2514307E-008  0.6669741E+03  0.7818608E-02  0.1017932E+00
         -1   -1    0    0    0  501 -0.00000000000E+00  0.00000000000E+00  0.20939651439E+04  0.20939651439E+04  0.50400000000E-02 0.  1.
          1   -1    0    0  501    0  0.00000000000E+00 -0.00000000000E+00 -0.15575145839E+03  0.15575145847E+03  0.50400000000E-02 0. -1.
    8880023    1    1    2    0    0  0.96349442122E+02  0.41965047002E+02  0.19528140644E+04  0.20635739038E+04  0.65864270000E+03 0.  1.
    8880022    1    1    2    0    0 -0.96349442122E+02 -0.41965047002E+02 -0.14600378831E+02  0.18614269861E+03  0.15294330000E+03 0.  0.
<mgrwt>
<rscale>  0 0.48440456E+03</rscale>
<asrwt>0</asrwt>
<pdfrwt beam="1">  1        1 0.23961764E-01 0.66697413E+03</pdfrwt>
<pdfrwt beam="2">  1       -1 0.32214847E+00 0.66697413E+03</pdfrwt>
<totfact> 0.51915294E+00</totfact>
</mgrwt>
</event>
<event>
 4    1  0.2514307E-008  0.1569760E+04  0.7818608E-02  0.8861884E-01
         -1   -1    0    0    0  501 -0.00000000000E+00  0.00000000000E+00  0.14002057021E+04  0.14002057021E+04  0.50400000000E-02 0.  1.
          1   -1    0    0  501    0  0.00000000000E+00 -0.00000000000E+00 -0.21403390470E+04  0.21403390470E+04  0.50400000000E-02 0. -1.
    8880023    1    1    2    0    0 -0.87960566802E+03 -0.11209955099E+04  0.49781638863E+03  0.16468055221E+04  0.65864270000E+03 0.  0.
    8880022    1    1    2    0    0  0.87960566802E+03  0.11209955099E+04 -0.12379497335E+04  0.18937392271E+04  0.15294330000E+03 0.  0.
<mgrwt>
<rscale>  0 0.15344152E+04</rscale>
<asrwt>0</asrwt>
<pdfrwt beam="1">  1        1 0.32928293E+00 0.15697603E+04</pdfrwt>
<pdfrwt beam="2">  1       -1 0.21541626E+00 0.15697603E+04</pdfrwt>
<totfact> 0.26480824E-01</totfact>
</mgrwt>
</event>
<event>
 4    1  0.2514307E-008  0.6641514E+03  0.7818608E-02  0.1020256E+00
          1   -1    0    0  501    0  0.00000000000E+00  0.00000000000E+00  0.32601325525E+04  0.32601325525E+04  0.50400000000E-02 0. -1.
         -1   -1    0    0    0  501 -0.00000000000E+00 -0.00000000000E+00 -0.13453226192E+03  0.13453226201E+03  0.50400000000E-02 0.  1.
    8880023    1    1    2    0    0 -0.64870720339E+02 -0.55485260810E+02  0.70809255833E+03  0.97082032424E+03  0.65864270000E+03 0.  1.
    8880022    1    1    2    0    0  0.64870720339E+02  0.55485260810E+02  0.24175077322E+04  0.24238444903E+04  0.15294330000E+03 0.  0.
<mgrwt>
<rscale>  0 0.47594254E+03</rscale>
<asrwt>0</asrwt>
<pdfrwt beam="1">  1        1 0.50155882E+00 0.66415136E+03</pdfrwt>
<pdfrwt beam="2">  1       -1 0.20697272E-01 0.66415136E+03</pdfrwt>
<totfact> 0.80342165E+00</totfact>
</mgrwt>
</event>
<event>
 4    1  0.2514307E-008  0.1046674E+04  0.7818608E-02  0.9322890E-01
         -1   -1    0    0    0  501 -0.00000000000E+00  0.00000000000E+00  0.13044658774E+04  0.13044658774E+04  0.50400000000E-02 0.  1.
          1   -1    0    0  501    0  0.00000000000E+00 -0.00000000000E+00 -0.10339168849E+04  0.10339168849E+04  0.50400000000E-02 0. -1.
    8880023    1    1    2    0    0  0.79343873645E+03 -0.17936399622E+03 -0.54183742145E+03  0.11786070037E+04  0.65864270000E+03 0.  0.
    8880022    1    1    2    0    0 -0.79343873645E+03  0.17936399622E+03  0.81238641394E+03  0.11597757586E+04  0.15294330000E+03 0.  0.
<mgrwt>
<rscale>  0 0.98702579E+03</rscale>
<asrwt>0</asrwt>
<pdfrwt beam="1">  1        1 0.15906414E+00 0.10466741E+04</pdfrwt>
<pdfrwt beam="2">  1       -1 0.20068706E+00 0.10466741E+04</pdfrwt>
<totfact> 0.21164565E+00</totfact>
</mgrwt>
</event>
<event>
 4    1  0.2514307E-008  0.1363037E+04  0.7818608E-02  0.9012950E-01
         -1   -1    0    0    0  501 -0.00000000000E+00  0.00000000000E+00  0.10416851831E+04  0.10416851831E+04  0.50400000000E-02 0.  1.
          1   -1    0    0  501    0  0.00000000000E+00 -0.00000000000E+00 -0.28914202619E+04  0.28914202619E+04  0.50400000000E-02 0. -1.
    8880023    1    1    2    0    0 -0.67857988022E+03  0.98162514249E+03 -0.22791779004E+04  0.26556582390E+04  0.65864270000E+03 0. -1.
    8880022    1    1    2    0    0  0.67857988022E+03 -0.98162514249E+03  0.42944282165E+03  0.12774472061E+04  0.15294330000E+03 0.  0.
<mgrwt>
<rscale>  0 0.13211621E+04</rscale>
<asrwt>0</asrwt>
<pdfrwt beam="1">  1        1 0.44483388E+00 0.13630366E+04</pdfrwt>
<pdfrwt beam="2">  1       -1 0.16025926E+00 0.13630366E+04</pdfrwt>
<totfact> 0.20169998E-01</totfact>
</mgrwt>
</event>
<event>
 4    1  0.2514307E-008  0.6788944E+03  0.7818608E-02  0.1009956E+00
          1   -1    0    0  501    0  0.00000000000E+00  0.00000000000E+00  0.87015586719E+03  0.87015586720E+03  0.50400000000E-02 0. -1.
         -1   -1    0    0    0  501 -0.00000000000E+00 -0.00000000000E+00 -0.13561900045E+04  0.13561900045E+04  0.50400000000E-02 0.  1.
    8880023    1    1    2    0    0  0.16209615048E+03 -0.28499792877E+02 -0.12541147941E+04  0.14260790733E+04  0.65864270000E+03 0.  1.
    8880022    1    1    2    0    0 -0.16209615048E+03  0.28499792877E+02  0.76808065683E+03  0.80026679839E+03  0.15294330000E+03 0.  0.
<mgrwt>
<rscale>  0 0.51492096E+03</rscale>
<asrwt>0</asrwt>
<pdfrwt beam="1">  1        1 0.13387013E+00 0.67889440E+03</pdfrwt>
<pdfrwt beam="2">  1       -1 0.20864461E+00 0.67889440E+03</pdfrwt>
<totfact> 0.26683974E+00</totfact>
</mgrwt>
</event>
<event>
 4    1  0.2514307E-008  0.1249752E+04  0.7818608E-02  0.9110215E-01
          1   -1    0    0  501    0  0.00000000000E+00  0.00000000000E+00  0.71524382948E+03  0.71524382950E+03  0.50400000000E-02 0. -1.
         -1   -1    0    0    0  501 -0.00000000000E+00 -0.00000000000E+00 -0.21441499569E+04  0.21441499569E+04  0.50400000000E-02 0.  1.
    8880023    1    1    2    0    0 -0.85965773666E+03  0.62374450689E+03 -0.12571844074E+04  0.17726791798E+04  0.65864270000E+03 0.  0.
    8880022    1    1    2    0    0  0.85965773666E+03 -0.62374450689E+03 -0.17172172002E+03  0.10867146066E+04  0.15294330000E+03 0.  0.
<mgrwt>
<rscale>  0 0.12030228E+04</rscale>
<asrwt>0</asrwt>
<pdfrwt beam="1">  1        1 0.11003751E+00 0.12497515E+04</pdfrwt>
<pdfrwt beam="2">  1       -1 0.32986922E+00 0.12497515E+04</pdfrwt>
<totfact> 0.54718613E-01</totfact>
</mgrwt>
</event>
<event>
 4    1  0.2514307E-008  0.6597799E+03  0.7818608E-02  0.1024383E+00
          1   -1    0    0  501    0  0.00000000000E+00  0.00000000000E+00  0.71842051479E+03  0.71842051481E+03  0.50400000000E-02 0. -1.
         -1   -1    0    0    0  501 -0.00000000000E+00 -0.00000000000E+00 -0.99642245875E+03  0.99642245877E+03  0.50400000000E-02 0.  1.
    8880023    1    1    2    0    0 -0.38129690348E+02  0.67450059002E+01 -0.87583734866E+03  0.10965403029E+04  0.65864270000E+03 0.  1.
    8880022    1    1    2    0    0  0.38129690348E+02 -0.67450059002E+01  0.59783540470E+03  0.61830267064E+03  0.15294330000E+03 0.  0.
<mgrwt>
<rscale>  0 0.46137565E+03</rscale>
<asrwt>0</asrwt>
<pdfrwt beam="1">  1        1 0.11052623E+00 0.65977994E+03</pdfrwt>
<pdfrwt beam="2">  1       -1 0.15329576E+00 0.65977994E+03</pdfrwt>
<totfact> 0.89989174E+00</totfact>
</mgrwt>
</event>
<event>
 4    1  0.2514307E-008  0.1526896E+04  0.7818608E-02  0.8890874E-01
          1   -1    0    0  501    0  0.00000000000E+00  0.00000000000E+00  0.11494517702E+04  0.11494517702E+04  0.50400000000E-02 0. -1.
         -1   -1    0    0    0  501 -0.00000000000E+00 -0.00000000000E+00 -0.18919553449E+04  0.18919553449E+04  0.50400000000E-02 0.  1.
    8880023    1    1    2    0    0 -0.84498236291E+03  0.10879363633E+04 -0.62695249599E+03  0.16506000008E+04  0.65864270000E+03 0. -1.
    8880022    1    1    2    0    0  0.84498236291E+03 -0.10879363633E+04 -0.11555107875E+03  0.13908071142E+04  0.15294330000E+03 0.  0.
<mgrwt>
<rscale>  0 0.14903826E+04</rscale>
<asrwt>0</asrwt>
<pdfrwt beam="1">  1        1 0.17683873E+00 0.15268958E+04</pdfrwt>
<pdfrwt beam="2">  1       -1 0.29107005E+00 0.15268958E+04</pdfrwt>
<totfact> 0.41585317E-01</totfact>
</mgrwt>
</event>
<event>
 4    1  0.2514307E-008  0.1835131E+04  0.7818608E-02  0.8703348E-01
          1   -1    0    0  501    0  0.00000000000E+00  0.00000000000E+00  0.30231930315E+04  0.30231930315E+04  0.50400000000E-02 0. -1.
         -1   -1    0    0    0  501 -0.00000000000E+00 -0.00000000000E+00 -0.18724087112E+04  0.18724087112E+04  0.50400000000E-02 0.  1.
    8880023    1    1    2    0    0 -0.17110763374E+04 -0.78195498199E+02 -0.10409032890E+04  0.21097835509E+04  0.65864270000E+03 0.  0.
    8880022    1    1    2    0    0  0.17110763374E+04  0.78195498199E+02  0.21916876093E+04  0.27858181918E+04  0.15294330000E+03 0.  0.
<mgrwt>
<rscale>  0 0.18055606E+04</rscale>
<asrwt>0</asrwt>
<pdfrwt beam="1">  1        1 0.46510662E+00 0.18351313E+04</pdfrwt>
<pdfrwt beam="2">  1       -1 0.28806288E+00 0.18351313E+04</pdfrwt>
<totfact> 0.20494822E-02</totfact>
</mgrwt>
</event>
<event>
 4    1  0.2514307E-008  0.7233032E+03  0.7818608E-02  0.9911563E-01
          1   -1    0    0  501    0  0.00000000000E+00  0.00000000000E+00  0.12352634441E+04  0.12352634441E+04  0.50400000000E-02 0. -1.
         -1   -1    0    0    0  501 -0.00000000000E+00 -0.00000000000E+00 -0.71080296832E+03  0.71080296834E+03  0.50400000000E-02 0.  1.
    8880023    1    1    2    0    0  0.20092605926E+03 -0.22132796434E+03 -0.49253232255E+03  0.87507465059E+03  0.65864270000E+03 0.  0.
    8880022    1    1    2    0    0 -0.20092605926E+03  0.22132796434E+03  0.10169927983E+04  0.10709917619E+04  0.15294330000E+03 0.  0.
<mgrwt>
<rscale>  0 0.59704132E+03</rscale>
<asrwt>0</asrwt>
<pdfrwt beam="1">  1        1 0.19004053E+00 0.72330323E+03</pdfrwt>
<pdfrwt beam="2">  1       -1 0.10935430E+00 0.72330323E+03</pdfrwt>
<totfact> 0.81082304E+00</totfact>
</mgrwt>
</event>
<event>
 4    1  0.2514307E-008  0.6792831E+03  0.7818608E-02  0.1009732E+00
         -1   -1    0    0    0  501 -0.00000000000E+00  0.00000000000E+00  0.25778494924E+03  0.25778494928E+03  0.50400000000E-02 0.  1.
          1   -1    0    0  501    0  0.00000000000E+00 -0.00000000000E+00 -0.10871157391E+04  0.10871157391E+04  0.50400000000E-02 0. -1.
    8880023    1    1    2    0    0 -0.14742837099E+03 -0.76682887132E+02 -0.25123517714E+03  0.72425458939E+03  0.65864270000E+03 0.  1.
    8880022    1    1    2    0    0  0.14742837099E+03  0.76682887132E+02 -0.57809561270E+03  0.62064609899E+03  0.15294330000E+03 0.  0.
<mgrwt>
<rscale>  0 0.51581254E+03</rscale>
<asrwt>0</asrwt>
<pdfrwt beam="1">  1        1 0.16724857E+00 0.67928315E+03</pdfrwt>
<pdfrwt beam="2">  1       -1 0.39659223E-01 0.67928315E+03</pdfrwt>
<totfact> 0.82452268E+01</totfact>
</mgrwt>
</event>
<event>
 4    1  0.2514307E-008  0.7890998E+03  0.7818608E-02  0.9734880E-01
         -1   -1    0    0    0  501 -0.00000000000E+00  0.00000000000E+00  0.12597876753E+04  0.12597876753E+04  0.50400000000E-02 0.  1.
          1   -1    0    0  501    0  0.00000000000E+00 -0.00000000000E+00 -0.34441915954E+03  0.34441915957E+03  0.50400000000E-02 0. -1.
    8880023    1    1    2    0    0 -0.34716865289E+03 -0.26142341749E+03  0.81154189951E+03  0.11319358364E+04  0.65864270000E+03 0.  0.
    8880022    1    1    2    0    0  0.34716865289E+03  0.26142341749E+03  0.10382661626E+03  0.47227099850E+03  0.15294330000E+03 0.  0.
<mgrwt>
<rscale>  0 0.68977500E+03</rscale>
<asrwt>0</asrwt>
<pdfrwt beam="1">  1        1 0.52987564E-01 0.78909979E+03</pdfrwt>
<pdfrwt beam="2">  1       -1 0.19381349E+00 0.78909979E+03</pdfrwt>
<totfact> 0.12459784E+01</totfact>
</mgrwt>
</event>
<event>
 4    1  0.2514307E-008  0.7739457E+03  0.7818608E-02  0.9770256E-01
         -1   -1    0    0    0  501 -0.00000000000E+00  0.00000000000E+00  0.19879370415E+04  0.19879370415E+04  0.50400000000E-02 0.  1.
          1   -1    0    0  501    0  0.00000000000E+00 -0.00000000000E+00 -0.51406678900E+03  0.51406678902E+03  0.50400000000E-02 0. -1.
    8880023    1    1    2    0    0 -0.73903252597E+02 -0.39964997796E+03  0.17997307032E+04  0.19590871869E+04  0.65864270000E+03 0.  1.
    8880022    1    1    2    0    0  0.73903252597E+02  0.39964997796E+03 -0.32586045066E+03  0.54291664365E+03  0.15294330000E+03 0.  0.
<mgrwt>
<rscale>  0 0.66983518E+03</rscale>
<asrwt>0</asrwt>
<pdfrwt beam="1">  1        1 0.79087199E-01 0.77394574E+03</pdfrwt>
<pdfrwt beam="2">  1       -1 0.30583646E+00 0.77394574E+03</pdfrwt>
<totfact> 0.13558997E+00</totfact>
</mgrwt>
</event>
<event>
 4    1  0.2514307E-008  0.1113081E+04  0.7818608E-02  0.9246630E-01
         -1   -1    0    0    0  501 -0.00000000000E+00  0.00000000000E+00  0.10104455141E+04  0.10104455141E+04  0.50400000000E-02 0.  1.
          1   -1    0    0  501    0  0.00000000000E+00 -0.00000000000E+00 -0.21232735632E+04  0.21232735632E+04  0.50400000000E-02 0. -1.
    8880023    1    1    2    0    0 -0.73891421966E+03 -0.50906186383E+03  0.54735301928E+03  0.12403804816E+04  0.65864270000E+03 0.  1.
    8880022    1    1    2    0    0  0.73891421966E+03  0.50906186383E+03 -0.16601810684E+04  0.18933385957E+04  0.15294330000E+03 0.  0.
<mgrwt>
<rscale>  0 0.10584820E+04</rscale>
<asrwt>0</asrwt>
<pdfrwt beam="1">  1        1 0.32665747E+00 0.11130806E+04</pdfrwt>
<pdfrwt beam="2">  1       -1 0.15545316E+00 0.11130806E+04</pdfrwt>
<totfact> 0.77431694E-01</totfact>
</mgrwt>
</event>
<event>
 4    1  0.2514307E-008  0.1140274E+04  0.7818608E-02  0.9217487E-01
         -1   -1    0    0    0  501 -0.00000000000E+00  0.00000000000E+00  0.16912647131E+04  0.16912647132E+04  0.50400000000E-02 0.  1.
          1   -1    0    0  501    0  0.00000000000E+00 -0.00000000000E+00 -0.14669686533E+04  0.14669686533E+04  0.50400000000E-02 0. -1.
    8880023    1    1    2    0    0 -0.89298703077E+03 -0.26265800396E+03  0.12988635144E+04  0.17283725580E+04  0.65864270000E+03 0.  0.
    8880022    1    1    2    0    0  0.89298703077E+03  0.26265800396E+03 -0.10745674546E+04  0.14298608085E+04  0.15294330000E+03 0.  0.
<mgrwt>
<rscale>  0 0.10874741E+04</rscale>
<asrwt>0</asrwt>
<pdfrwt beam="1">  1        1 0.22568749E+00 0.11402742E+04</pdfrwt>
<pdfrwt beam="2">  1       -1 0.26019457E+00 0.11402742E+04</pdfrwt>
<totfact> 0.40846601E-01</totfact>
</mgrwt>
</event>
<event>
 4    1  0.2514307E-008  0.1431552E+04  0.7818608E-02  0.8959546E-01
         -1   -1    0    0    0  501 -0.00000000000E+00  0.00000000000E+00  0.12053425024E+04  0.12053425024E+04  0.50400000000E-02 0.  1.
          1   -1    0    0  501    0  0.00000000000E+00 -0.00000000000E+00 -0.25922615530E+04  0.25922615531E+04  0.50400000000E-02 0. -1.
    8880023    1    1    2    0    0  0.45523190611E+03  0.11867156625E+04  0.50089012853E+03  0.15166513374E+04  0.65864270000E+03 0.  0.
    8880022    1    1    2    0    0 -0.45523190611E+03 -0.11867156625E+04 -0.18878091792E+04  0.22809527181E+04  0.15294330000E+03 0.  0.
<mgrwt>
<rscale>  0 0.13921148E+04</rscale>
<asrwt>0</asrwt>
<pdfrwt beam="1">  1        1 0.39880947E+00 0.14315517E+04</pdfrwt>
<pdfrwt beam="2">  1       -1 0.18543731E+00 0.14315517E+04</pdfrwt>
<totfact> 0.21233823E-01</totfact>
</mgrwt>
</event>
<event>
 4    1  0.2514307E-008  0.9804464E+03  0.7818608E-02  0.9407599E-01
         -1   -1    0    0    0  501 -0.00000000000E+00  0.00000000000E+00  0.15203692325E+04  0.15203692325E+04  0.50400000000E-02 0.  1.
          1   -1    0    0  501    0  0.00000000000E+00 -0.00000000000E+00 -0.12121870288E+04  0.12121870288E+04  0.50400000000E-02 0. -1.
    8880023    1    1    2    0    0  0.56209737035E+03 -0.45990369943E+03  0.12146657318E+04  0.15609894019E+04  0.65864270000E+03 0.  1.
    8880022    1    1    2    0    0 -0.56209737035E+03  0.45990369943E+03 -0.90648352805E+03  0.11715668594E+04  0.15294330000E+03 0.  0.
<mgrwt>
<rscale>  0 0.91452944E+03</rscale>
<asrwt>0</asrwt>
<pdfrwt beam="1">  1        1 0.18649031E+00 0.98044636E+03</pdfrwt>
<pdfrwt beam="2">  1       -1 0.23390296E+00 0.98044636E+03</pdfrwt>
<totfact> 0.94093156E-01</totfact>
</mgrwt>
</event>
<event>
 4    1  0.2514307E-008  0.6720218E+03  0.7818608E-02  0.1014253E+00
          1   -1    0    0  501    0  0.00000000000E+00  0.00000000000E+00  0.98918099349E+03  0.98918099351E+03  0.50400000000E-02 0. -1.
         -1   -1    0    0    0  501 -0.00000000000E+00 -0.00000000000E+00 -0.58868014116E+03  0.58868014118E+03  0.50400000000E-02 0.  1.
    8880023    1    1    2    0    0  0.13342810369E+03  0.44065338821E-01 -0.37957738891E+03  0.77181102689E+03  0.65864270000E+03 0.  1.
    8880022    1    1    2    0    0 -0.13342810369E+03 -0.44065338821E-01  0.78007824125E+03  0.80605010779E+03  0.15294330000E+03 0.  0.
<mgrwt>
<rscale>  0 0.49818735E+03</rscale>
<asrwt>0</asrwt>
<pdfrwt beam="1">  1        1 0.15218169E+00 0.67202178E+03</pdfrwt>
<pdfrwt beam="2">  1       -1 0.90566176E-01 0.67202178E+03</pdfrwt>
<totfact> 0.19111617E+01</totfact>
</mgrwt>
</event>
<event>
 4    1  0.2667745E-008  0.1065271E+04  0.7818608E-02  0.9300745E-01
         -1   -1    0    0    0  501 -0.00000000000E+00  0.00000000000E+00  0.14020935095E+04  0.14020935095E+04  0.50400000000E-02 0.  1.
          1   -1    0    0  501    0  0.00000000000E+00 -0.00000000000E+00 -0.26312621736E+04  0.26312621736E+04  0.50400000000E-02 0. -1.
    8880023    1    1    2    0    0 -0.40647515209E+03 -0.73196286843E+03  0.11134218001E+04  0.15409445160E+04  0.65864270000E+03 0.  1.
    8880022    1    1    2    0    0  0.40647515209E+03  0.73196286843E+03 -0.23425904642E+04  0.24924111672E+04  0.15294330000E+03 0.  0.
<mgrwt>
<rscale>  0 0.10071429E+04</rscale>
<asrwt>0</asrwt>
<pdfrwt beam="1">  1        1 0.40480956E+00 0.10652708E+04</pdfrwt>
<pdfrwt beam="2">  1       -1 0.21570669E+00 0.10652708E+04</pdfrwt>
<totfact> 0.13040396E-01</totfact>
</mgrwt>
</event>
<event>
 4    1  0.2514307E-008  0.8647585E+03  0.7818608E-02  0.9585154E-01
          1   -1    0    0  501    0  0.00000000000E+00  0.00000000000E+00  0.10117720352E+04  0.10117720352E+04  0.50400000000E-02 0. -1.
         -1   -1    0    0    0  501 -0.00000000000E+00 -0.00000000000E+00 -0.99935808766E+03  0.99935808767E+03  0.50400000000E-02 0.  1.
    8880023    1    1    2    0    0  0.53134195647E+03  0.17796869331E+03 -0.68522866997E+03  0.11033338873E+04  0.65864270000E+03 0.  1.
    8880022    1    1    2    0    0 -0.53134195647E+03 -0.17796869331E+03  0.69764261749E+03  0.90779623554E+03  0.15294330000E+03 0.  0.
<mgrwt>
<rscale>  0 0.78286608E+03</rscale>
<asrwt>0</asrwt>
<pdfrwt beam="1">  1        1 0.15565724E+00 0.86475854E+03</pdfrwt>
<pdfrwt beam="2">  1       -1 0.15374740E+00 0.86475854E+03</pdfrwt>
<totfact> 0.49284301E+00</totfact>
</mgrwt>
</event>
<event>
 4    1  0.2514307E-008  0.1253341E+04  0.7818608E-02  0.9106938E-01
         -1   -1    0    0    0  501 -0.00000000000E+00  0.00000000000E+00  0.13573468885E+04  0.13573468885E+04  0.50400000000E-02 0.  1.
          1   -1    0    0  501    0  0.00000000000E+00 -0.00000000000E+00 -0.24976219976E+04  0.24976219976E+04  0.50400000000E-02 0. -1.
    8880023    1    1    2    0    0  0.95214469309E+03  0.48007602272E+03  0.90324534041E+03  0.15448996263E+04  0.65864270000E+03 0.  1.
    8880022    1    1    2    0    0 -0.95214469309E+03 -0.48007602272E+03 -0.20435204495E+04  0.23100692597E+04  0.15294330000E+03 0.  0.
<mgrwt>
<rscale>  0 0.12067849E+04</rscale>
<asrwt>0</asrwt>
<pdfrwt beam="1">  1        1 0.38424954E+00 0.12533406E+04</pdfrwt>
<pdfrwt beam="2">  1       -1 0.20882260E+00 0.12533406E+04</pdfrwt>
<totfact> 0.17407039E-01</totfact>
</mgrwt>
</event>
<event>
 4    1  0.2514307E-008  0.7928317E+03  0.7818608E-02  0.9726515E-01
         -1   -1    0    0    0  501 -0.00000000000E+00  0.00000000000E+00  0.76866336149E+03  0.76866336150E+03  0.50400000000E-02 0.  1.
          1   -1    0    0  501    0  0.00000000000E+00 -0.00000000000E+00 -0.15016092309E+04  0.15016092309E+04  0.50400000000E-02 0. -1.
    8880023    1    1    2    0    0 -0.32502981656E+03 -0.29854236597E+03  0.50984003411E+03  0.94261285402E+03  0.65864270000E+03 0.  1.
    8880022    1    1    2    0    0  0.32502981656E+03  0.29854236597E+03 -0.12427859035E+04  0.13276597384E+04  0.15294330000E+03 0.  0.
<mgrwt>
<rscale>  0 0.69459802E+03</rscale>
<asrwt>0</asrwt>
<pdfrwt beam="1">  1        1 0.23101681E+00 0.79283172E+03</pdfrwt>
<pdfrwt beam="2">  1       -1 0.11825590E+00 0.79283172E+03</pdfrwt>
<totfact> 0.43346273E+00</totfact>
</mgrwt>
</event>
<event>
 4    1  0.2514307E-008  0.7101512E+03  0.7818608E-02  0.9957440E-01
         -1   -1    0    0    0  501 -0.00000000000E+00  0.00000000000E+00  0.29309832059E+03  0.29309832063E+03  0.50400000000E-02 0.  1.
          1   -1    0    0  501    0  0.00000000000E+00 -0.00000000000E+00 -0.15123545806E+04  0.15123545806E+04  0.50400000000E-02 0. -1.
    8880023    1    1    2    0    0 -0.19559046996E+03 -0.17957980855E+03 -0.19513663536E+03  0.73647338873E+03  0.65864270000E+03 0.  1.
    8880022    1    1    2    0    0  0.19559046996E+03  0.17957980855E+03 -0.10241196246E+04  0.10689795125E+04  0.15294330000E+03 0.  0.
<mgrwt>
<rscale>  0 0.57556466E+03</rscale>
<asrwt>0</asrwt>
<pdfrwt beam="1">  1        1 0.23266993E+00 0.71015121E+03</pdfrwt>
<pdfrwt beam="2">  1       -1 0.45092050E-01 0.71015121E+03</pdfrwt>
<totfact> 0.32435740E+01</totfact>
</mgrwt>
</event>
<event>
 4    1  0.2514307E-008  0.8419333E+03  0.7818608E-02  0.9626545E-01
          1   -1    0    0  501    0  0.00000000000E+00  0.00000000000E+00  0.11567157637E+04  0.11567157637E+04  0.50400000000E-02 0. -1.
         -1   -1    0    0    0  501 -0.00000000000E+00 -0.00000000000E+00 -0.93487504518E+03  0.93487504519E+03  0.50400000000E-02 0.  1.
    8880023    1    1    2    0    0  0.26266371172E+03  0.45392657049E+03 -0.64937399085E+03  0.10632677664E+04  0.65864270000E+03 0.  0.
    8880022    1    1    2    0    0 -0.26266371172E+03 -0.45392657049E+03  0.87121470939E+03  0.10283230425E+04  0.15294330000E+03 0.  0.
<mgrwt>
<rscale>  0 0.75563867E+03</rscale>
<asrwt>0</asrwt>
<pdfrwt beam="1">  1        1 0.17795627E+00 0.84193335E+03</pdfrwt>
<pdfrwt beam="2">  1       -1 0.14382693E+00 0.84193335E+03</pdfrwt>
<totfact> 0.45969650E+00</totfact>
</mgrwt>
</event>
<event>
 4    1  0.2514307E-008  0.7605694E+03  0.7818608E-02  0.9803636E-01
          1   -1    0    0  501    0  0.00000000000E+00  0.00000000000E+00  0.14890525437E+04  0.14890525437E+04  0.50400000000E-02 0. -1.
         -1   -1    0    0    0  501 -0.00000000000E+00 -0.00000000000E+00 -0.24794456141E+03  0.24794456146E+03  0.50400000000E-02 0.  1.
    8880023    1    1    2    0    0  0.29104341024E+03  0.24484558275E+03  0.10165594949E+04  0.12695901067E+04  0.65864270000E+03 0. -1.
    8880022    1    1    2    0    0 -0.29104341024E+03 -0.24484558275E+03  0.22454848739E+03  0.46740699849E+03  0.15294330000E+03 0.  0.
<mgrwt>
<rscale>  0 0.65167803E+03</rscale>
<asrwt>0</asrwt>
<pdfrwt beam="1">  1        1 0.22908501E+00 0.76056941E+03</pdfrwt>
<pdfrwt beam="2">  1       -1 0.38145316E-01 0.76056941E+03</pdfrwt>
<totfact> 0.45432984E+01</totfact>
</mgrwt>
</event>
<event>
 4    1  0.2514307E-008  0.7379389E+03  0.7818608E-02  0.9865992E-01
         -1   -1    0    0    0  501 -0.00000000000E+00  0.00000000000E+00  0.57845584482E+03  0.57845584484E+03  0.50400000000E-02 0.  1.
          1   -1    0    0  501    0  0.00000000000E+00 -0.00000000000E+00 -0.12009900987E+04  0.12009900987E+04  0.50400000000E-02 0. -1.
    8880023    1    1    2    0    0  0.27529585965E+03 -0.18696472510E+03  0.29253338717E+03  0.79380703426E+03  0.65864270000E+03 0.  1.
    8880022    1    1    2    0    0 -0.27529585965E+03  0.18696472510E+03 -0.91506764109E+03  0.98563890931E+03  0.15294330000E+03 0.  0.
<mgrwt>
<rscale>  0 0.61938143E+03</rscale>
<asrwt>0</asrwt>
<pdfrwt beam="1">  1        1 0.18476771E+00 0.73793890E+03</pdfrwt>
<pdfrwt beam="2">  1       -1 0.88993207E-01 0.73793890E+03</pdfrwt>
<totfact> 0.13669587E+01</totfact>
</mgrwt>
</event>
<event>
 4    1  0.2514307E-008  0.6799157E+03  0.7818608E-02  0.1009371E+00
          1   -1    0    0  501    0  0.00000000000E+00  0.00000000000E+00  0.99551827919E+03  0.99551827921E+03  0.50400000000E-02 0. -1.
         -1   -1    0    0    0  501 -0.00000000000E+00 -0.00000000000E+00 -0.11639334565E+04  0.11639334565E+04  0.50400000000E-02 0.  1.
    8880023    1    1    2    0    0 -0.12512886684E+03 -0.11321628801E+03 -0.10488997456E+04  0.12499904175E+04  0.65864270000E+03 0.  1.
    8880022    1    1    2    0    0  0.12512886684E+03  0.11321628801E+03  0.88048456834E+03  0.90946131820E+03  0.15294330000E+03 0.  0.
<mgrwt>
<rscale>  0 0.51725238E+03</rscale>
<asrwt>0</asrwt>
<pdfrwt beam="1">  1        1 0.15315666E+00 0.67991571E+03</pdfrwt>
<pdfrwt beam="2">  1       -1 0.17906669E+00 0.67991571E+03</pdfrwt>
<totfact> 0.33927099E+00</totfact>
</mgrwt>
</event>
<event>
 4    1  0.2514307E-008  0.8597972E+03  0.7818608E-02  0.9593924E-01
         -1   -1    0    0    0  501 -0.00000000000E+00  0.00000000000E+00  0.15250210242E+04  0.15250210242E+04  0.50400000000E-02 0.  1.
          1   -1    0    0  501    0  0.00000000000E+00 -0.00000000000E+00 -0.72102638220E+03  0.72102638222E+03  0.50400000000E-02 0. -1.
    8880023    1    1    2    0    0 -0.52719757088E+03  0.16584277355E+03  0.12516879667E+04  0.15185434062E+04  0.65864270000E+03 0.  1.
    8880022    1    1    2    0    0  0.52719757088E+03 -0.16584277355E+03 -0.44769332473E+03  0.72750400020E+03  0.15294330000E+03 0.  0.
<mgrwt>
<rscale>  0 0.77699625E+03</rscale>
<asrwt>0</asrwt>
<pdfrwt beam="1">  1        1 0.11092714E+00 0.85979725E+03</pdfrwt>
<pdfrwt beam="2">  1       -1 0.23461862E+00 0.85979725E+03</pdfrwt>
<totfact> 0.23494739E+00</totfact>
</mgrwt>
</event>
<event>
 4    1  0.2514307E-008  0.7004586E+03  0.7818608E-02  0.9995304E-01
          1   -1    0    0  501    0  0.00000000000E+00  0.00000000000E+00  0.10641066798E+04  0.10641066799E+04  0.50400000000E-02 0. -1.
         -1   -1    0    0    0  501 -0.00000000000E+00 -0.00000000000E+00 -0.34507600603E+03  0.34507600606E+03  0.50400000000E-02 0.  1.
    8880023    1    1    2    0    0 -0.20052195444E+03  0.12893006440E+03  0.73569859529E+02  0.70431154059E+03  0.65864270000E+03 0. -1.
    8880022    1    1    2    0    0  0.20052195444E+03 -0.12893006440E+03  0.64546081429E+03  0.70487114533E+03  0.15294330000E+03 0. -1.
<mgrwt>
<rscale>  0 0.55856621E+03</rscale>
<asrwt>0</asrwt>
<pdfrwt beam="1">  1        1 0.16370872E+00 0.70045858E+03</pdfrwt>
<pdfrwt beam="2">  1       -1 0.53088615E-01 0.70045858E+03</pdfrwt>
<totfact> 0.49741109E+01</totfact>
</mgrwt>
</event>
<event>
 4    1  0.2514307E-008  0.9117654E+03  0.7818608E-02  0.9507402E-01
         -1   -1    0    0    0  501 -0.00000000000E+00  0.00000000000E+00  0.16400906379E+04  0.16400906379E+04  0.50400000000E-02 0.  1.
          1   -1    0    0  501    0  0.00000000000E+00 -0.00000000000E+00 -0.95275021885E+03  0.95275021886E+03  0.50400000000E-02 0. -1.
    8880023    1    1    2    0    0  0.36892102180E+03  0.51127600654E+03  0.13734710565E+04  0.16485565882E+04  0.65864270000E+03 0.  0.
    8880022    1    1    2    0    0 -0.36892102180E+03 -0.51127600654E+03 -0.68613063745E+03  0.94428426856E+03  0.15294330000E+03 0.  0.
<mgrwt>
<rscale>  0 0.83740272E+03</rscale>
<asrwt>0</asrwt>
<pdfrwt beam="1">  1        1 0.14657696E+00 0.91176537E+03</pdfrwt>
<pdfrwt beam="2">  1       -1 0.25232163E+00 0.91176537E+03</pdfrwt>
<totfact> 0.11344640E+00</totfact>
</mgrwt>
</event>
<event>
 4    1  0.2514307E-008  0.1136960E+04  0.7818608E-02  0.9220980E-01
         -1   -1    0    0    0  501 -0.00000000000E+00  0.00000000000E+00  0.20535326227E+04  0.20535326227E+04  0.50400000000E-02 0.  1.
          1   -1    0    0  501    0  0.00000000000E+00 -0.00000000000E+00 -0.91023790803E+03  0.91023790805E+03  0.50400000000E-02 0. -1.
    8880023    1    1    2    0    0  0.90348475458E+03 -0.20635751422E+03  0.15648041289E+04  0.19342415293E+04  0.65864270000E+03 0.  0.
    8880022    1    1    2    0    0 -0.90348475458E+03  0.20635751422E+03 -0.42150941430E+03  0.10295290014E+04  0.15294330000E+03 0.  0.
<mgrwt>
<rscale>  0 0.10839481E+04</rscale>
<asrwt>0</asrwt>
<pdfrwt beam="1">  1        1 0.14003660E+00 0.11369601E+04</pdfrwt>
<pdfrwt beam="2">  1       -1 0.31592809E+00 0.11369601E+04</pdfrwt>
<totfact> 0.46234440E-01</totfact>
</mgrwt>
</event>
<event>
 4    1  0.2514307E-008  0.1094850E+04  0.7818608E-02  0.9266812E-01
          1   -1    0    0  501    0  0.00000000000E+00  0.00000000000E+00  0.24720268280E+04  0.24720268280E+04  0.50400000000E-02 0. -1.
         -1   -1    0    0    0  501 -0.00000000000E+00 -0.00000000000E+00 -0.51726738492E+03  0.51726738494E+03  0.50400000000E-02 0.  1.
    8880023    1    1    2    0    0 -0.67598053022E+03  0.55491975169E+03  0.33979750167E+03  0.11463673741E+04  0.65864270000E+03 0.  0.
    8880022    1    1    2    0    0  0.67598053022E+03 -0.55491975169E+03  0.16149619415E+04  0.18429268389E+04  0.15294330000E+03 0.  0.
<mgrwt>
<rscale>  0 0.10389646E+04</rscale>
<asrwt>0</asrwt>
<pdfrwt beam="1">  1        1 0.38031181E+00 0.10948497E+04</pdfrwt>
<pdfrwt beam="2">  1       -1 0.79579600E-01 0.10948497E+04</pdfrwt>
<totfact> 0.22459571E+00</totfact>
</mgrwt>
</event>
<event>
 4    1  0.2514307E-008  0.8410292E+03  0.7818608E-02  0.9628243E-01
          1   -1    0    0  501    0  0.00000000000E+00  0.00000000000E+00  0.18981052630E+04  0.18981052630E+04  0.50400000000E-02 0. -1.
         -1   -1    0    0    0  501 -0.00000000000E+00 -0.00000000000E+00 -0.77229726439E+03  0.77229726441E+03  0.50400000000E-02 0.  1.
    8880023    1    1    2    0    0 -0.13118200573E+03  0.50627181634E+03 -0.48436065752E+03  0.97053352516E+03  0.65864270000E+03 0.  1.
    8880022    1    1    2    0    0  0.13118200573E+03 -0.50627181634E+03  0.16101686562E+04  0.16998690023E+04  0.15294330000E+03 0.  0.
<mgrwt>
<rscale>  0 0.75454766E+03</rscale>
<asrwt>0</asrwt>
<pdfrwt beam="1">  1        1 0.29201619E+00 0.84102918E+03</pdfrwt>
<pdfrwt beam="2">  1       -1 0.11881496E+00 0.84102918E+03</pdfrwt>
<totfact> 0.22937627E+00</totfact>
</mgrwt>
</event>
<event>
 4    1  0.2514307E-008  0.1219257E+04  0.7818608E-02  0.9138627E-01
         -1   -1    0    0    0  501 -0.00000000000E+00  0.00000000000E+00  0.89001880732E+03  0.89001880733E+03  0.50400000000E-02 0.  1.
          1   -1    0    0  501    0  0.00000000000E+00 -0.00000000000E+00 -0.29401747392E+04  0.29401747392E+04  0.50400000000E-02 0. -1.
    8880023    1    1    2    0    0 -0.88985606548E+03 -0.51081644337E+03  0.30488091524E+03  0.12567974518E+04  0.65864270000E+03 0.  0.
    8880022    1    1    2    0    0  0.88985606548E+03  0.51081644337E+03 -0.23550368472E+04  0.25733960948E+04  0.15294330000E+03 0. -1.
<mgrwt>
<rscale>  0 0.11709989E+04</rscale>
<asrwt>0</asrwt>
<pdfrwt beam="1">  1        1 0.45233457E+00 0.12192569E+04</pdfrwt>
<pdfrwt beam="2">  1       -1 0.13692597E+00 0.12192569E+04</pdfrwt>
<totfact> 0.29045673E-01</totfact>
</mgrwt>
</event>
<event>
 4    1  0.2514307E-008  0.7938267E+03  0.7818608E-02  0.9724306E-01
          1   -1    0    0  501    0  0.00000000000E+00  0.00000000000E+00  0.34551362786E+04  0.34551362786E+04  0.50400000000E-02 0. -1.
         -1   -1    0    0    0  501 -0.00000000000E+00 -0.00000000000E+00 -0.22090747283E+03  0.22090747289E+03  0.50400000000E-02 0.  1.
    8880023    1    1    2    0    0 -0.38780524634E+03 -0.21437745325E+03  0.58611110383E+03  0.98675581267E+03  0.65864270000E+03 0.  1.
    8880022    1    1    2    0    0  0.38780524634E+03  0.21437745325E+03  0.26481177020E+04  0.26892879388E+04  0.15294330000E+03 0.  0.
<mgrwt>
<rscale>  0 0.69587858E+03</rscale>
<asrwt>0</asrwt>
<pdfrwt beam="1">  1        1 0.53155942E+00 0.79382669E+03</pdfrwt>
<pdfrwt beam="2">  1       -1 0.33985766E-01 0.79382669E+03</pdfrwt>
<totfact> 0.23808233E+00</totfact>
</mgrwt>
</event>
<event>
 4    1  0.2514307E-008  0.1112164E+04  0.7818608E-02  0.9247632E-01
         -1   -1    0    0    0  501 -0.00000000000E+00  0.00000000000E+00  0.17993430569E+04  0.17993430569E+04  0.50400000000E-02 0.  1.
          1   -1    0    0  501    0  0.00000000000E+00 -0.00000000000E+00 -0.70320084652E+03  0.70320084654E+03  0.50400000000E-02 0. -1.
    8880023    1    1    2    0    0 -0.28848142172E+03 -0.84845607885E+03  0.11396450070E+04  0.15923882054E+04  0.65864270000E+03 0.  1.
    8880022    1    1    2    0    0  0.28848142172E+03  0.84845607885E+03 -0.43502796593E+02  0.91015569808E+03  0.15294330000E+03 0.  0.
<mgrwt>
<rscale>  0 0.10575027E+04</rscale>
<asrwt>0</asrwt>
<pdfrwt beam="1">  1        1 0.10818475E+00 0.11121643E+04</pdfrwt>
<pdfrwt beam="2">  1       -1 0.27682201E+00 0.11121643E+04</pdfrwt>
<totfact> 0.12582468E+00</totfact>
</mgrwt>
</event>
<event>
 4    1  0.2514307E-008  0.1123727E+04  0.7818608E-02  0.9235088E-01
         -1   -1    0    0    0  501 -0.00000000000E+00  0.00000000000E+00  0.92962278809E+03  0.92962278811E+03  0.50400000000E-02 0.  1.
          1   -1    0    0  501    0  0.00000000000E+00 -0.00000000000E+00 -0.19102171313E+04  0.19102171313E+04  0.50400000000E-02 0. -1.
    8880023    1    1    2    0    0 -0.91007117684E+03 -0.26887905257E+02  0.38811875974E+03  0.11888645357E+04  0.65864270000E+03 0.  0.
    8880022    1    1    2    0    0  0.91007117684E+03  0.26887905257E+02 -0.13687131030E+04  0.16509753837E+04  0.15294330000E+03 0.  0.
<mgrwt>
<rscale>  0 0.10698491E+04</rscale>
<asrwt>0</asrwt>
<pdfrwt beam="1">  1        1 0.29387956E+00 0.11237272E+04</pdfrwt>
<pdfrwt beam="2">  1       -1 0.14301889E+00 0.11237272E+04</pdfrwt>
<totfact> 0.13484263E+00</totfact>
</mgrwt>
</event>
<event>
 4    1  0.2514307E-008  0.7561209E+03  0.7818608E-02  0.9815255E-01
         -1   -1    0    0    0  501 -0.00000000000E+00  0.00000000000E+00  0.98761605831E+03  0.98761605832E+03  0.50400000000E-02 0.  1.
          1   -1    0    0  501    0  0.00000000000E+00 -0.00000000000E+00 -0.10913822925E+04  0.10913822925E+04  0.50400000000E-02 0. -1.
    8880023    1    1    2    0    0  0.36972981175E+03 -0.34763583273E+02  0.79342809710E+03  0.10960141386E+04  0.65864270000E+03 0.  0.
    8880022    1    1    2    0    0 -0.36972981175E+03  0.34763583273E+02 -0.89719433127E+03  0.98298421223E+03  0.15294330000E+03 0. -1.
<mgrwt>
<rscale>  0 0.64550236E+03</rscale>
<asrwt>0</asrwt>
<pdfrwt beam="1">  1        1 0.16790497E+00 0.75612092E+03</pdfrwt>
<pdfrwt beam="2">  1       -1 0.15194093E+00 0.75612092E+03</pdfrwt>
<totfact> 0.44969305E+00</totfact>
</mgrwt>
</event>
<event>
 4    1  0.2514307E-008  0.8142322E+03  0.7818608E-02  0.9680828E-01
          1   -1    0    0  501    0  0.00000000000E+00  0.00000000000E+00  0.83806035668E+03  0.83806035670E+03  0.50400000000E-02 0. -1.
         -1   -1    0    0    0  501 -0.00000000000E+00 -0.00000000000E+00 -0.83095131089E+03  0.83095131090E+03  0.50400000000E-02 0.  1.
    8880023    1    1    2    0    0  0.11406320093E+03  0.46492302245E+03 -0.49965264423E+03  0.95531502750E+03  0.65864270000E+03 0.  0.
    8880022    1    1    2    0    0 -0.11406320093E+03 -0.46492302245E+03  0.50676169002E+03  0.71369664011E+03  0.15294330000E+03 0.  0.
<mgrwt>
<rscale>  0 0.72169849E+03</rscale>
<asrwt>0</asrwt>
<pdfrwt beam="1">  1        1 0.12893236E+00 0.81423218E+03</pdfrwt>
<pdfrwt beam="2">  1       -1 0.12783866E+00 0.81423218E+03</pdfrwt>
<totfact> 0.11089667E+01</totfact>
</mgrwt>
</event>
<event>
 4    1  0.2514307E-008  0.6759313E+03  0.7818608E-02  0.1011726E+00
         -1   -1    0    0    0  501 -0.00000000000E+00  0.00000000000E+00  0.25860070120E+03  0.25860070125E+03  0.50400000000E-02 0.  1.
          1   -1    0    0  501    0  0.00000000000E+00 -0.00000000000E+00 -0.30845550713E+04  0.30845550713E+04  0.50400000000E-02 0. -1.
    8880023    1    1    2    0    0  0.54761929568E+02 -0.14168312477E+03 -0.19515473651E+03  0.70354001607E+03  0.65864270000E+03 0.  1.
    8880022    1    1    2    0    0 -0.54761929568E+02  0.14168312477E+03 -0.26307996335E+04  0.26396157564E+04  0.15294330000E+03 0.  0.
<mgrwt>
<rscale>  0 0.50794566E+03</rscale>
<asrwt>0</asrwt>
<pdfrwt beam="1">  1        1 0.47454691E+00 0.67593134E+03</pdfrwt>
<pdfrwt beam="2">  1       -1 0.39784725E-01 0.67593134E+03</pdfrwt>
<totfact> 0.34707834E+00</totfact>
</mgrwt>
</event>
<event>
 4    1  0.2514307E-008  0.6621516E+03  0.7818608E-02  0.1022053E+00
          1   -1    0    0  501    0  0.00000000000E+00  0.00000000000E+00  0.34248365353E+03  0.34248365357E+03  0.50400000000E-02 0. -1.
         -1   -1    0    0    0  501 -0.00000000000E+00 -0.00000000000E+00 -0.68716901044E+03  0.68716901046E+03  0.50400000000E-02 0.  1.
    8880023    1    1    2    0    0 -0.63577533639E+02 -0.24339645694E+02 -0.47716193065E+03  0.81616679390E+03  0.65864270000E+03 0.  1.
    8880022    1    1    2    0    0  0.63577533639E+02  0.24339645694E+02  0.13247657375E+03  0.21348587013E+03  0.15294330000E+03 0.  0.
<mgrwt>
<rscale>  0 0.46953022E+03</rscale>
<asrwt>0</asrwt>
<pdfrwt beam="1">  1        1 0.52689793E-01 0.66215159E+03</pdfrwt>
<pdfrwt beam="2">  1       -1 0.10571831E+00 0.66215159E+03</pdfrwt>
<totfact> 0.63374056E+01</totfact>
</mgrwt>
</event>
<event>
 4    1  0.2514307E-008  0.1631233E+04  0.7818608E-02  0.8822128E-01
         -1   -1    0    0    0  501 -0.00000000000E+00  0.00000000000E+00  0.15347998036E+04  0.15347998036E+04  0.50400000000E-02 0.  1.
          1   -1    0    0  501    0  0.00000000000E+00 -0.00000000000E+00 -0.16301917567E+04  0.16301917567E+04  0.50400000000E-02 0. -1.
    8880023    1    1    2    0    0  0.11596380580E+04  0.93933435646E+03 -0.27451014609E+03  0.16541691224E+04  0.65864270000E+03 0.  0.
    8880022    1    1    2    0    0 -0.11596380580E+04 -0.93933435646E+03  0.17911819300E+03  0.15108224379E+04  0.15294330000E+03 0.  0.
<mgrwt>
<rscale>  0 0.15974299E+04</rscale>
<asrwt>0</asrwt>
<pdfrwt beam="1">  1        1 0.25079873E+00 0.16312326E+04</pdfrwt>
<pdfrwt beam="2">  1       -1 0.23612305E+00 0.16312326E+04</pdfrwt>
<totfact> 0.42653652E-01</totfact>
</mgrwt>
</event>
<event>
 4    1  0.2514307E-008  0.7009229E+03  0.7818608E-02  0.9993394E-01
         -1   -1    0    0    0  501 -0.00000000000E+00  0.00000000000E+00  0.25469941775E+03  0.25469941780E+03  0.50400000000E-02 0.  1.
          1   -1    0    0  501    0  0.00000000000E+00 -0.00000000000E+00 -0.13944649647E+04  0.13944649647E+04  0.50400000000E-02 0. -1.
    8880023    1    1    2    0    0  0.23419202969E+03  0.51350340721E+02 -0.29977103232E+03  0.76233564940E+03  0.65864270000E+03 0.  1.
    8880022    1    1    2    0    0 -0.23419202969E+03 -0.51350340721E+02 -0.83999451466E+03  0.88682873315E+03  0.15294330000E+03 0.  0.
<mgrwt>
<rscale>  0 0.55940855E+03</rscale>
<asrwt>0</asrwt>
<pdfrwt beam="1">  1        1 0.21453307E+00 0.70092294E+03</pdfrwt>
<pdfrwt beam="2">  1       -1 0.39184527E-01 0.70092294E+03</pdfrwt>
<totfact> 0.50627872E+01</totfact>
</mgrwt>
</event>
<event>
 4    1  0.2514307E-008  0.7031303E+03  0.7818608E-02  0.9984455E-01
          1   -1    0    0  501    0  0.00000000000E+00  0.00000000000E+00  0.19298992246E+04  0.19298992246E+04  0.50400000000E-02 0. -1.
         -1   -1    0    0    0  501 -0.00000000000E+00 -0.00000000000E+00 -0.13161164586E+04  0.13161164586E+04  0.50400000000E-02 0.  1.
    8880023    1    1    2    0    0  0.17986825852E+03  0.16801630228E+03 -0.12099423064E+04  0.13994115403E+04  0.65864270000E+03 0.  1.
    8880022    1    1    2    0    0 -0.17986825852E+03 -0.16801630228E+03  0.18237250723E+04  0.18466041429E+04  0.15294330000E+03 0.  0.
<mgrwt>
<rscale>  0 0.56337141E+03</rscale>
<asrwt>0</asrwt>
<pdfrwt beam="1">  1        1 0.29690757E+00 0.70313034E+03</pdfrwt>
<pdfrwt beam="2">  1       -1 0.20247945E+00 0.70313034E+03</pdfrwt>
<totfact> 0.51738079E-01</totfact>
</mgrwt>
</event>
<event>
 4    1  0.2514307E-008  0.1181717E+04  0.7818608E-02  0.9175103E-01
          1   -1    0    0  501    0  0.00000000000E+00  0.00000000000E+00  0.27646276446E+04  0.27646276446E+04  0.50400000000E-02 0. -1.
         -1   -1    0    0    0  501 -0.00000000000E+00 -0.00000000000E+00 -0.68696437980E+03  0.68696437982E+03  0.50400000000E-02 0.  1.
    8880023    1    1    2    0    0 -0.40785748399E+03  0.89235459132E+03  0.37161942585E+02  0.11823010023E+04  0.65864270000E+03 0.  0.
    8880022    1    1    2    0    0  0.40785748399E+03 -0.89235459132E+03  0.20405013222E+04  0.22692910221E+04  0.15294330000E+03 0.  0.
<mgrwt>
<rscale>  0 0.11314143E+04</rscale>
<asrwt>0</asrwt>
<pdfrwt beam="1">  1        1 0.42532733E+00 0.11817168E+04</pdfrwt>
<pdfrwt beam="2">  1       -1 0.10568683E+00 0.11817168E+04</pdfrwt>
<totfact> 0.73696067E-01</totfact>
</mgrwt>
</event>
<event>
 4    1  0.2514307E-008  0.8122189E+03  0.7818608E-02  0.9684973E-01
         -1   -1    0    0    0  501 -0.00000000000E+00  0.00000000000E+00  0.89739423196E+03  0.89739423197E+03  0.50400000000E-02 0.  1.
          1   -1    0    0  501    0  0.00000000000E+00 -0.00000000000E+00 -0.19032905883E+04  0.19032905883E+04  0.50400000000E-02 0. -1.
    8880023    1    1    2    0    0  0.71155833351E+02  0.46992150189E+03  0.66943324943E+03  0.10525400003E+04  0.65864270000E+03 0.  1.
    8880022    1    1    2    0    0 -0.71155833351E+02 -0.46992150189E+03 -0.16753296058E+04  0.17481448200E+04  0.15294330000E+03 0.  0.
<mgrwt>
<rscale>  0 0.71918559E+03</rscale>
<asrwt>0</asrwt>
<pdfrwt beam="1">  1        1 0.29281394E+00 0.81221892E+03</pdfrwt>
<pdfrwt beam="2">  1       -1 0.13806065E+00 0.81221892E+03</pdfrwt>
<totfact> 0.15695360E+00</totfact>
</mgrwt>
</event>
<event>
 4    1  0.2514307E-008  0.7072897E+03  0.7818608E-02  0.9968207E-01
          1   -1    0    0  501    0  0.00000000000E+00  0.00000000000E+00  0.14588790185E+04  0.14588790185E+04  0.50400000000E-02 0. -1.
         -1   -1    0    0    0  501 -0.00000000000E+00 -0.00000000000E+00 -0.53497666892E+03  0.53497666894E+03  0.50400000000E-02 0.  1.
    8880023    1    1    2    0    0  0.23057752845E+03  0.11524965879E+03 -0.27438710013E+03  0.75864811834E+03  0.65864270000E+03 0.  1.
    8880022    1    1    2    0    0 -0.23057752845E+03 -0.11524965879E+03  0.11982894497E+04  0.12352075691E+04  0.15294330000E+03 0.  0.
<mgrwt>
<rscale>  0 0.57066572E+03</rscale>
<asrwt>0</asrwt>
<pdfrwt beam="1">  1        1 0.22444292E+00 0.70728968E+03</pdfrwt>
<pdfrwt beam="2">  1       -1 0.82304104E-01 0.70728968E+03</pdfrwt>
<totfact> 0.10710144E+01</totfact>
</mgrwt>
</event>
<event>
 4    1  0.2514307E-008  0.1009928E+04  0.7818608E-02  0.9368683E-01
          1   -1    0    0  501    0  0.00000000000E+00  0.00000000000E+00  0.14827285548E+04  0.14827285548E+04  0.50400000000E-02 0. -1.
         -1   -1    0    0    0  501 -0.00000000000E+00 -0.00000000000E+00 -0.14366318554E+04  0.14366318554E+04  0.50400000000E-02 0.  1.
    8880023    1    1    2    0    0 -0.76147701483E+03 -0.79353097237E+02 -0.11250418432E+04  0.15118444078E+04  0.65864270000E+03 0.  0.
    8880022    1    1    2    0    0  0.76147701483E+03  0.79353097237E+02  0.11711385426E+04  0.14075160025E+04  0.15294330000E+03 0.  0.
<mgrwt>
<rscale>  0 0.94698409E+03</rscale>
<asrwt>0</asrwt>
<pdfrwt beam="1">  1        1 0.22811208E+00 0.10099279E+04</pdfrwt>
<pdfrwt beam="2">  1       -1 0.22102029E+00 0.10099279E+04</pdfrwt>
<totfact> 0.73354125E-01</totfact>
</mgrwt>
</event>
<event>
 4    1  0.2514307E-008  0.1559703E+04  0.7818608E-02  0.8868589E-01
          1   -1    0    0  501    0  0.00000000000E+00  0.00000000000E+00  0.21403688391E+04  0.21403688391E+04  0.50400000000E-02 0. -1.
         -1   -1    0    0    0  501 -0.00000000000E+00 -0.00000000000E+00 -0.13570292783E+04  0.13570292783E+04  0.50400000000E-02 0.  1.
    8880023    1    1    2    0    0  0.39750678968E+03 -0.13567797123E+04  0.12520609803E+04  0.20000824334E+04  0.65864270000E+03 0.  0.
    8880022    1    1    2    0    0 -0.39750678968E+03  0.13567797123E+04 -0.46872141954E+03  0.14973156840E+04  0.15294330000E+03 0.  0.
<mgrwt>
<rscale>  0 0.15240909E+04</rscale>
<asrwt>0</asrwt>
<pdfrwt beam="1">  1        1 0.32928751E+00 0.15597029E+04</pdfrwt>
<pdfrwt beam="2">  1       -1 0.20877374E+00 0.15597029E+04</pdfrwt>
<totfact> 0.29417302E-01</totfact>
</mgrwt>
</event>
<event>
 4    1  0.2514307E-008  0.1082125E+04  0.7818608E-02  0.9281224E-01
         -1   -1    0    0    0  501 -0.00000000000E+00  0.00000000000E+00  0.20945473043E+04  0.20945473043E+04  0.50400000000E-02 0.  1.
          1   -1    0    0  501    0  0.00000000000E+00 -0.00000000000E+00 -0.15696966964E+04  0.15696966964E+04  0.50400000000E-02 0. -1.
    8880023    1    1    2    0    0  0.77916259211E+03 -0.36067929724E+03  0.18113699197E+04  0.21099893584E+04  0.65864270000E+03 0.  0.
    8880022    1    1    2    0    0 -0.77916259211E+03  0.36067929724E+03 -0.12865193118E+04  0.15542546422E+04  0.15294330000E+03 0.  0.
<mgrwt>
<rscale>  0 0.10252997E+04</rscale>
<asrwt>0</asrwt>
<pdfrwt beam="1">  1        1 0.24149180E+00 0.10821248E+04</pdfrwt>
<pdfrwt beam="2">  1       -1 0.32223805E+00 0.10821248E+04</pdfrwt>
<totfact> 0.13929188E-01</totfact>
</mgrwt>
</event>
<event>
 4    1  0.2514307E-008  0.8114848E+03  0.7818608E-02  0.9686492E-01
          1   -1    0    0  501    0  0.00000000000E+00  0.00000000000E+00  0.95834914917E+03  0.95834914919E+03  0.50400000000E-02 0. -1.
         -1   -1    0    0    0  501 -0.00000000000E+00 -0.00000000000E+00 -0.12302944379E+04  0.12302944379E+04  0.50400000000E-02 0.  1.
    8880023    1    1    2    0    0  0.32733313528E+03 -0.34285628460E+03 -0.10116356508E+04  0.12968863904E+04  0.65864270000E+03 0.  1.
    8880022    1    1    2    0    0 -0.32733313528E+03  0.34285628460E+03  0.73969036200E+03  0.89175719677E+03  0.15294330000E+03 0.  0.
<mgrwt>
<rscale>  0 0.71826756E+03</rscale>
<asrwt>0</asrwt>
<pdfrwt beam="1">  1        1 0.14743833E+00 0.81148482E+03</pdfrwt>
<pdfrwt beam="2">  1       -1 0.18927607E+00 0.81148482E+03</pdfrwt>
<totfact> 0.30057932E+00</totfact>
</mgrwt>
</event>
<event>
 4    1  0.2514307E-008  0.8095183E+03  0.7818608E-02  0.9690581E-01
         -1   -1    0    0    0  501 -0.00000000000E+00  0.00000000000E+00  0.48245501574E+03  0.48245501577E+03  0.50400000000E-02 0.  1.
          1   -1    0    0  501    0  0.00000000000E+00 -0.00000000000E+00 -0.16360084301E+04  0.16360084301E+04  0.50400000000E-02 0. -1.
    8880023    1    1    2    0    0  0.45383570172E+03 -0.12467086260E+03  0.56136806628E+02  0.81146239313E+03  0.65864270000E+03 0.  0.
    8880022    1    1    2    0    0 -0.45383570172E+03  0.12467086260E+03 -0.12096902210E+04  0.13070010528E+04  0.15294330000E+03 0.  0.
<mgrwt>
<rscale>  0 0.71580362E+03</rscale>
<asrwt>0</asrwt>
<pdfrwt beam="1">  1        1 0.25169360E+00 0.80951830E+03</pdfrwt>
<pdfrwt beam="2">  1       -1 0.74223849E-01 0.80951830E+03</pdfrwt>
<totfact> 0.99347556E+00</totfact>
</mgrwt>
</event>
<event>
 4    1  0.2514307E-008  0.7557465E+03  0.7818608E-02  0.9816246E-01
          1   -1    0    0  501    0  0.00000000000E+00  0.00000000000E+00  0.18241097131E+04  0.18241097131E+04  0.50400000000E-02 0. -1.
         -1   -1    0    0    0  501 -0.00000000000E+00 -0.00000000000E+00 -0.27607022342E+03  0.27607022347E+03  0.50400000000E-02 0.  1.
    8880023    1    1    2    0    0 -0.36693400841E+03  0.51981085807E+02  0.34252031360E+03  0.82974271392E+03  0.65864270000E+03 0.  1.
    8880022    1    1    2    0    0  0.36693400841E+03 -0.51981085807E+02  0.12055191760E+04  0.12704372226E+04  0.15294330000E+03 0.  0.
<mgrwt>
<rscale>  0 0.64497915E+03</rscale>
<asrwt>0</asrwt>
<pdfrwt beam="1">  1        1 0.28063226E+00 0.75574652E+03</pdfrwt>
<pdfrwt beam="2">  1       -1 0.42472343E-01 0.75574652E+03</pdfrwt>
<totfact> 0.22187796E+01</totfact>
</mgrwt>
</event>
<event>
 4    1  0.2514307E-008  0.7511791E+03  0.7818608E-02  0.9828503E-01
          1   -1    0    0  501    0  0.00000000000E+00  0.00000000000E+00  0.13943763243E+04  0.13943763243E+04  0.50400000000E-02 0. -1.
         -1   -1    0    0    0  501 -0.00000000000E+00 -0.00000000000E+00 -0.97674053597E+03  0.97674053599E+03  0.50400000000E-02 0.  1.
    8880023    1    1    2    0    0  0.28355390741E+03  0.22373431588E+03 -0.79670917868E+03  0.10949957005E+04  0.65864270000E+03 0.  0.
    8880022    1    1    2    0    0 -0.28355390741E+03 -0.22373431588E+03  0.12143449670E+04  0.12761211597E+04  0.15294330000E+03 0.  0.
<mgrwt>
<rscale>  0 0.63855065E+03</rscale>
<asrwt>0</asrwt>
<pdfrwt beam="1">  1        1 0.21451943E+00 0.75117912E+03</pdfrwt>
<pdfrwt beam="2">  1       -1 0.15026777E+00 0.75117912E+03</pdfrwt>
<totfact> 0.28094957E+00</totfact>
</mgrwt>
</event>
<event>
 4    1  0.2514307E-008  0.1111197E+04  0.7818608E-02  0.9248691E-01
         -1   -1    0    0    0  501 -0.00000000000E+00  0.00000000000E+00  0.14145388553E+04  0.14145388554E+04  0.50400000000E-02 0.  1.
          1   -1    0    0  501    0  0.00000000000E+00 -0.00000000000E+00 -0.11124055459E+04  0.11124055459E+04  0.50400000000E-02 0. -1.
    8880023    1    1    2    0    0  0.60269710323E+03 -0.66159183779E+03 -0.58652477696E+03  0.12564907792E+04  0.65864270000E+03 0. -1.
    8880022    1    1    2    0    0 -0.60269710323E+03  0.66159183779E+03  0.88865808643E+03  0.12704536220E+04  0.15294330000E+03 0.  0.
<mgrwt>
<rscale>  0 0.10564681E+04</rscale>
<asrwt>0</asrwt>
<pdfrwt beam="1">  1        1 0.17113931E+00 0.11111965E+04</pdfrwt>
<pdfrwt beam="2">  1       -1 0.21762136E+00 0.11111965E+04</pdfrwt>
<totfact> 0.14042477E+00</totfact>
</mgrwt>
</event>
<event>
 4    1  0.2514307E-008  0.6657140E+03  0.7818608E-02  0.1018942E+00
         -1   -1    0    0    0  501 -0.00000000000E+00  0.00000000000E+00  0.88232927040E+03  0.88232927041E+03  0.50400000000E-02 0.  1.
          1   -1    0    0  501    0  0.00000000000E+00 -0.00000000000E+00 -0.37477435066E+03  0.37477435069E+03  0.50400000000E-02 0. -1.
    8880023    1    1    2    0    0 -0.93684093769E+02  0.24253600882E+02  0.71827099643E+03  0.97933057603E+03  0.65864270000E+03 0.  1.
    8880022    1    1    2    0    0  0.93684093769E+02 -0.24253600882E+02 -0.21071607669E+03  0.27777304507E+03  0.15294330000E+03 0.  0.
<mgrwt>
<rscale>  0 0.48070443E+03</rscale>
<asrwt>0</asrwt>
<pdfrwt beam="1">  1        1 0.57657593E-01 0.66571402E+03</pdfrwt>
<pdfrwt beam="2">  1       -1 0.13574296E+00 0.66571402E+03</pdfrwt>
<totfact> 0.30659290E+01</totfact>
</mgrwt>
</event>
<event>
 4    1  0.2514307E-008  0.9159622E+03  0.7818608E-02  0.9500878E-01
          1   -1    0    0  501    0  0.00000000000E+00  0.00000000000E+00  0.58052845230E+03  0.58052845232E+03  0.50400000000E-02 0. -1.
         -1   -1    0    0    0  501 -0.00000000000E+00 -0.00000000000E+00 -0.12783352438E+04  0.12783352438E+04  0.50400000000E-02 0.  1.
    8880023    1    1    2    0    0 -0.57161993857E+03  0.28004861732E+03 -0.19497334615E+02  0.91616970838E+03  0.65864270000E+03 0.  0.
    8880022    1    1    2    0    0  0.57161993857E+03 -0.28004861732E+03 -0.67830945689E+03  0.94269398776E+03  0.15294330000E+03 0.  0.
<mgrwt>
<rscale>  0 0.84219114E+03</rscale>
<asrwt>0</asrwt>
<pdfrwt beam="1">  1        1 0.89312070E-01 0.91596222E+03</pdfrwt>
<pdfrwt beam="2">  1       -1 0.19666696E+00 0.91596222E+03</pdfrwt>
<totfact> 0.57771102E+00</totfact>
</mgrwt>
</event>
<event>
 4    1  0.2514307E-008  0.1308255E+04  0.7818608E-02  0.9058463E-01
          1   -1    0    0  501    0  0.00000000000E+00  0.00000000000E+00  0.97610776941E+03  0.97610776942E+03  0.50400000000E-02 0. -1.
         -1   -1    0    0    0  501 -0.00000000000E+00 -0.00000000000E+00 -0.16358674576E+04  0.16358674576E+04  0.50400000000E-02 0.  1.
    8880023    1    1    2    0    0 -0.52946875328E+03 -0.99869150923E+03 -0.67305113026E+03  0.14712341491E+04  0.65864270000E+03 0.  0.
    8880022    1    1    2    0    0  0.52946875328E+03  0.99869150923E+03  0.13291442121E+02  0.11407410779E+04  0.15294330000E+03 0.  0.
<mgrwt>
<rscale>  0 0.12641796E+04</rscale>
<asrwt>0</asrwt>
<pdfrwt beam="1">  1        1 0.15017043E+00 0.13082554E+04</pdfrwt>
<pdfrwt beam="2">  1       -1 0.25167192E+00 0.13082554E+04</pdfrwt>
<totfact> 0.10425735E+00</totfact>
</mgrwt>
</event>
<event>
 4    1  0.2514307E-008  0.7338118E+03  0.7818608E-02  0.9878354E-01
          1   -1    0    0  501    0  0.00000000000E+00  0.00000000000E+00  0.11338642000E+04  0.11338642000E+04  0.50400000000E-02 0. -1.
         -1   -1    0    0    0  501 -0.00000000000E+00 -0.00000000000E+00 -0.49365322125E+03  0.49365322128E+03  0.50400000000E-02 0.  1.
    8880023    1    1    2    0    0 -0.30872499697E+02  0.32205026786E+03 -0.15989471287E+03  0.75102996727E+03  0.65864270000E+03 0.  1.
    8880022    1    1    2    0    0  0.30872499697E+02 -0.32205026786E+03  0.80010569158E+03  0.87648745397E+03  0.15294330000E+03 0. -1.
<mgrwt>
<rscale>  0 0.61321909E+03</rscale>
<asrwt>0</asrwt>
<pdfrwt beam="1">  1        1 0.17444064E+00 0.73381176E+03</pdfrwt>
<pdfrwt beam="2">  1       -1 0.75946651E-01 0.73381176E+03</pdfrwt>
<totfact> 0.21494165E+01</totfact>
</mgrwt>
</event>
<event>
 4    1  0.2514307E-008  0.7910198E+03  0.7818608E-02  0.9730560E-01
         -1   -1    0    0    0  501 -0.00000000000E+00  0.00000000000E+00  0.35100590131E+03  0.35100590135E+03  0.50400000000E-02 0.  1.
          1   -1    0    0  501    0  0.00000000000E+00 -0.00000000000E+00 -0.15457456372E+04  0.15457456372E+04  0.50400000000E-02 0. -1.
    8880023    1    1    2    0    0 -0.13767708638E+03 -0.41586904790E+03 -0.22607590249E+03  0.82269226632E+03  0.65864270000E+03 0.  0.
    8880022    1    1    2    0    0  0.13767708638E+03  0.41586904790E+03 -0.96866383337E+03  0.10740592722E+04  0.15294330000E+03 0.  0.
<mgrwt>
<rscale>  0 0.69226028E+03</rscale>
<asrwt>0</asrwt>
<pdfrwt beam="1">  1        1 0.23780702E+00 0.79101975E+03</pdfrwt>
<pdfrwt beam="2">  1       -1 0.54000909E-01 0.79101975E+03</pdfrwt>
<totfact> 0.21670350E+01</totfact>
</mgrwt>
</event>
<event>
 4    1  0.2514307E-008  0.1341765E+04  0.7818608E-02  0.9030307E-01
         -1   -1    0    0    0  501 -0.00000000000E+00  0.00000000000E+00  0.76130416745E+03  0.76130416746E+03  0.50400000000E-02 0.  1.
          1   -1    0    0  501    0  0.00000000000E+00 -0.00000000000E+00 -0.24148685890E+04  0.24148685890E+04  0.50400000000E-02 0. -1.
    8880023    1    1    2    0    0  0.93597480538E+03  0.70033800877E+03 -0.28841249196E+03  0.13724117948E+04  0.65864270000E+03 0.  1.
    8880022    1    1    2    0    0 -0.93597480538E+03 -0.70033800877E+03 -0.13651519296E+04  0.18037609616E+04  0.15294330000E+03 0.  0.
<mgrwt>
<rscale>  0 0.12990646E+04</rscale>
<asrwt>0</asrwt>
<pdfrwt beam="1">  1        1 0.37151824E+00 0.13417646E+04</pdfrwt>
<pdfrwt beam="2">  1       -1 0.11712372E+00 0.13417646E+04</pdfrwt>
<totfact> 0.98936329E-01</totfact>
</mgrwt>
</event>
<event>
 4    1  0.2514307E-008  0.9301285E+03  0.7818608E-02  0.9479300E-01
         -1   -1    0    0    0  501 -0.00000000000E+00  0.00000000000E+00  0.16855773903E+04  0.16855773903E+04  0.50400000000E-02 0.  1.
          1   -1    0    0  501    0  0.00000000000E+00 -0.00000000000E+00 -0.54431539159E+03  0.54431539162E+03  0.50400000000E-02 0. -1.
    8880023    1    1    2    0    0  0.65631669992E+03 -0.24027060168E+02  0.12381930721E+04  0.15486320416E+04  0.65864270000E+03 0.  0.
    8880022    1    1    2    0    0 -0.65631669992E+03  0.24027060168E+02 -0.96931073454E+02  0.68126074027E+03  0.15294330000E+03 0.  0.
<mgrwt>
<rscale>  0 0.85827271E+03</rscale>
<asrwt>0</asrwt>
<pdfrwt beam="1">  1        1 0.83740831E-01 0.93012855E+03</pdfrwt>
<pdfrwt beam="2">  1       -1 0.25931960E+00 0.93012855E+03</pdfrwt>
<totfact> 0.24297248E+00</totfact>
</mgrwt>
</event>
<event>
 4    1  0.2514307E-008  0.1247774E+04  0.7818608E-02  0.9112026E-01
         -1   -1    0    0    0  501 -0.00000000000E+00  0.00000000000E+00  0.16293615522E+04  0.16293615522E+04  0.50400000000E-02 0.  1.
          1   -1    0    0  501    0  0.00000000000E+00 -0.00000000000E+00 -0.16053877822E+04  0.16053877823E+04  0.50400000000E-02 0. -1.
    8880023    1    1    2    0    0 -0.75170945846E+03 -0.74703535737E+03  0.11385661520E+04  0.16891631135E+04  0.65864270000E+03 0.  0.
    8880022    1    1    2    0    0  0.75170945846E+03  0.74703535737E+03 -0.11145923821E+04  0.15455862209E+04  0.15294330000E+03 0.  0.
<mgrwt>
<rscale>  0 0.12009491E+04</rscale>
<asrwt>0</asrwt>
<pdfrwt beam="1">  1        1 0.24698274E+00 0.12477737E+04</pdfrwt>
<pdfrwt beam="2">  1       -1 0.25067101E+00 0.12477737E+04</pdfrwt>
<totfact> 0.37220169E-01</totfact>
</mgrwt>
</event>
<event>
 4    1  0.2514307E-008  0.9248449E+03  0.7818608E-02  0.9487270E-01
         -1   -1    0    0    0  501 -0.00000000000E+00  0.00000000000E+00  0.14244251567E+04  0.14244251567E+04  0.50400000000E-02 0.  1.
          1   -1    0    0  501    0  0.00000000000E+00 -0.00000000000E+00 -0.63910987971E+03  0.63910987973E+03  0.50400000000E-02 0. -1.
    8880023    1    1    2    0    0  0.18492159297E+03 -0.62235997604E+03 -0.12685274651E+03  0.93350402296E+03  0.65864270000E+03 0.  0.
    8880022    1    1    2    0    0 -0.18492159297E+03  0.62235997604E+03  0.91216802349E+03  0.11300310135E+04  0.15294330000E+03 0.  0.
<mgrwt>
<rscale>  0 0.85228899E+03</rscale>
<asrwt>0</asrwt>
<pdfrwt beam="1">  1        1 0.98324598E-01 0.92484493E+03</pdfrwt>
<pdfrwt beam="2">  1       -1 0.21914233E+00 0.92484493E+03</pdfrwt>
<totfact> 0.35331261E+00</totfact>
</mgrwt>
</event>
<event>
 4    1  0.2514307E-008  0.7716143E+03  0.7818608E-02  0.9775917E-01
         -1   -1    0    0    0  501 -0.00000000000E+00  0.00000000000E+00  0.22192777173E+04  0.22192777173E+04  0.50400000000E-02 0.  1.
          1   -1    0    0  501    0  0.00000000000E+00 -0.00000000000E+00 -0.98839080059E+03  0.98839080060E+03  0.50400000000E-02 0. -1.
    8880023    1    1    2    0    0 -0.38117511902E+03  0.12760850357E+03  0.21003765914E+04  0.22376260710E+04  0.65864270000E+03 0.  1.
    8880022    1    1    2    0    0  0.38117511902E+03 -0.12760850357E+03 -0.86948967466E+03  0.97004244696E+03  0.15294330000E+03 0.  0.
<mgrwt>
<rscale>  0 0.66671139E+03</rscale>
<asrwt>0</asrwt>
<pdfrwt beam="1">  1        1 0.15206012E+00 0.77161429E+03</pdfrwt>
<pdfrwt beam="2">  1       -1 0.34142734E+00 0.77161429E+03</pdfrwt>
<totfact> 0.29164941E-01</totfact>
</mgrwt>
</event>
<event>
 4    1  0.2514307E-008  0.7518734E+03  0.7818608E-02  0.9826620E-01
          1   -1    0    0  501    0  0.00000000000E+00  0.00000000000E+00  0.85538399696E+03  0.85538399697E+03  0.50400000000E-02 0. -1.
         -1   -1    0    0    0  501 -0.00000000000E+00 -0.00000000000E+00 -0.63390860418E+03  0.63390860420E+03  0.50400000000E-02 0.  1.
    8880023    1    1    2    0    0  0.15968214539E+03 -0.32558402241E+03 -0.32229519544E+03  0.81803896146E+03  0.65864270000E+03 0.  0.
    8880022    1    1    2    0    0 -0.15968214539E+03  0.32558402241E+03  0.54377058821E+03  0.67125363971E+03  0.15294330000E+03 0.  0.
<mgrwt>
<rscale>  0 0.63953335E+03</rscale>
<asrwt>0</asrwt>
<pdfrwt beam="1">  1        1 0.13159754E+00 0.75187336E+03</pdfrwt>
<pdfrwt beam="2">  1       -1 0.97524401E-01 0.75187336E+03</pdfrwt>
<totfact> 0.20552437E+01</totfact>
</mgrwt>
</event>
<event>
 4    1  0.2514307E-008  0.7792771E+03  0.7818608E-02  0.9757538E-01
          1   -1    0    0  501    0  0.00000000000E+00  0.00000000000E+00  0.85376625140E+03  0.85376625141E+03  0.50400000000E-02 0. -1.
         -1   -1    0    0    0  501 -0.00000000000E+00 -0.00000000000E+00 -0.85240782183E+03  0.85240782184E+03  0.50400000000E-02 0.  1.
    8880023    1    1    2    0    0  0.33773821430E+03 -0.24371193611E+03 -0.58245712069E+03  0.97289727767E+03  0.65864270000E+03 0.  1.
    8880022    1    1    2    0    0 -0.33773821430E+03  0.24371193611E+03  0.58381555026E+03  0.73327679558E+03  0.15294330000E+03 0.  0.
<mgrwt>
<rscale>  0 0.67691953E+03</rscale>
<asrwt>0</asrwt>
<pdfrwt beam="1">  1        1 0.13134865E+00 0.77927711E+03</pdfrwt>
<pdfrwt beam="2">  1       -1 0.13113966E+00 0.77927711E+03</pdfrwt>
<totfact> 0.10133017E+01</totfact>
</mgrwt>
</event>
<event>
 4    1  0.2514307E-008  0.8359559E+03  0.7818608E-02  0.9637853E-01
         -1   -1    0    0    0  501 -0.00000000000E+00  0.00000000000E+00  0.11640599222E+04  0.11640599222E+04  0.50400000000E-02 0.  1.
          1   -1    0    0  501    0  0.00000000000E+00 -0.00000000000E+00 -0.42592426081E+03  0.42592426084E+03  0.50400000000E-02 0. -1.
    8880023    1    1    2    0    0  0.39500021567E+03 -0.33013151552E+03  0.27265376771E+03  0.87929646379E+03  0.65864270000E+03 0.  0.
    8880022    1    1    2    0    0 -0.39500021567E+03  0.33013151552E+03  0.46548189364E+03  0.71068771922E+03  0.15294330000E+03 0.  0.
<mgrwt>
<rscale>  0 0.74840659E+03</rscale>
<asrwt>0</asrwt>
<pdfrwt beam="1">  1        1 0.65526811E-01 0.83595586E+03</pdfrwt>
<pdfrwt beam="2">  1       -1 0.17908614E+00 0.83595586E+03</pdfrwt>
<totfact> 0.11882779E+01</totfact>
</mgrwt>
</event>
<event>
 4    1  0.2514307E-008  0.2560154E+04  0.7818608E-02  0.8389032E-01
         -1   -1    0    0    0  501 -0.00000000000E+00  0.00000000000E+00  0.21030122799E+04  0.21030122799E+04  0.50400000000E-02 0.  1.
          1   -1    0    0  501    0  0.00000000000E+00 -0.00000000000E+00 -0.34053764137E+04  0.34053764137E+04  0.50400000000E-02 0. -1.
    8880023    1    1    2    0    0  0.23863086748E+04 -0.65276863076E+03 -0.15889670493E+04  0.30131714964E+04  0.65864270000E+03 0.  0.
    8880022    1    1    2    0    0 -0.23863086748E+04  0.65276863076E+03  0.28660291558E+03  0.24952171972E+04  0.15294330000E+03 0.  0.
<mgrwt>
<rscale>  0 0.25395433E+04</rscale>
<asrwt>0</asrwt>
<pdfrwt beam="1">  1        1 0.52390406E+00 0.25601535E+04</pdfrwt>
<pdfrwt beam="2">  1       -1 0.32354035E+00 0.25601535E+04</pdfrwt>
<totfact> 0.57262942E-03</totfact>
</mgrwt>
</event>
<event>
 4    1  0.2514307E-008  0.7217674E+03  0.7818608E-02  0.9916650E-01
         -1   -1    0    0    0  501 -0.00000000000E+00  0.00000000000E+00  0.55326371991E+03  0.55326371994E+03  0.50400000000E-02 0.  1.
          1   -1    0    0  501    0  0.00000000000E+00 -0.00000000000E+00 -0.21840006036E+04  0.21840006036E+04  0.50400000000E-02 0. -1.
    8880023    1    1    2    0    0 -0.28677710479E+03 -0.69977764429E+02  0.29742747193E+03  0.78064800177E+03  0.65864270000E+03 0.  0.
    8880022    1    1    2    0    0  0.28677710479E+03  0.69977764429E+02 -0.19281643556E+04  0.19566163218E+04  0.15294330000E+03 0. -1.
<mgrwt>
<rscale>  0 0.59461081E+03</rscale>
<asrwt>0</asrwt>
<pdfrwt beam="1">  1        1 0.33600009E+00 0.72176742E+03</pdfrwt>
<pdfrwt beam="2">  1       -1 0.85117496E-01 0.72176742E+03</pdfrwt>
<totfact> 0.32357530E+00</totfact>
</mgrwt>
</event>
<event>
 4    1  0.2514307E-008  0.7619923E+03  0.7818608E-02  0.9799977E-01
          1   -1    0    0  501    0  0.00000000000E+00  0.00000000000E+00  0.27251857962E+03  0.27251857967E+03  0.50400000000E-02 0. -1.
         -1   -1    0    0    0  501 -0.00000000000E+00 -0.00000000000E+00 -0.14779927034E+04  0.14779927034E+04  0.50400000000E-02 0.  1.
    8880023    1    1    2    0    0 -0.35145953943E+03  0.15263778842E+03 -0.10752543970E+04  0.13178787224E+04  0.65864270000E+03 0.  1.
    8880022    1    1    2    0    0  0.35145953943E+03 -0.15263778842E+03 -0.13021972673E+03  0.43263256067E+03  0.15294330000E+03 0.  0.
<mgrwt>
<rscale>  0 0.65363798E+03</rscale>
<asrwt>0</asrwt>
<pdfrwt beam="1">  1        1 0.41925936E-01 0.76199233E+03</pdfrwt>
<pdfrwt beam="2">  1       -1 0.22738349E+00 0.76199233E+03</pdfrwt>
<totfact> 0.10069765E+01</totfact>
</mgrwt>
</event>
<event>
 4    1  0.2514307E-008  0.8706685E+03  0.7818608E-02  0.9574861E-01
         -1   -1    0    0    0  501 -0.00000000000E+00  0.00000000000E+00  0.64776873207E+03  0.64776873209E+03  0.50400000000E-02 0.  1.
          1   -1    0    0  501    0  0.00000000000E+00 -0.00000000000E+00 -0.16304210970E+04  0.16304210970E+04  0.50400000000E-02 0. -1.
    8880023    1    1    2    0    0  0.51701360474E+03  0.23864270180E+03  0.25502115151E+03  0.90724825742E+03  0.65864270000E+03 0.  1.
    8880022    1    1    2    0    0 -0.51701360474E+03 -0.23864270180E+03 -0.12376735164E+04  0.13709415717E+04  0.15294330000E+03 0.  0.
<mgrwt>
<rscale>  0 0.78982637E+03</rscale>
<asrwt>0</asrwt>
<pdfrwt beam="1">  1        1 0.25083401E+00 0.87066849E+03</pdfrwt>
<pdfrwt beam="2">  1       -1 0.99656729E-01 0.87066849E+03</pdfrwt>
<totfact> 0.52325528E+00</totfact>
</mgrwt>
</event>
<event>
 4    1  0.2514307E-008  0.9324261E+03  0.7818608E-02  0.9475863E-01
         -1   -1    0    0    0  501 -0.00000000000E+00  0.00000000000E+00  0.80072260016E+03  0.80072260018E+03  0.50400000000E-02 0.  1.
          1   -1    0    0  501    0  0.00000000000E+00 -0.00000000000E+00 -0.11275414059E+04  0.11275414059E+04  0.50400000000E-02 0. -1.
    8880023    1    1    2    0    0 -0.46485620321E+03  0.46852639566E+03  0.32566351607E+03  0.98766148303E+03  0.65864270000E+03 0.  0.
    8880022    1    1    2    0    0  0.46485620321E+03 -0.46852639566E+03 -0.65248232181E+03  0.94060252306E+03  0.15294330000E+03 0.  0.
<mgrwt>
<rscale>  0 0.86086966E+03</rscale>
<asrwt>0</asrwt>
<pdfrwt beam="1">  1        1 0.17346791E+00 0.93242613E+03</pdfrwt>
<pdfrwt beam="2">  1       -1 0.12318809E+00 0.93242613E+03</pdfrwt>
<totfact> 0.70908130E+00</totfact>
</mgrwt>
</event>
<event>
 4    1  0.2514307E-008  0.1825844E+04  0.7818608E-02  0.8708374E-01
         -1   -1    0    0    0  501 -0.00000000000E+00  0.00000000000E+00  0.19583085871E+04  0.19583085871E+04  0.50400000000E-02 0.  1.
          1   -1    0    0  501    0  0.00000000000E+00 -0.00000000000E+00 -0.19520747327E+04  0.19520747327E+04  0.50400000000E-02 0. -1.
    8880023    1    1    2    0    0 -0.16118669803E+04  0.54934473192E+03  0.83808064378E+03  0.20090007885E+04  0.65864270000E+03 0.  0.
    8880022    1    1    2    0    0  0.16118669803E+04 -0.54934473192E+03 -0.83184678936E+03  0.19013825314E+04  0.15294330000E+03 0.  0.
<mgrwt>
<rscale>  0 0.17961045E+04</rscale>
<asrwt>0</asrwt>
<pdfrwt beam="1">  1        1 0.30031919E+00 0.18258436E+04</pdfrwt>
<pdfrwt beam="2">  1       -1 0.30127825E+00 0.18258436E+04</pdfrwt>
<totfact> 0.94523195E-02</totfact>
</mgrwt>
</event>
<event>
 4    1  0.2514307E-008  0.8015480E+03  0.7818608E-02  0.9707459E-01
         -1   -1    0    0    0  501 -0.00000000000E+00  0.00000000000E+00  0.28863463883E+03  0.28863463887E+03  0.50400000000E-02 0.  1.
          1   -1    0    0  501    0  0.00000000000E+00 -0.00000000000E+00 -0.23405259668E+04  0.23405259668E+04  0.50400000000E-02 0. -1.
    8880023    1    1    2    0    0 -0.30313093055E+03 -0.34173172788E+03 -0.19876332901E+04  0.21431671044E+04  0.65864270000E+03 0. -1.
    8880022    1    1    2    0    0  0.30313093055E+03  0.34173172788E+03 -0.64258037866E+02  0.48599350134E+03  0.15294330000E+03 0.  0.
<mgrwt>
<rscale>  0 0.70574419E+03</rscale>
<asrwt>0</asrwt>
<pdfrwt beam="1">  1        1 0.36008091E+00 0.80154797E+03</pdfrwt>
<pdfrwt beam="2">  1       -1 0.44405331E-01 0.80154797E+03</pdfrwt>
<totfact> 0.91431589E+00</totfact>
</mgrwt>
</event>
<event>
 4    1  0.2514307E-008  0.7303350E+03  0.7818608E-02  0.9889051E-01
          1   -1    0    0  501    0  0.00000000000E+00  0.00000000000E+00  0.13752371392E+04  0.13752371392E+04  0.50400000000E-02 0. -1.
         -1   -1    0    0    0  501 -0.00000000000E+00 -0.00000000000E+00 -0.45248066380E+03  0.45248066383E+03  0.50400000000E-02 0.  1.
    8880023    1    1    2    0    0  0.99986098857E+02 -0.29930210418E+03 -0.10860937411E+03  0.73836655662E+03  0.65864270000E+03 0.  0.
    8880022    1    1    2    0    0 -0.99986098857E+02  0.29930210418E+03  0.10313658495E+04  0.10893512464E+04  0.15294330000E+03 0.  0.
<mgrwt>
<rscale>  0 0.60794844E+03</rscale>
<asrwt>0</asrwt>
<pdfrwt beam="1">  1        1 0.21157495E+00 0.73033498E+03</pdfrwt>
<pdfrwt beam="2">  1       -1 0.69612409E-01 0.73033498E+03</pdfrwt>
<totfact> 0.17302572E+01</totfact>
</mgrwt>
</event>
<event>
 4    1  0.2514307E-008  0.1501801E+04  0.7818608E-02  0.8908365E-01
          1   -1    0    0  501    0  0.00000000000E+00  0.00000000000E+00  0.17415707552E+04  0.17415707552E+04  0.50400000000E-02 0. -1.
         -1   -1    0    0    0  501 -0.00000000000E+00 -0.00000000000E+00 -0.19164172590E+04  0.19164172590E+04  0.50400000000E-02 0.  1.
    8880023    1    1    2    0    0  0.21396705726E+03 -0.13325972056E+04 -0.12274268211E+04  0.19395834659E+04  0.65864270000E+03 0.  0.
    8880022    1    1    2    0    0 -0.21396705726E+03  0.13325972056E+04  0.10525803173E+04  0.17184045482E+04  0.15294330000E+03 0.  0.
<mgrwt>
<rscale>  0 0.14645648E+04</rscale>
<asrwt>0</asrwt>
<pdfrwt beam="1">  1        1 0.26793396E+00 0.15018014E+04</pdfrwt>
<pdfrwt beam="2">  1       -1 0.29483342E+00 0.15018014E+04</pdfrwt>
<totfact> 0.15033750E-01</totfact>
</mgrwt>
</event>
<event>
 4    1  0.2514307E-008  0.7961022E+03  0.7818608E-02  0.9719288E-01
         -1   -1    0    0    0  501 -0.00000000000E+00  0.00000000000E+00  0.68116440465E+03  0.68116440467E+03  0.50400000000E-02 0.  1.
          1   -1    0    0  501    0  0.00000000000E+00 -0.00000000000E+00 -0.11597289844E+04  0.11597289844E+04  0.50400000000E-02 0. -1.
    8880023    1    1    2    0    0  0.27035740789E+03 -0.35619572050E+03  0.36358103115E+03  0.87519705883E+03  0.65864270000E+03 0.  1.
    8880022    1    1    2    0    0 -0.27035740789E+03  0.35619572050E+03 -0.84214561093E+03  0.96569633029E+03  0.15294330000E+03 0.  0.
<mgrwt>
<rscale>  0 0.69879910E+03</rscale>
<asrwt>0</asrwt>
<pdfrwt beam="1">  1        1 0.17841984E+00 0.79610221E+03</pdfrwt>
<pdfrwt beam="2">  1       -1 0.10479452E+00 0.79610221E+03</pdfrwt>
<totfact> 0.10055153E+01</totfact>
</mgrwt>
</event>
<event>
 4    1  0.2514307E-008  0.7822675E+03  0.7818608E-02  0.9750537E-01
          1   -1    0    0  501    0  0.00000000000E+00  0.00000000000E+00  0.34312422742E+04  0.34312422742E+04  0.50400000000E-02 0. -1.
         -1   -1    0    0    0  501 -0.00000000000E+00 -0.00000000000E+00 -0.32178584292E+03  0.32178584296E+03  0.50400000000E-02 0.  1.
    8880023    1    1    2    0    0 -0.34976753769E+03  0.23620960158E+03  0.19769091698E+03  0.80686071364E+03  0.65864270000E+03 0.  0.
    8880022    1    1    2    0    0  0.34976753769E+03 -0.23620960158E+03  0.29117655143E+04  0.29461674035E+04  0.15294330000E+03 0. -1.
<mgrwt>
<rscale>  0 0.68085922E+03</rscale>
<asrwt>0</asrwt>
<pdfrwt beam="1">  1        1 0.52788343E+00 0.78226755E+03</pdfrwt>
<pdfrwt beam="2">  1       -1 0.49505514E-01 0.78226755E+03</pdfrwt>
<totfact> 0.12504579E+00</totfact>
</mgrwt>
</event>
<event>
 4    1  0.2514307E-008  0.1110810E+04  0.7818608E-02  0.9249115E-01
         -1   -1    0    0    0  501 -0.00000000000E+00  0.00000000000E+00  0.50957845288E+03  0.50957845290E+03  0.50400000000E-02 0.  1.
          1   -1    0    0  501    0  0.00000000000E+00 -0.00000000000E+00 -0.40718878667E+04  0.40718878667E+04  0.50400000000E-02 0. -1.
    8880023    1    1    2    0    0 -0.84088484175E+03  0.30496244309E+03 -0.23865746219E+03  0.11361588794E+04  0.65864270000E+03 0.  0.
    8880022    1    1    2    0    0  0.84088484175E+03 -0.30496244309E+03 -0.33236519517E+04  0.34453074402E+04  0.15294330000E+03 0.  0.
<mgrwt>
<rscale>  0 0.10560552E+04</rscale>
<asrwt>0</asrwt>
<pdfrwt beam="1">  1        1 0.62644427E+00 0.11108103E+04</pdfrwt>
<pdfrwt beam="2">  1       -1 0.78396688E-01 0.11108103E+04</pdfrwt>
<totfact> 0.13956605E-01</totfact>
</mgrwt>
</event>
<event>
 4    1  0.2514307E-008  0.6719188E+03  0.7818608E-02  0.1014323E+00
          1   -1    0    0  501    0  0.00000000000E+00  0.00000000000E+00  0.90022700612E+03  0.90022700614E+03  0.50400000000E-02 0. -1.
         -1   -1    0    0    0  501 -0.00000000000E+00 -0.00000000000E+00 -0.65103947851E+03  0.65103947853E+03  0.50400000000E-02 0.  1.
    8880023    1    1    2    0    0  0.87823000795E+02 -0.99758428794E+02 -0.45961125124E+03  0.81407452492E+03  0.65864270000E+03 0.  1.
    8880022    1    1    2    0    0 -0.87823000795E+02  0.99758428794E+02  0.70879877886E+03  0.73719195975E+03  0.15294330000E+03 0.  0.
<mgrwt>
<rscale>  0 0.49792052E+03</rscale>
<asrwt>0</asrwt>
<pdfrwt beam="1">  1        1 0.13849646E+00 0.67191877E+03</pdfrwt>
<pdfrwt beam="2">  1       -1 0.10015992E+00 0.67191877E+03</pdfrwt>
<totfact> 0.17950150E+01</totfact>
</mgrwt>
</event>
<event>
 4    1  0.2514307E-008  0.6692715E+03  0.7818608E-02  0.1016191E+00
          1   -1    0    0  501    0  0.00000000000E+00  0.00000000000E+00  0.16003688096E+04  0.16003688096E+04  0.50400000000E-02 0. -1.
         -1   -1    0    0    0  501 -0.00000000000E+00 -0.00000000000E+00 -0.52628601594E+03  0.52628601597E+03  0.50400000000E-02 0.  1.
    8880023    1    1    2    0    0 -0.52145401965E+02  0.10674754610E+03 -0.30396587598E+03  0.73506437920E+03  0.65864270000E+03 0.  1.
    8880022    1    1    2    0    0  0.52145401965E+02 -0.10674754610E+03  0.13780486696E+04  0.13915904464E+04  0.15294330000E+03 0.  0.
<mgrwt>
<rscale>  0 0.49086732E+03</rscale>
<asrwt>0</asrwt>
<pdfrwt beam="1">  1        1 0.24621059E+00 0.66927154E+03</pdfrwt>
<pdfrwt beam="2">  1       -1 0.80967080E-01 0.66927154E+03</pdfrwt>
<totfact> 0.89399427E+00</totfact>
</mgrwt>
</event>
<event>
 4    1  0.2514307E-008  0.9188802E+03  0.7818608E-02  0.9496378E-01
          1   -1    0    0  501    0  0.00000000000E+00  0.00000000000E+00  0.13228679729E+04  0.13228679729E+04  0.50400000000E-02 0. -1.
         -1   -1    0    0    0  501 -0.00000000000E+00 -0.00000000000E+00 -0.85930763765E+03  0.85930763767E+03  0.50400000000E-02 0.  1.
    8880023    1    1    2    0    0  0.59553490242E+03  0.23636591482E+03 -0.47588328417E+03  0.10347974546E+04  0.65864270000E+03 0.  1.
    8880022    1    1    2    0    0 -0.59553490242E+03 -0.23636591482E+03  0.93944361944E+03  0.11473781560E+04  0.15294330000E+03 0.  0.
<mgrwt>
<rscale>  0 0.84551376E+03</rscale>
<asrwt>0</asrwt>
<pdfrwt beam="1">  1        1 0.20351815E+00 0.91888023E+03</pdfrwt>
<pdfrwt beam="2">  1       -1 0.13220117E+00 0.91888023E+03</pdfrwt>
<totfact> 0.42953062E+00</totfact>
</mgrwt>
</event>
<event>
 4    1  0.2514307E-008  0.1508779E+04  0.7818608E-02  0.8903461E-01
          1   -1    0    0  501    0  0.00000000000E+00  0.00000000000E+00  0.22770550144E+04  0.22770550144E+04  0.50400000000E-02 0. -1.
         -1   -1    0    0    0  501 -0.00000000000E+00 -0.00000000000E+00 -0.95723231362E+03  0.95723231363E+03  0.50400000000E-02 0.  1.
    8880023    1    1    2    0    0 -0.11574065535E+04  0.70923560329E+03  0.10596626068E+04  0.18437190994E+04  0.65864270000E+03 0.  0.
    8880022    1    1    2    0    0  0.11574065535E+04 -0.70923560329E+03  0.26016009400E+03  0.13905682287E+04  0.15294330000E+03 0.  0.
<mgrwt>
<rscale>  0 0.14717470E+04</rscale>
<asrwt>0</asrwt>
<pdfrwt beam="1">  1        1 0.35031615E+00 0.15087794E+04</pdfrwt>
<pdfrwt beam="2">  1       -1 0.14726651E+00 0.15087794E+04</pdfrwt>
<totfact> 0.67138142E-01</totfact>
</mgrwt>
</event>
<event>
 4    1  0.2514307E-008  0.1867846E+04  0.7818608E-02  0.8685906E-01
          1   -1    0    0  501    0  0.00000000000E+00  0.00000000000E+00  0.38879140215E+04  0.38879140215E+04  0.50400000000E-02 0. -1.
         -1   -1    0    0    0  501 -0.00000000000E+00 -0.00000000000E+00 -0.11966068677E+04  0.11966068677E+04  0.50400000000E-02 0.  1.
    8880023    1    1    2    0    0  0.17294628214E+04  0.25297874064E+03 -0.47130791762E+01  0.18678523264E+04  0.65864270000E+03 0.  0.
    8880022    1    1    2    0    0 -0.17294628214E+04 -0.25297874064E+03  0.26960202329E+04  0.32166685628E+04  0.15294330000E+03 0.  0.
<mgrwt>
<rscale>  0 0.18388532E+04</rscale>
<asrwt>0</asrwt>
<pdfrwt beam="1">  1        1 0.59814062E+00 0.18678464E+04</pdfrwt>
<pdfrwt beam="2">  1       -1 0.18409336E+00 0.18678464E+04</pdfrwt>
<totfact> 0.21283612E-02</totfact>
</mgrwt>
</event>
<event>
 4    1  0.2514307E-008  0.8478800E+03  0.7818608E-02  0.9615497E-01
          1   -1    0    0  501    0  0.00000000000E+00  0.00000000000E+00  0.21338938323E+04  0.21338938324E+04  0.50400000000E-02 0. -1.
         -1   -1    0    0    0  501 -0.00000000000E+00 -0.00000000000E+00 -0.32210058596E+03  0.32210058600E+03  0.50400000000E-02 0.  1.
    8880023    1    1    2    0    0  0.25177907650E+03  0.47084781129E+03  0.16849919200E+04  0.18862922206E+04  0.65864270000E+03 0.  0.
    8880022    1    1    2    0    0 -0.25177907650E+03 -0.47084781129E+03  0.12680132642E+03  0.56970219778E+03  0.15294330000E+03 0.  0.
<mgrwt>
<rscale>  0 0.76278921E+03</rscale>
<asrwt>0</asrwt>
<pdfrwt beam="1">  1        1 0.32829137E+00 0.84788005E+03</pdfrwt>
<pdfrwt beam="2">  1       -1 0.49553935E-01 0.84788005E+03</pdfrwt>
<totfact> 0.10188545E+01</totfact>
</mgrwt>
</event>
<event>
 4    1  0.2514307E-008  0.1200079E+04  0.7818608E-02  0.9157046E-01
         -1   -1    0    0    0  501 -0.00000000000E+00  0.00000000000E+00  0.10378486249E+04  0.10378486249E+04  0.50400000000E-02 0.  1.
          1   -1    0    0  501    0  0.00000000000E+00 -0.00000000000E+00 -0.13305378616E+04  0.13305378616E+04  0.50400000000E-02 0. -1.
    8880023    1    1    2    0    0  0.34894724018E+03  0.94053966342E+03  0.23765122369E+03  0.12233835643E+04  0.65864270000E+03 0.  0.
    8880022    1    1    2    0    0 -0.34894724018E+03 -0.94053966342E+03 -0.53034046041E+03  0.11450029222E+04  0.15294330000E+03 0.  0.
<mgrwt>
<rscale>  0 0.11508001E+04</rscale>
<asrwt>0</asrwt>
<pdfrwt beam="1">  1        1 0.20469813E+00 0.12000788E+04</pdfrwt>
<pdfrwt beam="2">  1       -1 0.15966902E+00 0.12000788E+04</pdfrwt>
<totfact> 0.24797696E+00</totfact>
</mgrwt>
</event>
<event>
 4    1  0.2514307E-008  0.7910814E+03  0.7818608E-02  0.9730422E-01
          1   -1    0    0  501    0  0.00000000000E+00  0.00000000000E+00  0.22376358731E+04  0.22376358731E+04  0.50400000000E-02 0. -1.
         -1   -1    0    0    0  501 -0.00000000000E+00 -0.00000000000E+00 -0.12481542373E+04  0.12481542373E+04  0.50400000000E-02 0.  1.
    8880023    1    1    2    0    0  0.24135983065E+03  0.36571154830E+03 -0.10946661513E+04  0.13505938300E+04  0.65864270000E+03 0.  1.
    8880022    1    1    2    0    0 -0.24135983065E+03 -0.36571154830E+03  0.20841477871E+04  0.21351962804E+04  0.15294330000E+03 0.  0.
<mgrwt>
<rscale>  0 0.69233988E+03</rscale>
<asrwt>0</asrwt>
<pdfrwt beam="1">  1        1 0.34425167E+00 0.79108136E+03</pdfrwt>
<pdfrwt beam="2">  1       -1 0.19202373E+00 0.79108136E+03</pdfrwt>
<totfact> 0.37205531E-01</totfact>
</mgrwt>
</event>
<event>
 4    1  0.2514307E-008  0.7189316E+03  0.7818608E-02  0.9926218E-01
         -1   -1    0    0    0  501 -0.00000000000E+00  0.00000000000E+00  0.42361723723E+03  0.42361723726E+03  0.50400000000E-02 0.  1.
          1   -1    0    0  501    0  0.00000000000E+00 -0.00000000000E+00 -0.11080083107E+04  0.11080083107E+04  0.50400000000E-02 0. -1.
    8880023    1    1    2    0    0  0.25695628654E+03  0.13048318016E+03  0.57437300220E+02  0.72122232579E+03  0.65864270000E+03 0.  1.
    8880022    1    1    2    0    0 -0.25695628654E+03 -0.13048318016E+03 -0.74182837369E+03  0.81040322218E+03  0.15294330000E+03 0.  0.
<mgrwt>
<rscale>  0 0.59007313E+03</rscale>
<asrwt>0</asrwt>
<pdfrwt beam="1">  1        1 0.17046282E+00 0.71893157E+03</pdfrwt>
<pdfrwt beam="2">  1       -1 0.65171883E-01 0.71893157E+03</pdfrwt>
<totfact> 0.30786725E+01</totfact>
</mgrwt>
</event>
<event>
 4    1  0.2514307E-008  0.7514805E+03  0.7818608E-02  0.9827685E-01
         -1   -1    0    0    0  501 -0.00000000000E+00  0.00000000000E+00  0.53236873400E+03  0.53236873403E+03  0.50400000000E-02 0.  1.
          1   -1    0    0  501    0  0.00000000000E+00 -0.00000000000E+00 -0.20224794530E+04  0.20224794530E+04  0.50400000000E-02 0. -1.
    8880023    1    1    2    0    0 -0.10143819576E+03  0.34730829468E+03  0.23359495194E+03  0.78694953266E+03  0.65864270000E+03 0.  1.
    8880022    1    1    2    0    0  0.10143819576E+03 -0.34730829468E+03 -0.17237056709E+04  0.17678986544E+04  0.15294330000E+03 0.  0.
<mgrwt>
<rscale>  0 0.63897753E+03</rscale>
<asrwt>0</asrwt>
<pdfrwt beam="1">  1        1 0.31115068E+00 0.75148052E+03</pdfrwt>
<pdfrwt beam="2">  1       -1 0.81902883E-01 0.75148052E+03</pdfrwt>
<totfact> 0.44835173E+00</totfact>
</mgrwt>
</event>
<event>
 4    1  0.2514307E-008  0.1120794E+04  0.7818608E-02  0.9238251E-01
         -1   -1    0    0    0  501 -0.00000000000E+00  0.00000000000E+00  0.13064936760E+04  0.13064936760E+04  0.50400000000E-02 0.  1.
          1   -1    0    0  501    0  0.00000000000E+00 -0.00000000000E+00 -0.12191644831E+04  0.12191644831E+04  0.50400000000E-02 0. -1.
    8880023    1    1    2    0    0  0.75475892825E+02  0.90369868152E+03  0.78750888905E+03  0.13697986618E+04  0.65864270000E+03 0.  0.
    8880022    1    1    2    0    0 -0.75475892825E+02 -0.90369868152E+03 -0.70017969620E+03  0.11558594972E+04  0.15294330000E+03 0.  0.
<mgrwt>
<rscale>  0 0.10667191E+04</rscale>
<asrwt>0</asrwt>
<pdfrwt beam="1">  1        1 0.18756377E+00 0.11207935E+04</pdfrwt>
<pdfrwt beam="2">  1       -1 0.20099903E+00 0.11207935E+04</pdfrwt>
<totfact> 0.15165016E+00</totfact>
</mgrwt>
</event>
<event>
 4    1  0.2514307E-008  0.1144134E+04  0.7818608E-02  0.9213439E-01
         -1   -1    0    0    0  501 -0.00000000000E+00  0.00000000000E+00  0.22516959357E+04  0.22516959357E+04  0.50400000000E-02 0.  1.
          1   -1    0    0  501    0  0.00000000000E+00 -0.00000000000E+00 -0.49328850599E+03  0.49328850602E+03  0.50400000000E-02 0. -1.
    8880023    1    1    2    0    0 -0.58766814454E+03 -0.72792801208E+03  0.11270915264E+04  0.16060443811E+04  0.65864270000E+03 0. -1.
    8880022    1    1    2    0    0  0.58766814454E+03  0.72792801208E+03  0.63131590322E+03  0.11389400606E+04  0.15294330000E+03 0.  0.
<mgrwt>
<rscale>  0 0.10915787E+04</rscale>
<asrwt>0</asrwt>
<pdfrwt beam="1">  1        1 0.75890538E-01 0.11441343E+04</pdfrwt>
<pdfrwt beam="2">  1       -1 0.34641477E+00 0.11441343E+04</pdfrwt>
<totfact> 0.74199628E-01</totfact>
</mgrwt>
</event>
<event>
 4    1  0.2514307E-008  0.1274480E+04  0.7818608E-02  0.9087917E-01
         -1   -1    0    0    0  501 -0.00000000000E+00  0.00000000000E+00  0.25290192197E+04  0.25290192197E+04  0.50400000000E-02 0.  1.
          1   -1    0    0  501    0  0.00000000000E+00 -0.00000000000E+00 -0.11396146850E+04  0.11396146850E+04  0.50400000000E-02 0. -1.
    8880023    1    1    2    0    0 -0.68506636780E+03  0.84921885430E+03  0.20279698449E+04  0.23951952924E+04  0.65864270000E+03 0.  0.
    8880022    1    1    2    0    0  0.68506636780E+03 -0.84921885430E+03 -0.63856531024E+03  0.12734386123E+04  0.15294330000E+03 0.  0.
<mgrwt>
<rscale>  0 0.12289146E+04</rscale>
<asrwt>0</asrwt>
<pdfrwt beam="1">  1        1 0.17532534E+00 0.12744798E+04</pdfrwt>
<pdfrwt beam="2">  1       -1 0.38907988E+00 0.12744798E+04</pdfrwt>
<totfact> 0.98504718E-02</totfact>
</mgrwt>
</event>
<event>
 4    1  0.2514307E-008  0.1251560E+04  0.7818608E-02  0.9108562E-01
          1   -1    0    0  501    0  0.00000000000E+00  0.00000000000E+00  0.23538188949E+04  0.23538188949E+04  0.50400000000E-02 0. -1.
         -1   -1    0    0    0  501 -0.00000000000E+00 -0.00000000000E+00 -0.11648604139E+04  0.11648604139E+04  0.50400000000E-02 0.  1.
    8880023    1    1    2    0    0  0.75321163769E+03 -0.75184144544E+03 -0.63346210438E+03  0.14027393821E+04  0.65864270000E+03 0.  0.
    8880022    1    1    2    0    0 -0.75321163769E+03  0.75184144544E+03  0.18224205854E+04  0.21159399267E+04  0.15294330000E+03 0.  0.
<mgrwt>
<rscale>  0 0.12049191E+04</rscale>
<asrwt>0</asrwt>
<pdfrwt beam="1">  1        1 0.36212598E+00 0.12515604E+04</pdfrwt>
<pdfrwt beam="2">  1       -1 0.17920930E+00 0.12515604E+04</pdfrwt>
<totfact> 0.35220827E-01</totfact>
</mgrwt>
</event>
<event>
 4    1  0.2514307E-008  0.7070919E+03  0.7818608E-02  0.9968963E-01
         -1   -1    0    0    0  501 -0.00000000000E+00  0.00000000000E+00  0.16901372464E+03  0.16901372472E+03  0.50400000000E-02 0.  1.
          1   -1    0    0  501    0  0.00000000000E+00 -0.00000000000E+00 -0.19816737113E+04  0.19816737113E+04  0.50400000000E-02 0. -1.
    8880023    1    1    2    0    0 -0.25353121760E+03 -0.43481109975E+02 -0.68681025766E+03  0.98574196497E+03  0.65864270000E+03 0.  1.
    8880022    1    1    2    0    0  0.25353121760E+03  0.43481109975E+02 -0.11258497290E+04  0.11649454710E+04  0.15294330000E+03 0.  0.
<mgrwt>
<rscale>  0 0.57032360E+03</rscale>
<asrwt>0</asrwt>
<pdfrwt beam="1">  1        1 0.30487286E+00 0.70709186E+03</pdfrwt>
<pdfrwt beam="2">  1       -1 0.26002113E-01 0.70709186E+03</pdfrwt>
<totfact> 0.41753805E+01</totfact>
</mgrwt>
</event>
<event>
 4    1  0.2514307E-008  0.8836921E+03  0.7818608E-02  0.9552735E-01
         -1   -1    0    0    0  501 -0.00000000000E+00  0.00000000000E+00  0.14518430791E+04  0.14518430791E+04  0.50400000000E-02 0.  1.
          1   -1    0    0  501    0  0.00000000000E+00 -0.00000000000E+00 -0.47959443208E+03  0.47959443211E+03  0.50400000000E-02 0. -1.
    8880023    1    1    2    0    0 -0.58167420756E+03  0.93577023824E+02  0.98410676281E+03  0.13226404916E+04  0.65864270000E+03 0.  0.
    8880022    1    1    2    0    0  0.58167420756E+03 -0.93577023824E+02 -0.11858115822E+02  0.60879701959E+03  0.15294330000E+03 0.  0.
<mgrwt>
<rscale>  0 0.80505076E+03</rscale>
<asrwt>0</asrwt>
<pdfrwt beam="1">  1        1 0.73783760E-01 0.88369211E+03</pdfrwt>
<pdfrwt beam="2">  1       -1 0.22336047E+00 0.88369211E+03</pdfrwt>
<totfact> 0.50004066E+00</totfact>
</mgrwt>
</event>
<event>
 4    1  0.2514307E-008  0.1074516E+04  0.7818608E-02  0.9289974E-01
         -1   -1    0    0    0  501 -0.00000000000E+00  0.00000000000E+00  0.20090089548E+04  0.20090089548E+04  0.50400000000E-02 0.  1.
          1   -1    0    0  501    0  0.00000000000E+00 -0.00000000000E+00 -0.72544758402E+03  0.72544758404E+03  0.50400000000E-02 0. -1.
    8880023    1    1    2    0    0 -0.68604564857E+03 -0.50011597863E+03  0.14999207569E+04  0.18450872899E+04  0.65864270000E+03 0.  1.
    8880022    1    1    2    0    0  0.68604564857E+03  0.50011597863E+03 -0.21635938614E+03  0.88936924896E+03  0.15294330000E+03 0. -1.
<mgrwt>
<rscale>  0 0.10171112E+04</rscale>
<asrwt>0</asrwt>
<pdfrwt beam="1">  1        1 0.11160732E+00 0.10745161E+04</pdfrwt>
<pdfrwt beam="2">  1       -1 0.30907830E+00 0.10745161E+04</pdfrwt>
<totfact> 0.74692833E-01</totfact>
</mgrwt>
</event>
<event>
 4    1  0.2514307E-008  0.1155430E+04  0.7818608E-02  0.9201714E-01
         -1   -1    0    0    0  501 -0.00000000000E+00  0.00000000000E+00  0.10065067728E+04  0.10065067728E+04  0.50400000000E-02 0.  1.
          1   -1    0    0  501    0  0.00000000000E+00 -0.00000000000E+00 -0.23216493448E+04  0.23216493448E+04  0.50400000000E-02 0. -1.
    8880023    1    1    2    0    0 -0.12411816850E+03 -0.94117095741E+03  0.51173010296E+03  0.12636795462E+04  0.65864270000E+03 0.  1.
    8880022    1    1    2    0    0  0.12411816850E+03  0.94117095741E+03 -0.18268726749E+04  0.20644765715E+04  0.15294330000E+03 0.  0.
<mgrwt>
<rscale>  0 0.11035752E+04</rscale>
<asrwt>0</asrwt>
<pdfrwt beam="1">  1        1 0.35717682E+00 0.11554299E+04</pdfrwt>
<pdfrwt beam="2">  1       -1 0.15484720E+00 0.11554299E+04</pdfrwt>
<totfact> 0.57052011E-01</totfact>
</mgrwt>
</event>
<event>
 4    1  0.2514307E-008  0.1326397E+04  0.7818608E-02  0.9043093E-01
          1   -1    0    0  501    0  0.00000000000E+00  0.00000000000E+00  0.16081164360E+04  0.16081164360E+04  0.50400000000E-02 0. -1.
         -1   -1    0    0    0  501 -0.00000000000E+00 -0.00000000000E+00 -0.13008043062E+04  0.13008043063E+04  0.50400000000E-02 0.  1.
    8880023    1    1    2    0    0  0.73799498560E+03  0.88367574613E+03 -0.57967361800E+03  0.14475327743E+04  0.65864270000E+03 0.  0.
    8880022    1    1    2    0    0 -0.73799498560E+03 -0.88367574613E+03  0.88698574772E+03  0.14613879679E+04  0.15294330000E+03 0.  0.
<mgrwt>
<rscale>  0 0.12830782E+04</rscale>
<asrwt>0</asrwt>
<pdfrwt beam="1">  1        1 0.24740253E+00 0.13263972E+04</pdfrwt>
<pdfrwt beam="2">  1       -1 0.20012374E+00 0.13263972E+04</pdfrwt>
<totfact> 0.79855645E-01</totfact>
</mgrwt>
</event>
<event>
 4    1  0.2514307E-008  0.8849197E+03  0.7818608E-02  0.9550687E-01
         -1   -1    0    0    0  501 -0.00000000000E+00  0.00000000000E+00  0.20167162371E+03  0.20167162378E+03  0.50400000000E-02 0.  1.
          1   -1    0    0  501    0  0.00000000000E+00 -0.00000000000E+00 -0.36182555756E+04  0.36182555756E+04  0.50400000000E-02 0. -1.
    8880023    1    1    2    0    0  0.58623932619E+03 -0.74807550899E+02 -0.10368275176E+04  0.13631192996E+04  0.65864270000E+03 0.  0.
    8880022    1    1    2    0    0 -0.58623932619E+03  0.74807550899E+02 -0.23797564343E+04  0.24568078999E+04  0.15294330000E+03 0.  0.
<mgrwt>
<rscale>  0 0.80647822E+03</rscale>
<asrwt>0</asrwt>
<pdfrwt beam="1">  1        1 0.55665466E+00 0.88491973E+03</pdfrwt>
<pdfrwt beam="2">  1       -1 0.31026406E-01 0.88491973E+03</pdfrwt>
<totfact> 0.20507630E+00</totfact>
</mgrwt>
</event>
<event>
 4    1  0.2514307E-008  0.8300126E+03  0.7818608E-02  0.9649308E-01
         -1   -1    0    0    0  501 -0.00000000000E+00  0.00000000000E+00  0.62080635005E+03  0.62080635007E+03  0.50400000000E-02 0.  1.
          1   -1    0    0  501    0  0.00000000000E+00 -0.00000000000E+00 -0.12463080317E+04  0.12463080317E+04  0.50400000000E-02 0. -1.
    8880023    1    1    2    0    0 -0.50104559108E+03 -0.63749697182E+02  0.23057646368E+03  0.86144438016E+03  0.65864270000E+03 0.  1.
    8880022    1    1    2    0    0  0.50104559108E+03  0.63749697182E+02 -0.85607814534E+03  0.10056700016E+04  0.15294330000E+03 0.  0.
<mgrwt>
<rscale>  0 0.74116879E+03</rscale>
<asrwt>0</asrwt>
<pdfrwt beam="1">  1        1 0.19173970E+00 0.83001260E+03</pdfrwt>
<pdfrwt beam="2">  1       -1 0.95508670E-01 0.83001260E+03</pdfrwt>
<totfact> 0.10708556E+01</totfact>
</mgrwt>
</event>
<event>
 4    1  0.2514307E-008  0.8087030E+03  0.7818608E-02  0.9692285E-01
          1   -1    0    0  501    0  0.00000000000E+00  0.00000000000E+00  0.13820632265E+04  0.13820632265E+04  0.50400000000E-02 0. -1.
         -1   -1    0    0    0  501 -0.00000000000E+00 -0.00000000000E+00 -0.14210563026E+04  0.14210563027E+04  0.50400000000E-02 0.  1.
    8880023    1    1    2    0    0  0.60776116980E+02 -0.46529187253E+03 -0.12537438364E+04  0.14919363514E+04  0.65864270000E+03 0.  1.
    8880022    1    1    2    0    0 -0.60776116980E+02  0.46529187253E+03  0.12147507603E+04  0.13111831778E+04  0.15294330000E+03 0.  0.
<mgrwt>
<rscale>  0 0.71478002E+03</rscale>
<asrwt>0</asrwt>
<pdfrwt beam="1">  1        1 0.21262511E+00 0.80870295E+03</pdfrwt>
<pdfrwt beam="2">  1       -1 0.21862405E+00 0.80870295E+03</pdfrwt>
<totfact> 0.92557039E-01</totfact>
</mgrwt>
</event>
<event>
 4    1  0.2514307E-008  0.8613586E+03  0.7818608E-02  0.9591151E-01
          1   -1    0    0  501    0  0.00000000000E+00  0.00000000000E+00  0.53209458773E+03  0.53209458775E+03  0.50400000000E-02 0. -1.
         -1   -1    0    0    0  501 -0.00000000000E+00 -0.00000000000E+00 -0.11638746159E+04  0.11638746159E+04  0.50400000000E-02 0.  1.
    8880023    1    1    2    0    0  0.55329297010E+03  0.44668862213E+02 -0.70823281876E+03  0.11151378165E+04  0.65864270000E+03 0. -1.
    8880022    1    1    2    0    0 -0.55329297010E+03 -0.44668862213E+02  0.76452790638E+02  0.58083138709E+03  0.15294330000E+03 0.  0.
<mgrwt>
<rscale>  0 0.77884623E+03</rscale>
<asrwt>0</asrwt>
<pdfrwt beam="1">  1        1 0.81860706E-01 0.86135859E+03</pdfrwt>
<pdfrwt beam="2">  1       -1 0.17905763E+00 0.86135859E+03</pdfrwt>
<totfact> 0.87450789E+00</totfact>
</mgrwt>
</event>
<event>
 4    1  0.2514307E-008  0.7044176E+03  0.7818608E-02  0.9979346E-01
          1   -1    0    0  501    0  0.00000000000E+00  0.00000000000E+00  0.16398755659E+04  0.16398755659E+04  0.50400000000E-02 0. -1.
         -1   -1    0    0    0  501 -0.00000000000E+00 -0.00000000000E+00 -0.44494407152E+03  0.44494407155E+03  0.50400000000E-02 0.  1.
    8880023    1    1    2    0    0 -0.23476668970E+03  0.85314400022E+02 -0.13994848691E+03  0.71818502539E+03  0.65864270000E+03 0.  0.
    8880022    1    1    2    0    0  0.23476668970E+03 -0.85314400022E+02  0.13348799813E+04  0.13666346121E+04  0.15294330000E+03 0.  0.
<mgrwt>
<rscale>  0 0.56565215E+03</rscale>
<asrwt>0</asrwt>
<pdfrwt beam="1">  1        1 0.25228855E+00 0.70441760E+03</pdfrwt>
<pdfrwt beam="2">  1       -1 0.68452934E-01 0.70441760E+03</pdfrwt>
<totfact> 0.11846739E+01</totfact>
</mgrwt>
</event>
<event>
 4    1  0.2514307E-008  0.2103509E+04  0.7818608E-02  0.8570966E-01
         -1   -1    0    0    0  501 -0.00000000000E+00  0.00000000000E+00  0.19026238792E+04  0.19026238792E+04  0.50400000000E-02 0.  1.
          1   -1    0    0  501    0  0.00000000000E+00 -0.00000000000E+00 -0.28097653848E+04  0.28097653848E+04  0.50400000000E-02 0. -1.
    8880023    1    1    2    0    0  0.14623056445E+04 -0.13611035584E+04  0.62021017635E+03  0.21930370639E+04  0.65864270000E+03 0.  0.
    8880022    1    1    2    0    0 -0.14623056445E+04  0.13611035584E+04 -0.15273516819E+04  0.25193522001E+04  0.15294330000E+03 0.  0.
<mgrwt>
<rscale>  0 0.20780691E+04</rscale>
<asrwt>0</asrwt>
<pdfrwt beam="1">  1        1 0.43227160E+00 0.21035092E+04</pdfrwt>
<pdfrwt beam="2">  1       -1 0.29271137E+00 0.21035092E+04</pdfrwt>
<totfact> 0.26487717E-02</totfact>
</mgrwt>
</event>
<event>
 4    1  0.2514307E-008  0.8468719E+03  0.7818608E-02  0.9617356E-01
         -1   -1    0    0    0  501 -0.00000000000E+00  0.00000000000E+00  0.25546534737E+03  0.25546534742E+03  0.50400000000E-02 0.  1.
          1   -1    0    0  501    0  0.00000000000E+00 -0.00000000000E+00 -0.28580192312E+04  0.28580192312E+04  0.50400000000E-02 0. -1.
    8880023    1    1    2    0    0 -0.51612253234E+03  0.13038150609E+03 -0.60555467258E+03  0.10410996462E+04  0.65864270000E+03 0.  0.
    8880022    1    1    2    0    0  0.51612253234E+03 -0.13038150609E+03 -0.19969992113E+04  0.20723849325E+04  0.15294330000E+03 0.  0.
<mgrwt>
<rscale>  0 0.76157997E+03</rscale>
<asrwt>0</asrwt>
<pdfrwt beam="1">  1        1 0.43969524E+00 0.84687190E+03</pdfrwt>
<pdfrwt beam="2">  1       -1 0.39302363E-01 0.84687190E+03</pdfrwt>
<totfact> 0.49900625E+00</totfact>
</mgrwt>
</event>
<event>
 4    1  0.2514307E-008  0.1042164E+04  0.7818608E-02  0.9328361E-01
          1   -1    0    0  501    0  0.00000000000E+00  0.00000000000E+00  0.21980626504E+04  0.21980626504E+04  0.50400000000E-02 0. -1.
         -1   -1    0    0    0  501 -0.00000000000E+00 -0.00000000000E+00 -0.89561532828E+03  0.89561532830E+03  0.50400000000E-02 0.  1.
    8880023    1    1    2    0    0 -0.73098961416E+03  0.34343863971E+03 -0.46745994991E+03  0.11422017888E+04  0.65864270000E+03 0.  0.
    8880022    1    1    2    0    0  0.73098961416E+03 -0.34343863971E+03  0.17699072720E+04  0.19514761899E+04  0.15294330000E+03 0.  0.
<mgrwt>
<rscale>  0 0.98213308E+03</rscale>
<asrwt>0</asrwt>
<pdfrwt beam="1">  1        1 0.33816348E+00 0.10421642E+04</pdfrwt>
<pdfrwt beam="2">  1       -1 0.13778697E+00 0.10421642E+04</pdfrwt>
<totfact> 0.96149724E-01</totfact>
</mgrwt>
</event>
<event>
 4    1  0.2514307E-008  0.8557443E+03  0.7818608E-02  0.9601179E-01
         -1   -1    0    0    0  501 -0.00000000000E+00  0.00000000000E+00  0.12092141504E+04  0.12092141504E+04  0.50400000000E-02 0.  1.
          1   -1    0    0  501    0  0.00000000000E+00 -0.00000000000E+00 -0.10168874610E+04  0.10168874610E+04  0.50400000000E-02 0. -1.
    8880023    1    1    2    0    0  0.22294449805E+03  0.49878241205E+03  0.95062424509E+03  0.12790562167E+04  0.65864270000E+03 0.  0.
    8880022    1    1    2    0    0 -0.22294449805E+03 -0.49878241205E+03 -0.75829755567E+03  0.94704539476E+03  0.15294330000E+03 0.  0.
<mgrwt>
<rscale>  0 0.77218211E+03</rscale>
<asrwt>0</asrwt>
<pdfrwt beam="1">  1        1 0.15644422E+00 0.85574433E+03</pdfrwt>
<pdfrwt beam="2">  1       -1 0.18603295E+00 0.85574433E+03</pdfrwt>
<totfact> 0.28315106E+00</totfact>
</mgrwt>
</event>
<event>
 4    1  0.2514307E-008  0.7406259E+03  0.7818608E-02  0.9858128E-01
         -1   -1    0    0    0  501 -0.00000000000E+00  0.00000000000E+00  0.37305515914E+03  0.37305515918E+03  0.50400000000E-02 0.  1.
          1   -1    0    0  501    0  0.00000000000E+00 -0.00000000000E+00 -0.11942294309E+04  0.11942294309E+04  0.50400000000E-02 0. -1.
    8880023    1    1    2    0    0  0.33615710642E+03  0.41410927910E+02 -0.88687690124E+02  0.74591700463E+03  0.65864270000E+03 0.  0.
    8880022    1    1    2    0    0 -0.33615710642E+03 -0.41410927910E+02 -0.73248658160E+03  0.82136758543E+03  0.15294330000E+03 0.  0.
<mgrwt>
<rscale>  0 0.62334224E+03</rscale>
<asrwt>0</asrwt>
<pdfrwt beam="1">  1        1 0.18372760E+00 0.74062586E+03</pdfrwt>
<pdfrwt beam="2">  1       -1 0.57393102E-01 0.74062586E+03</pdfrwt>
<totfact> 0.34139703E+01</totfact>
</mgrwt>
</event>
<event>
 4    1  0.2514307E-008  0.6634830E+03  0.7818608E-02  0.1020842E+00
         -1   -1    0    0    0  501 -0.00000000000E+00  0.00000000000E+00  0.83853534940E+03  0.83853534942E+03  0.50400000000E-02 0.  1.
          1   -1    0    0  501    0  0.00000000000E+00 -0.00000000000E+00 -0.12002946123E+04  0.12002946123E+04  0.50400000000E-02 0. -1.
    8880023    1    1    2    0    0 -0.72251606675E+02 -0.34339223146E+02  0.69921714182E+03  0.96390574985E+03  0.65864270000E+03 0.  1.
    8880022    1    1    2    0    0  0.72251606675E+02  0.34339223146E+02 -0.10609764048E+04  0.10749242119E+04  0.15294330000E+03 0.  0.
<mgrwt>
<rscale>  0 0.47384164E+03</rscale>
<asrwt>0</asrwt>
<pdfrwt beam="1">  1        1 0.18466071E+00 0.66348299E+03</pdfrwt>
<pdfrwt beam="2">  1       -1 0.12900544E+00 0.66348299E+03</pdfrwt>
<totfact> 0.58132993E+00</totfact>
</mgrwt>
</event>
<event>
 4    1  0.2514307E-008  0.8888263E+03  0.7818608E-02  0.9544212E-01
         -1   -1    0    0    0  501 -0.00000000000E+00  0.00000000000E+00  0.10557176363E+04  0.10557176363E+04  0.50400000000E-02 0.  1.
          1   -1    0    0  501    0  0.00000000000E+00 -0.00000000000E+00 -0.23668908891E+04  0.23668908891E+04  0.50400000000E-02 0. -1.
    8880023    1    1    2    0    0 -0.51329347961E+03 -0.30451907093E+03  0.81686338379E+03  0.12071777230E+04  0.65864270000E+03 0.  1.
    8880022    1    1    2    0    0  0.51329347961E+03  0.30451907093E+03 -0.21280366366E+04  0.22154308025E+04  0.15294330000E+03 0.  0.
<mgrwt>
<rscale>  0 0.81101253E+03</rscale>
<asrwt>0</asrwt>
<pdfrwt beam="1">  1        1 0.36413706E+00 0.88882634E+03</pdfrwt>
<pdfrwt beam="2">  1       -1 0.16241810E+00 0.88882634E+03</pdfrwt>
<totfact> 0.48683712E-01</totfact>
</mgrwt>
</event>
<event>
 4    1  0.2514307E-008  0.7237985E+03  0.7818608E-02  0.9909936E-01
          1   -1    0    0  501    0  0.00000000000E+00  0.00000000000E+00  0.62925554077E+03  0.62925554079E+03  0.50400000000E-02 0. -1.
         -1   -1    0    0    0  501 -0.00000000000E+00 -0.00000000000E+00 -0.94061373224E+03  0.94061373225E+03  0.50400000000E-02 0.  1.
    8880023    1    1    2    0    0  0.22051661452E+03 -0.20358424169E+03 -0.73304220328E+03  0.10301627050E+04  0.65864270000E+03 0.  1.
    8880022    1    1    2    0    0 -0.22051661452E+03  0.20358424169E+03  0.42168401181E+03  0.53970656803E+03  0.15294330000E+03 0.  0.
<mgrwt>
<rscale>  0 0.59782130E+03</rscale>
<asrwt>0</asrwt>
<pdfrwt beam="1">  1        1 0.96808544E-01 0.72379854E+03</pdfrwt>
<pdfrwt beam="2">  1       -1 0.14470981E+00 0.72379854E+03</pdfrwt>
<totfact> 0.12671198E+01</totfact>
</mgrwt>
</event>
<event>
 4    1  0.2514307E-008  0.7449804E+03  0.7818608E-02  0.9845670E-01
          1   -1    0    0  501    0  0.00000000000E+00  0.00000000000E+00  0.66838623417E+03  0.66838623419E+03  0.50400000000E-02 0. -1.
         -1   -1    0    0    0  501 -0.00000000000E+00 -0.00000000000E+00 -0.12796761045E+04  0.12796761045E+04  0.50400000000E-02 0.  1.
    8880023    1    1    2    0    0  0.34268945871E+03  0.61233852608E+02 -0.11002014584E+04  0.13286982747E+04  0.65864270000E+03 0.  0.
    8880022    1    1    2    0    0 -0.34268945871E+03 -0.61233852608E+02  0.48891158808E+03  0.61936406401E+03  0.15294330000E+03 0.  0.
<mgrwt>
<rscale>  0 0.62968184E+03</rscale>
<asrwt>0</asrwt>
<pdfrwt beam="1">  1        1 0.10282865E+00 0.74498044E+03</pdfrwt>
<pdfrwt beam="2">  1       -1 0.19687325E+00 0.74498044E+03</pdfrwt>
<totfact> 0.47935982E+00</totfact>
</mgrwt>
</event>
<event>
 4    1  0.2514307E-008  0.7498443E+03  0.7818608E-02  0.9832147E-01
          1   -1    0    0  501    0  0.00000000000E+00  0.00000000000E+00  0.69988169912E+03  0.69988169914E+03  0.50400000000E-02 0. -1.
         -1   -1    0    0    0  501 -0.00000000000E+00 -0.00000000000E+00 -0.15229075699E+04  0.15229075699E+04  0.50400000000E-02 0.  1.
    8880023    1    1    2    0    0  0.41594446868E+02  0.35598621699E+03 -0.13637378958E+04  0.15562928836E+04  0.65864270000E+03 0.  1.
    8880022    1    1    2    0    0 -0.41594446868E+02 -0.35598621699E+03  0.54071202509E+03  0.66649638543E+03  0.15294330000E+03 0.  0.
<mgrwt>
<rscale>  0 0.63665542E+03</rscale>
<asrwt>0</asrwt>
<pdfrwt beam="1">  1        1 0.10767411E+00 0.74984431E+03</pdfrwt>
<pdfrwt beam="2">  1       -1 0.23429347E+00 0.74984431E+03</pdfrwt>
<totfact> 0.25133451E+00</totfact>
</mgrwt>
</event>
<event>
 4    1  0.2514307E-008  0.7660747E+03  0.7818608E-02  0.9789627E-01
         -1   -1    0    0    0  501 -0.00000000000E+00  0.00000000000E+00  0.81653540122E+03  0.81653540123E+03  0.50400000000E-02 0.  1.
          1   -1    0    0  501    0  0.00000000000E+00 -0.00000000000E+00 -0.91600741260E+03  0.91600741261E+03  0.50400000000E-02 0. -1.
    8880023    1    1    2    0    0  0.25451478343E+03  0.29712357797E+03  0.56119897536E+03  0.94963924296E+03  0.65864270000E+03 0.  1.
    8880022    1    1    2    0    0 -0.25451478343E+03 -0.29712357797E+03 -0.66067098674E+03  0.78290357088E+03  0.15294330000E+03 0.  0.
<mgrwt>
<rscale>  0 0.65922187E+03</rscale>
<asrwt>0</asrwt>
<pdfrwt beam="1">  1        1 0.14092422E+00 0.76607467E+03</pdfrwt>
<pdfrwt beam="2">  1       -1 0.12562083E+00 0.76607467E+03</pdfrwt>
<totfact> 0.10049001E+01</totfact>
</mgrwt>
</event>
<event>
 4    1  0.2514307E-008  0.1311695E+04  0.7818608E-02  0.9055526E-01
          1   -1    0    0  501    0  0.00000000000E+00  0.00000000000E+00  0.30250680104E+04  0.30250680104E+04  0.50400000000E-02 0. -1.
         -1   -1    0    0    0  501 -0.00000000000E+00 -0.00000000000E+00 -0.78555933159E+03  0.78555933161E+03  0.50400000000E-02 0.  1.
    8880023    1    1    2    0    0 -0.15675634301E+03 -0.11234595344E+04  0.23179339404E+04  0.26633365981E+04  0.65864270000E+03 0. -1.
    8880022    1    1    2    0    0  0.15675634301E+03  0.11234595344E+04 -0.78425261567E+02  0.11472907439E+04  0.15294330000E+03 0.  0.
<mgrwt>
<rscale>  0 0.12677651E+04</rscale>
<asrwt>0</asrwt>
<pdfrwt beam="1">  1        1 0.46539508E+00 0.13116951E+04</pdfrwt>
<pdfrwt beam="2">  1       -1 0.12085528E+00 0.13116951E+04</pdfrwt>
<totfact> 0.34131443E-01</totfact>
</mgrwt>
</event>
<event>
 4    1  0.2514307E-008  0.6714260E+03  0.7818608E-02  0.1014661E+00
         -1   -1    0    0    0  501 -0.00000000000E+00  0.00000000000E+00  0.22330850311E+03  0.22330850316E+03  0.50400000000E-02 0.  1.
          1   -1    0    0  501    0  0.00000000000E+00 -0.00000000000E+00 -0.14637465230E+04  0.14637465230E+04  0.50400000000E-02 0. -1.
    8880023    1    1    2    0    0 -0.85349499498E+02  0.98580836026E+02 -0.31790737229E+03  0.74288493181E+03  0.65864270000E+03 0.  1.
    8880022    1    1    2    0    0  0.85349499498E+02 -0.98580836026E+02 -0.92253064759E+03  0.94417009434E+03  0.15294330000E+03 0.  0.
<mgrwt>
<rscale>  0 0.49663662E+03</rscale>
<asrwt>0</asrwt>
<pdfrwt beam="1">  1        1 0.22519177E+00 0.67142604E+03</pdfrwt>
<pdfrwt beam="2">  1       -1 0.34355155E-01 0.67142604E+03</pdfrwt>
<totfact> 0.57597832E+01</totfact>
</mgrwt>
</event>
<event>
 4    1  0.2514307E-008  0.7027898E+03  0.7818608E-02  0.9985819E-01
          1   -1    0    0  501    0  0.00000000000E+00  0.00000000000E+00  0.12467746039E+04  0.12467746039E+04  0.50400000000E-02 0. -1.
         -1   -1    0    0    0  501 -0.00000000000E+00 -0.00000000000E+00 -0.97959690934E+03  0.97959690935E+03  0.50400000000E-02 0.  1.
    8880023    1    1    2    0    0  0.21990093478E+03 -0.10838308725E+03 -0.83243219731E+03  0.10894296141E+04  0.65864270000E+03 0.  1.
    8880022    1    1    2    0    0 -0.21990093478E+03  0.10838308725E+03  0.10996098919E+04  0.11369418992E+04  0.15294330000E+03 0.  0.
<mgrwt>
<rscale>  0 0.56276442E+03</rscale>
<asrwt>0</asrwt>
<pdfrwt beam="1">  1        1 0.19181148E+00 0.70278981E+03</pdfrwt>
<pdfrwt beam="2">  1       -1 0.15070722E+00 0.70278981E+03</pdfrwt>
<totfact> 0.35719423E+00</totfact>
</mgrwt>
</event>
<event>
 4    1  0.2514307E-008  0.6654424E+03  0.7818608E-02  0.1019165E+00
          1   -1    0    0  501    0  0.00000000000E+00  0.00000000000E+00  0.72444107430E+02  0.72444107605E+02  0.50400000000E-02 0. -1.
         -1   -1    0    0    0  501 -0.00000000000E+00 -0.00000000000E+00 -0.25150259855E+04  0.25150259855E+04  0.50400000000E-02 0.  1.
    8880023    1    1    2    0    0 -0.36369406939E+02 -0.87639297543E+02 -0.17613189632E+04  0.18828324612E+04  0.65864270000E+03 0. -1.
    8880022    1    1    2    0    0  0.36369406939E+02  0.87639297543E+02 -0.68126291485E+03  0.70463763197E+03  0.15294330000E+03 0.  1.
<mgrwt>
<rscale>  0 0.47989106E+03</rscale>
<asrwt>0</asrwt>
<pdfrwt beam="1">  1        1 0.11145249E-01 0.66544240E+03</pdfrwt>
<pdfrwt beam="2">  1       -1 0.38692701E+00 0.66544240E+03</pdfrwt>
<totfact> 0.54438237E+00</totfact>
</mgrwt>
</event>
<event>
 4    1  0.2514307E-008  0.7083892E+03  0.7818608E-02  0.9964032E-01
          1   -1    0    0  501    0  0.00000000000E+00  0.00000000000E+00  0.99916616608E+03  0.99916616610E+03  0.50400000000E-02 0. -1.
         -1   -1    0    0    0  501 -0.00000000000E+00 -0.00000000000E+00 -0.28284166339E+03  0.28284166343E+03  0.50400000000E-02 0.  1.
    8880023    1    1    2    0    0 -0.19964168787E+03  0.16777446250E+03  0.30433297053E+03  0.77099535473E+03  0.65864270000E+03 0.  1.
    8880022    1    1    2    0    0  0.19964168787E+03 -0.16777446250E+03  0.41199153217E+03  0.51101247480E+03  0.15294330000E+03 0.  0.
<mgrwt>
<rscale>  0 0.57255905E+03</rscale>
<asrwt>0</asrwt>
<pdfrwt beam="1">  1        1 0.15371787E+00 0.70838922E+03</pdfrwt>
<pdfrwt beam="2">  1       -1 0.43514102E-01 0.70838922E+03</pdfrwt>
<totfact> 0.80949837E+01</totfact>
</mgrwt>
</event>
<event>
 4    1  0.2514307E-008  0.8122636E+03  0.7818608E-02  0.9684881E-01
         -1   -1    0    0    0  501 -0.00000000000E+00  0.00000000000E+00  0.10664987449E+04  0.10664987449E+04  0.50400000000E-02 0.  1.
          1   -1    0    0  501    0  0.00000000000E+00 -0.00000000000E+00 -0.41412783609E+03  0.41412783612E+03  0.50400000000E-02 0. -1.
    8880023    1    1    2    0    0 -0.25252607403E+03  0.40273125467E+03  0.28544695710E+03  0.86095996024E+03  0.65864270000E+03 0.  1.
    8880022    1    1    2    0    0  0.25252607403E+03 -0.40273125467E+03  0.36692395169E+03  0.61966662077E+03  0.15294330000E+03 0. -1.
<mgrwt>
<rscale>  0 0.71924138E+03</rscale>
<asrwt>0</asrwt>
<pdfrwt beam="1">  1        1 0.63711977E-01 0.81226356E+03</pdfrwt>
<pdfrwt beam="2">  1       -1 0.16407672E+00 0.81226356E+03</pdfrwt>
<totfact> 0.15916428E+01</totfact>
</mgrwt>
</event>
<event>
 4    1  0.2514307E-008  0.6782991E+03  0.7818608E-02  0.1010303E+00
          1   -1    0    0  501    0  0.00000000000E+00  0.00000000000E+00  0.23300222101E+04  0.23300222101E+04  0.50400000000E-02 0. -1.
         -1   -1    0    0    0  501 -0.00000000000E+00 -0.00000000000E+00 -0.29679188476E+03  0.29679188480E+03  0.50400000000E-02 0.  1.
    8880023    1    1    2    0    0  0.16100904430E+03 -0.18857001648E+02  0.10575183243E+03  0.68649337592E+03  0.65864270000E+03 0.  1.
    8880022    1    1    2    0    0 -0.16100904430E+03  0.18857001648E+02  0.19274784929E+04  0.19403207190E+04  0.15294330000E+03 0.  0.
<mgrwt>
<rscale>  0 0.51354555E+03</rscale>
<asrwt>0</asrwt>
<pdfrwt beam="1">  1        1 0.35846495E+00 0.67829913E+03</pdfrwt>
<pdfrwt beam="2">  1       -1 0.45660291E-01 0.67829913E+03</pdfrwt>
<totfact> 0.90084145E+00</totfact>
</mgrwt>
</event>
<event>
 4    1  0.2514307E-008  0.7217540E+03  0.7818608E-02  0.9916695E-01
          1   -1    0    0  501    0  0.00000000000E+00  0.00000000000E+00  0.18112980975E+04  0.18112980976E+04  0.50400000000E-02 0. -1.
         -1   -1    0    0    0  501 -0.00000000000E+00 -0.00000000000E+00 -0.21089324017E+03  0.21089324023E+03  0.50400000000E-02 0.  1.
    8880023    1    1    2    0    0  0.29077698323E+03  0.50669255402E+02  0.51402368213E+03  0.88608644018E+03  0.65864270000E+03 0.  1.
    8880022    1    1    2    0    0 -0.29077698323E+03 -0.50669255402E+02  0.10863811752E+04  0.11361048976E+04  0.15294330000E+03 0.  0.
<mgrwt>
<rscale>  0 0.59458950E+03</rscale>
<asrwt>0</asrwt>
<pdfrwt beam="1">  1        1 0.27866125E+00 0.72175400E+03</pdfrwt>
<pdfrwt beam="2">  1       -1 0.32445113E-01 0.72175400E+03</pdfrwt>
<totfact> 0.36884545E+01</totfact>
</mgrwt>
</event>
<event>
 4    1  0.2514307E-008  0.1151604E+04  0.7818608E-02  0.9205666E-01
          1   -1    0    0  501    0  0.00000000000E+00  0.00000000000E+00  0.13993750845E+04  0.13993750845E+04  0.50400000000E-02 0. -1.
         -1   -1    0    0    0  501 -0.00000000000E+00 -0.00000000000E+00 -0.14064240912E+04  0.14064240912E+04  0.50400000000E-02 0.  1.
    8880023    1    1    2    0    0  0.76950935744E+03  0.54793781975E+03 -0.92701096742E+03  0.14783572117E+04  0.65864270000E+03 0.  1.
    8880022    1    1    2    0    0 -0.76950935744E+03 -0.54793781975E+03  0.91996196076E+03  0.13274419640E+04  0.15294330000E+03 0.  0.
<mgrwt>
<rscale>  0 0.10995138E+04</rscale>
<asrwt>0</asrwt>
<pdfrwt beam="1">  1        1 0.21528847E+00 0.11516035E+04</pdfrwt>
<pdfrwt beam="2">  1       -1 0.21637294E+00 0.11516035E+04</pdfrwt>
<totfact> 0.88277847E-01</totfact>
</mgrwt>
</event>
<event>
 4    1  0.2514307E-008  0.8070399E+03  0.7818608E-02  0.9695776E-01
          1   -1    0    0  501    0  0.00000000000E+00  0.00000000000E+00  0.14561218942E+04  0.14561218942E+04  0.50400000000E-02 0. -1.
         -1   -1    0    0    0  501 -0.00000000000E+00 -0.00000000000E+00 -0.80599630034E+03  0.80599630036E+03  0.50400000000E-02 0.  1.
    8880023    1    1    2    0    0  0.45667386936E+03 -0.94616319789E+02 -0.54251187397E+03  0.97243643010E+03  0.65864270000E+03 0.  0.
    8880022    1    1    2    0    0 -0.45667386936E+03  0.94616319789E+02  0.11926374679E+04  0.12896817645E+04  0.15294330000E+03 0.  0.
<mgrwt>
<rscale>  0 0.71268847E+03</rscale>
<asrwt>0</asrwt>
<pdfrwt beam="1">  1        1 0.22401875E+00 0.80703995E+03</pdfrwt>
<pdfrwt beam="2">  1       -1 0.12399943E+00 0.80703995E+03</pdfrwt>
<totfact> 0.41375324E+00</totfact>
</mgrwt>
</event>
<event>
 4    1  0.2514307E-008  0.9888257E+03  0.7818608E-02  0.9396325E-01
         -1   -1    0    0    0  501 -0.00000000000E+00  0.00000000000E+00  0.77872364114E+03  0.77872364115E+03  0.50400000000E-02 0.  1.
          1   -1    0    0  501    0  0.00000000000E+00 -0.00000000000E+00 -0.16762133845E+04  0.16762133845E+04  0.50400000000E-02 0. -1.
    8880023    1    1    2    0    0  0.61264428447E+03 -0.41064960660E+03 -0.12741050079E+04  0.16127987773E+04  0.65864270000E+03 0.  0.
    8880022    1    1    2    0    0 -0.61264428447E+03  0.41064960660E+03  0.37661526460E+03  0.84213824829E+03  0.15294330000E+03 0.  0.
<mgrwt>
<rscale>  0 0.92378721E+03</rscale>
<asrwt>0</asrwt>
<pdfrwt beam="1">  1        1 0.25787898E+00 0.98882573E+03</pdfrwt>
<pdfrwt beam="2">  1       -1 0.11980364E+00 0.98882573E+03</pdfrwt>
<totfact> 0.31019822E+00</totfact>
</mgrwt>
</event>
<event>
 4    1  0.2514307E-008  0.1128263E+04  0.7818608E-02  0.9230222E-01
         -1   -1    0    0    0  501 -0.00000000000E+00  0.00000000000E+00  0.94336447053E+03  0.94336447054E+03  0.50400000000E-02 0.  1.
          1   -1    0    0  501    0  0.00000000000E+00 -0.00000000000E+00 -0.12500734167E+04  0.12500734167E+04  0.50400000000E-02 0. -1.
    8880023    1    1    2    0    0 -0.88609794777E+03  0.23237512736E+03  0.18378114744E+03  0.11431331896E+04  0.65864270000E+03 0. -1.
    8880022    1    1    2    0    0  0.88609794777E+03 -0.23237512736E+03 -0.49049009360E+03  0.10503046976E+04  0.15294330000E+03 0.  1.
<mgrwt>
<rscale>  0 0.10746857E+04</rscale>
<asrwt>0</asrwt>
<pdfrwt beam="1">  1        1 0.19231899E+00 0.11282633E+04</pdfrwt>
<pdfrwt beam="2">  1       -1 0.14513299E+00 0.11282633E+04</pdfrwt>
<totfact> 0.37033633E+00</totfact>
</mgrwt>
</event>
<event>
 4    1  0.2514307E-008  0.2580697E+04  0.7818608E-02  0.8381826E-01
          1   -1    0    0  501    0  0.00000000000E+00  0.00000000000E+00  0.41734550551E+04  0.41734550551E+04  0.50400000000E-02 0. -1.
         -1   -1    0    0    0  501 -0.00000000000E+00 -0.00000000000E+00 -0.22142989326E+04  0.22142989326E+04  0.50400000000E-02 0.  1.
    8880023    1    1    2    0    0  0.23463206316E+04  0.84909797266E+03 -0.76370725090E+03  0.26913280820E+04  0.65864270000E+03 0.  0.
    8880022    1    1    2    0    0 -0.23463206316E+04 -0.84909797266E+03  0.27228633734E+04  0.36964259058E+04  0.15294330000E+03 0.  0.
<mgrwt>
<rscale>  0 0.25602604E+04</rscale>
<asrwt>0</asrwt>
<pdfrwt beam="1">  1        1 0.64207001E+00 0.25806972E+04</pdfrwt>
<pdfrwt beam="2">  1       -1 0.34066138E+00 0.25806972E+04</pdfrwt>
<totfact> 0.99009995E-04</totfact>
</mgrwt>
</event>
<event>
 4    1  0.2514307E-008  0.7034129E+03  0.7818608E-02  0.9983327E-01
          1   -1    0    0  501    0  0.00000000000E+00  0.00000000000E+00  0.18536558686E+04  0.18536558686E+04  0.50400000000E-02 0. -1.
         -1   -1    0    0    0  501 -0.00000000000E+00 -0.00000000000E+00 -0.46084073387E+03  0.46084073389E+03  0.50400000000E-02 0.  1.
    8880023    1    1    2    0    0  0.37444102546E+01 -0.24691178181E+03 -0.17102832929E+03  0.72390630906E+03  0.65864270000E+03 0.  1.
    8880022    1    1    2    0    0 -0.37444102546E+01  0.24691178181E+03  0.15638434641E+04  0.15905902935E+04  0.15294330000E+03 0.  0.
<mgrwt>
<rscale>  0 0.56387384E+03</rscale>
<asrwt>0</asrwt>
<pdfrwt beam="1">  1        1 0.28517782E+00 0.70341286E+03</pdfrwt>
<pdfrwt beam="2">  1       -1 0.70898576E-01 0.70341286E+03</pdfrwt>
<totfact> 0.79282726E+00</totfact>
</mgrwt>
</event>
<event>
 4    1  0.2514307E-008  0.1116950E+04  0.7818608E-02  0.9242415E-01
          1   -1    0    0  501    0  0.00000000000E+00  0.00000000000E+00  0.26535700874E+04  0.26535700875E+04  0.50400000000E-02 0. -1.
         -1   -1    0    0    0  501 -0.00000000000E+00 -0.00000000000E+00 -0.87246609182E+03  0.87246609184E+03  0.50400000000E-02 0.  1.
    8880023    1    1    2    0    0  0.61257085273E+03 -0.66221187146E+03 -0.37951913612E+03  0.11796663059E+04  0.65864270000E+03 0.  0.
    8880022    1    1    2    0    0 -0.61257085273E+03  0.66221187146E+03  0.21606231318E+04  0.23463698734E+04  0.15294330000E+03 0.  0.
<mgrwt>
<rscale>  0 0.10626161E+04</rscale>
<asrwt>0</asrwt>
<pdfrwt beam="1">  1        1 0.40824154E+00 0.11169502E+04</pdfrwt>
<pdfrwt beam="2">  1       -1 0.13422556E+00 0.11169502E+04</pdfrwt>
<totfact> 0.49550401E-01</totfact>
</mgrwt>
</event>
<event>
 4    1  0.2514307E-008  0.7616055E+03  0.7818608E-02  0.9800969E-01
         -1   -1    0    0    0  501 -0.00000000000E+00  0.00000000000E+00  0.58741010997E+03  0.58741010999E+03  0.50400000000E-02 0.  1.
          1   -1    0    0  501    0  0.00000000000E+00 -0.00000000000E+00 -0.31058230571E+04  0.31058230571E+04  0.50400000000E-02 0. -1.
    8880023    1    1    2    0    0  0.34619125324E+03  0.16243264872E+03  0.31926970074E+03  0.82581844086E+03  0.65864270000E+03 0.  1.
    8880022    1    1    2    0    0 -0.34619125324E+03 -0.16243264872E+03 -0.28376826478E+04  0.28674147262E+04  0.15294330000E+03 0.  0.
<mgrwt>
<rscale>  0 0.65310589E+03</rscale>
<asrwt>0</asrwt>
<pdfrwt beam="1">  1        1 0.47781892E+00 0.76160551E+03</pdfrwt>
<pdfrwt beam="2">  1       -1 0.90370788E-01 0.76160551E+03</pdfrwt>
<totfact> 0.64640965E-01</totfact>
</mgrwt>
</event>
<event>
 4    1  0.2514307E-008  0.1002306E+04  0.7818608E-02  0.9378547E-01
         -1   -1    0    0    0  501 -0.00000000000E+00  0.00000000000E+00  0.78358111612E+03  0.78358111614E+03  0.50400000000E-02 0.  1.
          1   -1    0    0  501    0  0.00000000000E+00 -0.00000000000E+00 -0.12662508247E+04  0.12662508248E+04  0.50400000000E-02 0. -1.
    8880023    1    1    2    0    0  0.59854809597E+03 -0.46102780245E+03  0.19777064345E+03  0.10216309958E+04  0.65864270000E+03 0.  0.
    8880022    1    1    2    0    0 -0.59854809597E+03  0.46102780245E+03 -0.68044035208E+03  0.10282009451E+04  0.15294330000E+03 0.  0.
<mgrwt>
<rscale>  0 0.93862377E+03</rscale>
<asrwt>0</asrwt>
<pdfrwt beam="1">  1        1 0.19480782E+00 0.10023057E+04</pdfrwt>
<pdfrwt beam="2">  1       -1 0.12055094E+00 0.10023057E+04</pdfrwt>
<totfact> 0.58752472E+00</totfact>
</mgrwt>
</event>
<event>
 4    1  0.2514307E-008  0.7129308E+03  0.7818608E-02  0.9947274E-01
         -1   -1    0    0    0  501 -0.00000000000E+00  0.00000000000E+00  0.73869833831E+03  0.73869833833E+03  0.50400000000E-02 0.  1.
          1   -1    0    0  501    0  0.00000000000E+00 -0.00000000000E+00 -0.12003887868E+04  0.12003887868E+04  0.50400000000E-02 0. -1.
    8880023    1    1    2    0    0  0.15471790499E+03 -0.22477219929E+03  0.53700389933E+03  0.89254891510E+03  0.65864270000E+03 0.  1.
    8880022    1    1    2    0    0 -0.15471790499E+03  0.22477219929E+03 -0.99869434781E+03  0.10465382100E+04  0.15294330000E+03 0.  0.
<mgrwt>
<rscale>  0 0.58023867E+03</rscale>
<asrwt>0</asrwt>
<pdfrwt beam="1">  1        1 0.18467520E+00 0.71293084E+03</pdfrwt>
<pdfrwt beam="2">  1       -1 0.11364590E+00 0.71293084E+03</pdfrwt>
<totfact> 0.78558868E+00</totfact>
</mgrwt>
</event>
<event>
 4    1  0.2514307E-008  0.1041397E+04  0.7818608E-02  0.9329295E-01
         -1   -1    0    0    0  501 -0.00000000000E+00  0.00000000000E+00  0.10584583957E+04  0.10584583957E+04  0.50400000000E-02 0.  1.
          1   -1    0    0  501    0  0.00000000000E+00 -0.00000000000E+00 -0.16768115734E+04  0.16768115734E+04  0.50400000000E-02 0. -1.
    8880023    1    1    2    0    0 -0.13347892170E+03  0.79553872821E+03  0.64763900801E+03  0.12263543458E+04  0.65864270000E+03 0.  0.
    8880022    1    1    2    0    0  0.13347892170E+03 -0.79553872821E+03 -0.12659921857E+04  0.15089156232E+04  0.15294330000E+03 0.  0.
<mgrwt>
<rscale>  0 0.98130076E+03</rscale>
<asrwt>0</asrwt>
<pdfrwt beam="1">  1        1 0.25797101E+00 0.10413975E+04</pdfrwt>
<pdfrwt beam="2">  1       -1 0.16283975E+00 0.10413975E+04</pdfrwt>
<totfact> 0.13769113E+00</totfact>
</mgrwt>
</event>
<event>
 4    1  0.2514307E-008  0.1885267E+04  0.7818608E-02  0.8676781E-01
         -1   -1    0    0    0  501 -0.00000000000E+00  0.00000000000E+00  0.13309914221E+04  0.13309914221E+04  0.50400000000E-02 0.  1.
          1   -1    0    0  501    0  0.00000000000E+00 -0.00000000000E+00 -0.25821514769E+04  0.25821514769E+04  0.50400000000E-02 0. -1.
    8880023    1    1    2    0    0 -0.12862559298E+04 -0.12107709903E+04 -0.96239098145E+03  0.21167019902E+04  0.65864270000E+03 0.  0.
    8880022    1    1    2    0    0  0.12862559298E+04  0.12107709903E+04 -0.28876907336E+03  0.17964409088E+04  0.15294330000E+03 0.  0.
<mgrwt>
<rscale>  0 0.18565716E+04</rscale>
<asrwt>0</asrwt>
<pdfrwt beam="1">  1        1 0.39725407E+00 0.18852668E+04</pdfrwt>
<pdfrwt beam="2">  1       -1 0.20476791E+00 0.18852668E+04</pdfrwt>
<totfact> 0.15013237E-01</totfact>
</mgrwt>
</event>
<event>
 4    1  0.2514307E-008  0.1039976E+04  0.7818608E-02  0.9331030E-01
          1   -1    0    0  501    0  0.00000000000E+00  0.00000000000E+00  0.12401325251E+04  0.12401325251E+04  0.50400000000E-02 0. -1.
         -1   -1    0    0    0  501 -0.00000000000E+00 -0.00000000000E+00 -0.90521057679E+03  0.90521057680E+03  0.50400000000E-02 0.  1.
    8880023    1    1    2    0    0 -0.79324085793E+03 -0.13604413497E+03 -0.32909706080E+03  0.10908043578E+04  0.65864270000E+03 0.  1.
    8880022    1    1    2    0    0  0.79324085793E+03  0.13604413497E+03  0.66401900913E+03  0.10545387441E+04  0.15294330000E+03 0.  0.
<mgrwt>
<rscale>  0 0.97975673E+03</rscale>
<asrwt>0</asrwt>
<pdfrwt beam="1">  1        1 0.19078962E+00 0.10399756E+04</pdfrwt>
<pdfrwt beam="2">  1       -1 0.13926317E+00 0.10399756E+04</pdfrwt>
<totfact> 0.42402867E+00</totfact>
</mgrwt>
</event>
<event>
 4    1  0.2514307E-008  0.1653801E+04  0.7818608E-02  0.8808034E-01
         -1   -1    0    0    0  501 -0.00000000000E+00  0.00000000000E+00  0.16516063116E+04  0.16516063116E+04  0.50400000000E-02 0.  1.
          1   -1    0    0  501    0  0.00000000000E+00 -0.00000000000E+00 -0.26597625166E+04  0.26597625166E+04  0.50400000000E-02 0. -1.
    8880023    1    1    2    0    0  0.17780116772E+03  0.15065304667E+04 -0.19206044245E+04  0.25345174814E+04  0.65864270000E+03 0.  0.
    8880022    1    1    2    0    0 -0.17780116772E+03 -0.15065304667E+04  0.91244821952E+03  0.17768513468E+04  0.15294330000E+03 0.  0.
<mgrwt>
<rscale>  0 0.16205292E+04</rscale>
<asrwt>0</asrwt>
<pdfrwt beam="1">  1        1 0.40919423E+00 0.16538009E+04</pdfrwt>
<pdfrwt beam="2">  1       -1 0.25409328E+00 0.16538009E+04</pdfrwt>
<totfact> 0.63549950E-02</totfact>
</mgrwt>
</event>
<event>
 4    1  0.2514307E-008  0.1212024E+04  0.7818608E-02  0.9145522E-01
          1   -1    0    0  501    0  0.00000000000E+00  0.00000000000E+00  0.18852087957E+04  0.18852087957E+04  0.50400000000E-02 0. -1.
         -1   -1    0    0    0  501 -0.00000000000E+00 -0.00000000000E+00 -0.11702436726E+04  0.11702436726E+04  0.50400000000E-02 0.  1.
    8880023    1    1    2    0    0  0.84235444688E+03 -0.57064038922E+03 -0.62688947311E+03  0.13645483083E+04  0.65864270000E+03 0.  0.
    8880022    1    1    2    0    0 -0.84235444688E+03  0.57064038922E+03  0.13418545962E+04  0.16909041600E+04  0.15294330000E+03 0.  0.
<mgrwt>
<rscale>  0 0.11633864E+04</rscale>
<asrwt>0</asrwt>
<pdfrwt beam="1">  1        1 0.29003212E+00 0.12120238E+04</pdfrwt>
<pdfrwt beam="2">  1       -1 0.18003749E+00 0.12120238E+04</pdfrwt>
<totfact> 0.72651324E-01</totfact>
</mgrwt>
</event>
<event>
 4    1  0.2514307E-008  0.1452521E+04  0.7818608E-02  0.8943911E-01
          1   -1    0    0  501    0  0.00000000000E+00  0.00000000000E+00  0.14339236567E+04  0.14339236567E+04  0.50400000000E-02 0. -1.
         -1   -1    0    0    0  501 -0.00000000000E+00 -0.00000000000E+00 -0.16886542946E+04  0.16886542946E+04  0.50400000000E-02 0.  1.
    8880023    1    1    2    0    0 -0.43731637093E+03 -0.12185076220E+04 -0.85707790698E+03  0.16865346655E+04  0.65864270000E+03 0.  0.
    8880022    1    1    2    0    0  0.43731637093E+03  0.12185076220E+04  0.60234726908E+03  0.14360432858E+04  0.15294330000E+03 0.  0.
<mgrwt>
<rscale>  0 0.14137697E+04</rscale>
<asrwt>0</asrwt>
<pdfrwt beam="1">  1        1 0.22060364E+00 0.14525208E+04</pdfrwt>
<pdfrwt beam="2">  1       -1 0.25979297E+00 0.14525208E+04</pdfrwt>
<totfact> 0.41639358E-01</totfact>
</mgrwt>
</event>
<event>
 4    1  0.2514307E-008  0.6871604E+03  0.7818608E-02  0.1005532E+00
          1   -1    0    0  501    0  0.00000000000E+00  0.00000000000E+00  0.93029848420E+03  0.93029848421E+03  0.50400000000E-02 0. -1.
         -1   -1    0    0    0  501 -0.00000000000E+00 -0.00000000000E+00 -0.33501063021E+03  0.33501063025E+03  0.50400000000E-02 0.  1.
    8880023    1    1    2    0    0  0.15495469480E+03  0.11986764326E+03  0.78204052420E+02  0.69159618956E+03  0.65864270000E+03 0.  1.
    8880022    1    1    2    0    0 -0.15495469480E+03 -0.11986764326E+03  0.51708380157E+03  0.57371292490E+03  0.15294330000E+03 0.  0.
<mgrwt>
<rscale>  0 0.53289488E+03</rscale>
<asrwt>0</asrwt>
<pdfrwt beam="1">  1        1 0.14312285E+00 0.68716040E+03</pdfrwt>
<pdfrwt beam="2">  1       -1 0.51540096E-01 0.68716040E+03</pdfrwt>
<totfact> 0.66923465E+01</totfact>
</mgrwt>
</event>
<event>
 4    1  0.2514307E-008  0.8611894E+03  0.7818608E-02  0.9591451E-01
          1   -1    0    0  501    0  0.00000000000E+00  0.00000000000E+00  0.11868760508E+04  0.11868760508E+04  0.50400000000E-02 0. -1.
         -1   -1    0    0    0  501 -0.00000000000E+00 -0.00000000000E+00 -0.11538289700E+04  0.11538289700E+04  0.50400000000E-02 0.  1.
    8880023    1    1    2    0    0  0.45445399340E+03  0.31829006222E+03 -0.89922765189E+03  0.12450933989E+04  0.65864270000E+03 0.  1.
    8880022    1    1    2    0    0 -0.45445399340E+03 -0.31829006222E+03  0.93227473264E+03  0.10956116219E+04  0.15294330000E+03 0.  0.
<mgrwt>
<rscale>  0 0.77864589E+03</rscale>
<asrwt>0</asrwt>
<pdfrwt beam="1">  1        1 0.18259632E+00 0.86118941E+03</pdfrwt>
<pdfrwt beam="2">  1       -1 0.17751215E+00 0.86118941E+03</pdfrwt>
<totfact> 0.24262206E+00</totfact>
</mgrwt>
</event>
<event>
 4    1  0.2514307E-008  0.7702794E+03  0.7818608E-02  0.9779187E-01
          1   -1    0    0  501    0  0.00000000000E+00  0.00000000000E+00  0.26661410939E+04  0.26661410939E+04  0.50400000000E-02 0. -1.
         -1   -1    0    0    0  501 -0.00000000000E+00 -0.00000000000E+00 -0.36306503757E+03  0.36306503761E+03  0.50400000000E-02 0.  1.
    8880023    1    1    2    0    0  0.38138787484E+03  0.11858954943E+03  0.90387988211E+02  0.77556456016E+03  0.65864270000E+03 0.  1.
    8880022    1    1    2    0    0 -0.38138787484E+03 -0.11858954943E+03  0.22126880682E+04  0.22536415714E+04  0.15294330000E+03 0.  0.
<mgrwt>
<rscale>  0 0.66491549E+03</rscale>
<asrwt>0</asrwt>
<pdfrwt beam="1">  1        1 0.41017556E+00 0.77027943E+03</pdfrwt>
<pdfrwt beam="2">  1       -1 0.55856159E-01 0.77027943E+03</pdfrwt>
<totfact> 0.35632964E+00</totfact>
</mgrwt>
</event>
<event>
 4    1  0.2514307E-008  0.6724594E+03  0.7818608E-02  0.1013958E+00
         -1   -1    0    0    0  501 -0.00000000000E+00  0.00000000000E+00  0.38086168011E+03  0.38086168015E+03  0.50400000000E-02 0.  1.
          1   -1    0    0  501    0  0.00000000000E+00 -0.00000000000E+00 -0.85867614574E+03  0.85867614576E+03  0.50400000000E-02 0. -1.
    8880023    1    1    2    0    0 -0.12870958370E+03  0.42722755724E+02  0.49213500072E+02  0.67425778872E+03  0.65864270000E+03 0.  1.
    8880022    1    1    2    0    0  0.12870958370E+03 -0.42722755724E+02 -0.52702796570E+03  0.56528003718E+03  0.15294330000E+03 0.  0.
<mgrwt>
<rscale>  0 0.49931492E+03</rscale>
<asrwt>0</asrwt>
<pdfrwt beam="1">  1        1 0.13210402E+00 0.67245936E+03</pdfrwt>
<pdfrwt beam="2">  1       -1 0.58594105E-01 0.67245936E+03</pdfrwt>
<totfact> 0.59857542E+01</totfact>
</mgrwt>
</event>
<event>
 4    1  0.2737266E-008  0.1261906E+04  0.7818608E-02  0.9099175E-01
         -1   -1    0    0    0  501 -0.00000000000E+00  0.00000000000E+00  0.20769595149E+04  0.20769595149E+04  0.50400000000E-02 0.  1.
          1   -1    0    0  501    0  0.00000000000E+00 -0.00000000000E+00 -0.22944340008E+04  0.22944340008E+04  0.50400000000E-02 0. -1.
    8880023    1    1    2    0    0  0.10347423502E+04  0.29648933074E+03  0.17298029979E+04  0.21411740407E+04  0.65864270000E+03 0.  0.
    8880022    1    1    2    0    0 -0.10347423502E+04 -0.29648933074E+03 -0.19472774838E+04  0.22302194750E+04  0.15294330000E+03 0.  0.
<mgrwt>
<rscale>  0 0.12157578E+04</rscale>
<asrwt>0</asrwt>
<pdfrwt beam="1">  1        1 0.35298985E+00 0.12619064E+04</pdfrwt>
<pdfrwt beam="2">  1       -1 0.31953223E+00 0.12619064E+04</pdfrwt>
<totfact> 0.45294920E-02</totfact>
</mgrwt>
</event>
<event>
 4    1  0.2514307E-008  0.7521838E+03  0.7818608E-02  0.9825780E-01
         -1   -1    0    0    0  501 -0.00000000000E+00  0.00000000000E+00  0.52509021743E+03  0.52509021745E+03  0.50400000000E-02 0.  1.
          1   -1    0    0  501    0  0.00000000000E+00 -0.00000000000E+00 -0.13543131474E+04  0.13543131474E+04  0.50400000000E-02 0. -1.
    8880023    1    1    2    0    0 -0.35512512859E+03 -0.76527261136E+02  0.19913245558E+03  0.77809653629E+03  0.65864270000E+03 0.  1.
    8880022    1    1    2    0    0  0.35512512859E+03  0.76527261136E+02 -0.10283553856E+04  0.11013068286E+04  0.15294330000E+03 0.  0.
<mgrwt>
<rscale>  0 0.63997213E+03</rscale>
<asrwt>0</asrwt>
<pdfrwt beam="1">  1        1 0.20835587E+00 0.75218381E+03</pdfrwt>
<pdfrwt beam="2">  1       -1 0.80783111E-01 0.75218381E+03</pdfrwt>
<totfact> 0.13082683E+01</totfact>
</mgrwt>
</event>
<event>
 4    1  0.2514307E-008  0.9817669E+03  0.7818608E-02  0.9405811E-01
         -1   -1    0    0    0  501 -0.00000000000E+00  0.00000000000E+00  0.74072382263E+03  0.74072382265E+03  0.50400000000E-02 0.  1.
          1   -1    0    0  501    0  0.00000000000E+00 -0.00000000000E+00 -0.10595259483E+04  0.10595259483E+04  0.50400000000E-02 0. -1.
    8880023    1    1    2    0    0  0.40868020793E+03  0.60252507004E+03 -0.38236604711E+03  0.10535985823E+04  0.65864270000E+03 0. -1.
    8880022    1    1    2    0    0 -0.40868020793E+03 -0.60252507004E+03  0.63563921458E+02  0.74665118864E+03  0.15294330000E+03 0.  0.
<mgrwt>
<rscale>  0 0.91599024E+03</rscale>
<asrwt>0</asrwt>
<pdfrwt beam="1">  1        1 0.16300399E+00 0.98176687E+03</pdfrwt>
<pdfrwt beam="2">  1       -1 0.11395751E+00 0.98176687E+03</pdfrwt>
<totfact> 0.95918296E+00</totfact>
</mgrwt>
</event>
<event>
 4    1  0.2514307E-008  0.8297261E+03  0.7818608E-02  0.9649865E-01
         -1   -1    0    0    0  501 -0.00000000000E+00  0.00000000000E+00  0.31682345113E+03  0.31682345117E+03  0.50400000000E-02 0.  1.
          1   -1    0    0  501    0  0.00000000000E+00 -0.00000000000E+00 -0.17226751226E+04  0.17226751226E+04  0.50400000000E-02 0. -1.
    8880023    1    1    2    0    0  0.23449641396E+03 -0.44681840812E+03 -0.44019931388E+03  0.93926614982E+03  0.65864270000E+03 0.  1.
    8880022    1    1    2    0    0 -0.23449641396E+03  0.44681840812E+03 -0.96565235763E+03  0.11002324240E+04  0.15294330000E+03 0.  0.
<mgrwt>
<rscale>  0 0.74081869E+03</rscale>
<asrwt>0</asrwt>
<pdfrwt beam="1">  1        1 0.26502694E+00 0.82972614E+03</pdfrwt>
<pdfrwt beam="2">  1       -1 0.48742070E-01 0.82972614E+03</pdfrwt>
<totfact> 0.19895065E+01</totfact>
</mgrwt>
</event>
<event>
 4    1  0.2514307E-008  0.9848543E+03  0.7818608E-02  0.9401647E-01
          1   -1    0    0  501    0  0.00000000000E+00  0.00000000000E+00  0.37160548636E+04  0.37160548636E+04  0.50400000000E-02 0. -1.
         -1   -1    0    0    0  501 -0.00000000000E+00 -0.00000000000E+00 -0.59394309251E+03  0.59394309253E+03  0.50400000000E-02 0.  1.
    8880023    1    1    2    0    0  0.50727366743E+03 -0.52801628504E+03 -0.11136335797E+03  0.99113055381E+03  0.65864270000E+03 0.  1.
    8880022    1    1    2    0    0 -0.50727366743E+03  0.52801628504E+03  0.32334751290E+04  0.33188674023E+04  0.15294330000E+03 0.  0.
<mgrwt>
<rscale>  0 0.91940293E+03</rscale>
<asrwt>0</asrwt>
<pdfrwt beam="1">  1        1 0.57170074E+00 0.98485429E+03</pdfrwt>
<pdfrwt beam="2">  1       -1 0.91375862E-01 0.98485429E+03</pdfrwt>
<totfact> 0.20503567E-01</totfact>
</mgrwt>
</event>
<event>
 4    1  0.2514307E-008  0.9985367E+03  0.7818608E-02  0.9383475E-01
         -1   -1    0    0    0  501 -0.00000000000E+00  0.00000000000E+00  0.55384528646E+03  0.55384528648E+03  0.50400000000E-02 0.  1.
          1   -1    0    0  501    0  0.00000000000E+00 -0.00000000000E+00 -0.18737822781E+04  0.18737822781E+04  0.50400000000E-02 0. -1.
    8880023    1    1    2    0    0  0.36805540379E+03 -0.65406466181E+03 -0.12228146367E+03  0.10059961852E+04  0.65864270000E+03 0.  0.
    8880022    1    1    2    0    0 -0.36805540379E+03  0.65406466181E+03 -0.11976555280E+04  0.14216313794E+04  0.15294330000E+03 0.  0.
<mgrwt>
<rscale>  0 0.93448226E+03</rscale>
<asrwt>0</asrwt>
<pdfrwt beam="1">  1        1 0.28827419E+00 0.99853671E+03</pdfrwt>
<pdfrwt beam="2">  1       -1 0.85206968E-01 0.99853671E+03</pdfrwt>
<totfact> 0.49924280E+00</totfact>
</mgrwt>
</event>
<event>
 4    1  0.2514307E-008  0.9010325E+03  0.7818608E-02  0.9524376E-01
          1   -1    0    0  501    0  0.00000000000E+00  0.00000000000E+00  0.15733136634E+04  0.15733136634E+04  0.50400000000E-02 0. -1.
         -1   -1    0    0    0  501 -0.00000000000E+00 -0.00000000000E+00 -0.49322598979E+03  0.49322598982E+03  0.50400000000E-02 0.  1.
    8880023    1    1    2    0    0  0.36293664530E+03 -0.49631268649E+03  0.10979095385E+03  0.90769683875E+03  0.65864270000E+03 0.  0.
    8880022    1    1    2    0    0 -0.36293664530E+03  0.49631268649E+03  0.97029671975E+03  0.11588428145E+04  0.15294330000E+03 0.  0.
<mgrwt>
<rscale>  0 0.82510275E+03</rscale>
<asrwt>0</asrwt>
<pdfrwt beam="1">  1        1 0.24204825E+00 0.90103246E+03</pdfrwt>
<pdfrwt beam="2">  1       -1 0.75880922E-01 0.90103246E+03</pdfrwt>
<totfact> 0.10340312E+01</totfact>
</mgrwt>
</event>
<event>
 4    1  0.2514307E-008  0.7518072E+03  0.7818608E-02  0.9826799E-01
          1   -1    0    0  501    0  0.00000000000E+00  0.00000000000E+00  0.19910697535E+04  0.19910697535E+04  0.50400000000E-02 0. -1.
         -1   -1    0    0    0  501 -0.00000000000E+00 -0.00000000000E+00 -0.41613880602E+03  0.41613880605E+03  0.50400000000E-02 0.  1.
    8880023    1    1    2    0    0 -0.10731358054E+03  0.34624790074E+03 -0.32321242509E+02  0.75250161615E+03  0.65864270000E+03 0.  1.
    8880022    1    1    2    0    0  0.10731358054E+03 -0.34624790074E+03  0.16072521900E+04  0.16547069434E+04  0.15294330000E+03 0.  0.
<mgrwt>
<rscale>  0 0.63943974E+03</rscale>
<asrwt>0</asrwt>
<pdfrwt beam="1">  1        1 0.30631842E+00 0.75180717E+03</pdfrwt>
<pdfrwt beam="2">  1       -1 0.64021355E-01 0.75180717E+03</pdfrwt>
<totfact> 0.78276890E+00</totfact>
</mgrwt>
</event>
<event>
 4    1  0.2514307E-008  0.7659179E+03  0.7818608E-02  0.9790021E-01
          1   -1    0    0  501    0  0.00000000000E+00  0.00000000000E+00  0.84416920918E+03  0.84416920919E+03  0.50400000000E-02 0. -1.
         -1   -1    0    0    0  501 -0.00000000000E+00 -0.00000000000E+00 -0.10684012460E+04  0.10684012460E+04  0.50400000000E-02 0.  1.
    8880023    1    1    2    0    0 -0.26908683471E+03 -0.28357063314E+03 -0.85943178482E+03  0.11511964331E+04  0.65864270000E+03 0.  1.
    8880022    1    1    2    0    0  0.26908683471E+03  0.28357063314E+03  0.63519974802E+03  0.76137402207E+03  0.15294330000E+03 0.  0.
<mgrwt>
<rscale>  0 0.65900848E+03</rscale>
<asrwt>0</asrwt>
<pdfrwt beam="1">  1        1 0.12987219E+00 0.76591790E+03</pdfrwt>
<pdfrwt beam="2">  1       -1 0.16436942E+00 0.76591790E+03</pdfrwt>
<totfact> 0.56665957E+00</totfact>
</mgrwt>
</event>
<event>
 4    1  0.2514307E-008  0.9515854E+03  0.7818608E-02  0.9447837E-01
          1   -1    0    0  501    0  0.00000000000E+00  0.00000000000E+00  0.11125199358E+04  0.11125199359E+04  0.50400000000E-02 0. -1.
         -1   -1    0    0    0  501 -0.00000000000E+00 -0.00000000000E+00 -0.90403299239E+03  0.90403299241E+03  0.50400000000E-02 0.  1.
    8880023    1    1    2    0    0  0.34658378871E+03 -0.59294542513E+03 -0.45021477776E+03  0.10527146585E+04  0.65864270000E+03 0.  0.
    8880022    1    1    2    0    0 -0.34658378871E+03  0.59294542513E+03  0.65870172122E+03  0.96383826980E+03  0.15294330000E+03 0.  0.
<mgrwt>
<rscale>  0 0.88241329E+03</rscale>
<asrwt>0</asrwt>
<pdfrwt beam="1">  1        1 0.17115691E+00 0.95158542E+03</pdfrwt>
<pdfrwt beam="2">  1       -1 0.13908200E+00 0.95158542E+03</pdfrwt>
<totfact> 0.53363913E+00</totfact>
</mgrwt>
</event>
<event>
 4    1  0.2514307E-008  0.1196843E+04  0.7818608E-02  0.9160197E-01
         -1   -1    0    0    0  501 -0.00000000000E+00  0.00000000000E+00  0.10044623223E+04  0.10044623223E+04  0.50400000000E-02 0.  1.
          1   -1    0    0  501    0  0.00000000000E+00 -0.00000000000E+00 -0.15440158716E+04  0.15440158716E+04  0.50400000000E-02 0. -1.
    8880023    1    1    2    0    0  0.92346883391E+03  0.38187537471E+03  0.30057382510E+03  0.12340090436E+04  0.65864270000E+03 0.  1.
    8880022    1    1    2    0    0 -0.92346883391E+03 -0.38187537471E+03 -0.84012737437E+03  0.13144691503E+04  0.15294330000E+03 0.  0.
<mgrwt>
<rscale>  0 0.11473875E+04</rscale>
<asrwt>0</asrwt>
<pdfrwt beam="1">  1        1 0.23754090E+00 0.11968432E+04</pdfrwt>
<pdfrwt beam="2">  1       -1 0.15453267E+00 0.11968432E+04</pdfrwt>
<totfact> 0.19255382E+00</totfact>
</mgrwt>
</event>
<event>
 4    1  0.2514307E-008  0.7529694E+03  0.7818608E-02  0.9823661E-01
         -1   -1    0    0    0  501 -0.00000000000E+00  0.00000000000E+00  0.16905732999E+03  0.16905733006E+03  0.50400000000E-02 0.  1.
          1   -1    0    0  501    0  0.00000000000E+00 -0.00000000000E+00 -0.19617112678E+04  0.19617112679E+04  0.50400000000E-02 0. -1.
    8880023    1    1    2    0    0 -0.34914156303E+03 -0.10607987901E+03 -0.12483772580E+04  0.14578781692E+04  0.65864270000E+03 0. -1.
    8880022    1    1    2    0    0  0.34914156303E+03  0.10607987901E+03 -0.54427667985E+03  0.67289042868E+03  0.15294330000E+03 0.  1.
<mgrwt>
<rscale>  0 0.64108072E+03</rscale>
<asrwt>0</asrwt>
<pdfrwt beam="1">  1        1 0.30180172E+00 0.75296944E+03</pdfrwt>
<pdfrwt beam="2">  1       -1 0.26008821E-01 0.75296944E+03</pdfrwt>
<totfact> 0.42792321E+01</totfact>
</mgrwt>
</event>
<event>
 4    1  0.2514307E-008  0.8965661E+03  0.7818608E-02  0.9531567E-01
         -1   -1    0    0    0  501 -0.00000000000E+00  0.00000000000E+00  0.16253627329E+04  0.16253627329E+04  0.50400000000E-02 0.  1.
          1   -1    0    0  501    0  0.00000000000E+00 -0.00000000000E+00 -0.12820084173E+04  0.12820084173E+04  0.50400000000E-02 0. -1.
    8880023    1    1    2    0    0  0.53017211584E+03  0.29822488749E+03  0.14094544667E+04  0.16704468432E+04  0.65864270000E+03 0.  0.
    8880022    1    1    2    0    0 -0.53017211584E+03 -0.29822488749E+03 -0.10661001511E+04  0.12369243069E+04  0.15294330000E+03 0.  0.
<mgrwt>
<rscale>  0 0.81996009E+03</rscale>
<asrwt>0</asrwt>
<pdfrwt beam="1">  1        1 0.19723206E+00 0.89656609E+03</pdfrwt>
<pdfrwt beam="2">  1       -1 0.25005580E+00 0.89656609E+03</pdfrwt>
<totfact> 0.66673988E-01</totfact>
</mgrwt>
</event>
<event>
 4    1  0.2514307E-008  0.9415818E+03  0.7818608E-02  0.9462331E-01
         -1   -1    0    0    0  501 -0.00000000000E+00  0.00000000000E+00  0.20091589544E+04  0.20091589544E+04  0.50400000000E-02 0.  1.
          1   -1    0    0  501    0  0.00000000000E+00 -0.00000000000E+00 -0.12387267796E+04  0.12387267796E+04  0.50400000000E-02 0. -1.
    8880023    1    1    2    0    0  0.66452350478E+03 -0.10571006036E+03  0.17866224012E+04  0.20195533952E+04  0.65864270000E+03 0.  0.
    8880022    1    1    2    0    0 -0.66452350478E+03  0.10571006036E+03 -0.10161902264E+04  0.12283323388E+04  0.15294330000E+03 0.  0.
<mgrwt>
<rscale>  0 0.87118904E+03</rscale>
<asrwt>0</asrwt>
<pdfrwt beam="1">  1        1 0.19057335E+00 0.94158181E+03</pdfrwt>
<pdfrwt beam="2">  1       -1 0.30910137E+00 0.94158181E+03</pdfrwt>
<totfact> 0.29641147E-01</totfact>
</mgrwt>
</event>
<event>
 4    1  0.2514307E-008  0.7795942E+03  0.7818608E-02  0.9756791E-01
         -1   -1    0    0    0  501 -0.00000000000E+00  0.00000000000E+00  0.20232430434E+04  0.20232430435E+04  0.50400000000E-02 0.  1.
          1   -1    0    0  501    0  0.00000000000E+00 -0.00000000000E+00 -0.47692907138E+03  0.47692907140E+03  0.50400000000E-02 0. -1.
    8880023    1    1    2    0    0 -0.36365043383E+03  0.20424334058E+03  0.18189275700E+04  0.19789554546E+04  0.65864270000E+03 0.  1.
    8880022    1    1    2    0    0  0.36365043383E+03 -0.20424334058E+03 -0.27261359788E+03  0.52121666029E+03  0.15294330000E+03 0.  0.
<mgrwt>
<rscale>  0 0.67733846E+03</rscale>
<asrwt>0</asrwt>
<pdfrwt beam="1">  1        1 0.73373705E-01 0.77959424E+03</pdfrwt>
<pdfrwt beam="2">  1       -1 0.31126815E+00 0.77959424E+03</pdfrwt>
<totfact> 0.13857672E+00</totfact>
</mgrwt>
</event>
<event>
 4    1  0.2514307E-008  0.6889962E+03  0.7818608E-02  0.1004633E+00
         -1   -1    0    0    0  501 -0.00000000000E+00  0.00000000000E+00  0.10369342840E+03  0.10369342853E+03  0.50400000000E-02 0.  1.
          1   -1    0    0  501    0  0.00000000000E+00 -0.00000000000E+00 -0.24039379761E+04  0.24039379761E+04  0.50400000000E-02 0. -1.
    8880023    1    1    2    0    0 -0.19066893465E+03 -0.67460071726E+02 -0.12510482085E+04  0.14282287387E+04  0.65864270000E+03 0.  1.
    8880022    1    1    2    0    0  0.19066893465E+03  0.67460071726E+02 -0.10491963392E+04  0.10794026659E+04  0.15294330000E+03 0.  0.
<mgrwt>
<rscale>  0 0.53664436E+03</rscale>
<asrwt>0</asrwt>
<pdfrwt beam="1">  1        1 0.36983657E+00 0.68899616E+03</pdfrwt>
<pdfrwt beam="2">  1       -1 0.15952837E-01 0.68899616E+03</pdfrwt>
<totfact> 0.49267550E+01</totfact>
</mgrwt>
</event>
<event>
 4    1  0.2514307E-008  0.9096713E+03  0.7818608E-02  0.9510681E-01
         -1   -1    0    0    0  501 -0.00000000000E+00  0.00000000000E+00  0.13230973660E+04  0.13230973660E+04  0.50400000000E-02 0.  1.
          1   -1    0    0  501    0  0.00000000000E+00 -0.00000000000E+00 -0.83168632062E+03  0.83168632064E+03  0.50400000000E-02 0. -1.
    8880023    1    1    2    0    0 -0.60984784597E+03  0.14757141148E+03  0.98585483173E+03  0.13414215118E+04  0.65864270000E+03 0.  1.
    8880022    1    1    2    0    0  0.60984784597E+03 -0.14757141148E+03 -0.49444378632E+03  0.81336217491E+03  0.15294330000E+03 0.  0.
<mgrwt>
<rscale>  0 0.83500916E+03</rscale>
<asrwt>0</asrwt>
<pdfrwt beam="1">  1        1 0.12795174E+00 0.90967133E+03</pdfrwt>
<pdfrwt beam="2">  1       -1 0.20355344E+00 0.90967133E+03</pdfrwt>
<totfact> 0.30000311E+00</totfact>
</mgrwt>
</event>
<event>
 4    1  0.2514307E-008  0.6919979E+03  0.7818608E-02  0.1003217E+00
          1   -1    0    0  501    0  0.00000000000E+00  0.00000000000E+00  0.16795301637E+04  0.16795301637E+04  0.50400000000E-02 0. -1.
         -1   -1    0    0    0  501 -0.00000000000E+00 -0.00000000000E+00 -0.17823861322E+03  0.17823861329E+03  0.50400000000E-02 0.  1.
    8880023    1    1    2    0    0  0.20292281619E+03 -0.62235078022E+02  0.58905941458E+03  0.90876403672E+03  0.65864270000E+03 0.  1.
    8880022    1    1    2    0    0 -0.20292281619E+03  0.62235078022E+02  0.91223213590E+03  0.94900474027E+03  0.15294330000E+03 0.  0.
<mgrwt>
<rscale>  0 0.54261817E+03</rscale>
<asrwt>0</asrwt>
<pdfrwt beam="1">  1        1 0.25838926E+00 0.69199789E+03</pdfrwt>
<pdfrwt beam="2">  1       -1 0.27421324E-01 0.69199789E+03</pdfrwt>
<totfact> 0.60809731E+01</totfact>
</mgrwt>
</event>
<event>
 4    1  0.2514307E-008  0.1316779E+04  0.7818608E-02  0.9051204E-01
          1   -1    0    0  501    0  0.00000000000E+00  0.00000000000E+00  0.20255637477E+04  0.20255637477E+04  0.50400000000E-02 0. -1.
         -1   -1    0    0    0  501 -0.00000000000E+00 -0.00000000000E+00 -0.13144864267E+04  0.13144864267E+04  0.50400000000E-02 0.  1.
    8880023    1    1    2    0    0  0.76085803788E+03  0.84922978086E+03 -0.72248025974E+03  0.15019600882E+04  0.65864270000E+03 0.  0.
    8880022    1    1    2    0    0 -0.76085803788E+03 -0.84922978086E+03  0.14335575808E+04  0.18380900862E+04  0.15294330000E+03 0.  0.
<mgrwt>
<rscale>  0 0.12730622E+04</rscale>
<asrwt>0</asrwt>
<pdfrwt beam="1">  1        1 0.31162519E+00 0.13167788E+04</pdfrwt>
<pdfrwt beam="2">  1       -1 0.20222868E+00 0.13167788E+04</pdfrwt>
<totfact> 0.40197690E-01</totfact>
</mgrwt>
</event>
<event>
 4    1  0.2514307E-008  0.8836152E+03  0.7818608E-02  0.9552863E-01
         -1   -1    0    0    0  501 -0.00000000000E+00  0.00000000000E+00  0.38939455802E+03  0.38939455805E+03  0.50400000000E-02 0.  1.
          1   -1    0    0  501    0  0.00000000000E+00 -0.00000000000E+00 -0.20104158318E+04  0.20104158318E+04  0.50400000000E-02 0. -1.
    8880023    1    1    2    0    0 -0.53987792306E+03 -0.23557911056E+03 -0.27959940793E+03  0.92679648485E+03  0.65864270000E+03 0.  0.
    8880022    1    1    2    0    0  0.53987792306E+03  0.23557911056E+03 -0.13414218658E+04  0.14730139050E+04  0.15294330000E+03 0.  0.
<mgrwt>
<rscale>  0 0.80496133E+03</rscale>
<asrwt>0</asrwt>
<pdfrwt beam="1">  1        1 0.30929474E+00 0.88361524E+03</pdfrwt>
<pdfrwt beam="2">  1       -1 0.59906856E-01 0.88361524E+03</pdfrwt>
<totfact> 0.85022687E+00</totfact>
</mgrwt>
</event>
<event>
 4    1  0.2514307E-008  0.8925621E+03  0.7818608E-02  0.9538079E-01
         -1   -1    0    0    0  501 -0.00000000000E+00  0.00000000000E+00  0.58462980432E+03  0.58462980435E+03  0.50400000000E-02 0.  1.
          1   -1    0    0  501    0  0.00000000000E+00 -0.00000000000E+00 -0.20645513820E+04  0.20645513820E+04  0.50400000000E-02 0. -1.
    8880023    1    1    2    0    0  0.59913671771E+03  0.62386673490E+02  0.14973971664E+03  0.90503540955E+03  0.65864270000E+03 0.  1.
    8880022    1    1    2    0    0 -0.59913671771E+03 -0.62386673490E+02 -0.16296612943E+04  0.17441457768E+04  0.15294330000E+03 0.  0.
<mgrwt>
<rscale>  0 0.81533708E+03</rscale>
<asrwt>0</asrwt>
<pdfrwt beam="1">  1        1 0.31762328E+00 0.89256210E+03</pdfrwt>
<pdfrwt beam="2">  1       -1 0.89943048E-01 0.89256210E+03</pdfrwt>
<totfact> 0.33496500E+00</totfact>
</mgrwt>
</event>
<event>
 4    1  0.2514307E-008  0.7925370E+03  0.7818608E-02  0.9727171E-01
          1   -1    0    0  501    0  0.00000000000E+00  0.00000000000E+00  0.17667554530E+04  0.17667554530E+04  0.50400000000E-02 0. -1.
         -1   -1    0    0    0  501 -0.00000000000E+00 -0.00000000000E+00 -0.46835961286E+03  0.46835961289E+03  0.50400000000E-02 0.  1.
    8880023    1    1    2    0    0 -0.43790232356E+03 -0.50459840887E+02 -0.63924254921E+02  0.79511078294E+03  0.65864270000E+03 0.  0.
    8880022    1    1    2    0    0  0.43790232356E+03  0.50459840887E+02  0.13623200951E+04  0.14400042830E+04  0.15294330000E+03 0.  0.
<mgrwt>
<rscale>  0 0.69421825E+03</rscale>
<asrwt>0</asrwt>
<pdfrwt beam="1">  1        1 0.27180853E+00 0.79253697E+03</pdfrwt>
<pdfrwt beam="2">  1       -1 0.72055324E-01 0.79253697E+03</pdfrwt>
<totfact> 0.86446544E+00</totfact>
</mgrwt>
</event>
<event>
 4    1  0.2514307E-008  0.1008607E+04  0.7818608E-02  0.9370383E-01
         -1   -1    0    0    0  501 -0.00000000000E+00  0.00000000000E+00  0.11227681553E+04  0.11227681554E+04  0.50400000000E-02 0.  1.
          1   -1    0    0  501    0  0.00000000000E+00 -0.00000000000E+00 -0.76574953159E+03  0.76574953161E+03  0.50400000000E-02 0. -1.
    8880023    1    1    2    0    0  0.75857309528E+03  0.89690866513E+02 -0.49479515819E+02  0.10098197964E+04  0.65864270000E+03 0.  0.
    8880022    1    1    2    0    0 -0.75857309528E+03 -0.89690866513E+02  0.40649813957E+03  0.87869789058E+03  0.15294330000E+03 0.  0.
<mgrwt>
<rscale>  0 0.94553657E+03</rscale>
<asrwt>0</asrwt>
<pdfrwt beam="1">  1        1 0.11780762E+00 0.10086069E+04</pdfrwt>
<pdfrwt beam="2">  1       -1 0.17273356E+00 0.10086069E+04</pdfrwt>
<totfact> 0.55808360E+00</totfact>
</mgrwt>
</event>
<event>
 4    1  0.2514307E-008  0.6810185E+03  0.7818608E-02  0.1008753E+00
          1   -1    0    0  501    0  0.00000000000E+00  0.00000000000E+00  0.45477002480E+03  0.45477002483E+03  0.50400000000E-02 0. -1.
         -1   -1    0    0    0  501 -0.00000000000E+00 -0.00000000000E+00 -0.53075788485E+03  0.53075788488E+03  0.50400000000E-02 0.  1.
    8880023    1    1    2    0    0 -0.17310029063E+03 -0.35077143430E+01 -0.21714706805E+03  0.71480002106E+03  0.65864270000E+03 0.  1.
    8880022    1    1    2    0    0  0.17310029063E+03  0.35077143430E+01  0.14115920799E+03  0.27072788865E+03  0.15294330000E+03 0.  0.
<mgrwt>
<rscale>  0 0.51973142E+03</rscale>
<asrwt>0</asrwt>
<pdfrwt beam="1">  1        1 0.69964620E-01 0.68101852E+03</pdfrwt>
<pdfrwt beam="2">  1       -1 0.81655059E-01 0.68101852E+03</pdfrwt>
<totfact> 0.77194109E+01</totfact>
</mgrwt>
</event>
<event>
 4    1  0.2514307E-008  0.1001787E+04  0.7818608E-02  0.9379224E-01
         -1   -1    0    0    0  501 -0.00000000000E+00  0.00000000000E+00  0.68162152353E+03  0.68162152355E+03  0.50400000000E-02 0.  1.
          1   -1    0    0  501    0  0.00000000000E+00 -0.00000000000E+00 -0.22529070749E+04  0.22529070749E+04  0.50400000000E-02 0. -1.
    8880023    1    1    2    0    0  0.71623935216E+03 -0.23825887152E+03  0.18324085543E+03  0.10184073433E+04  0.65864270000E+03 0.  0.
    8880022    1    1    2    0    0 -0.71623935216E+03  0.23825887152E+03 -0.17545264068E+04  0.19161212552E+04  0.15294330000E+03 0.  0.
<mgrwt>
<rscale>  0 0.93805365E+03</rscale>
<asrwt>0</asrwt>
<pdfrwt beam="1">  1        1 0.34660108E+00 0.10017866E+04</pdfrwt>
<pdfrwt beam="2">  1       -1 0.10486485E+00 0.10017866E+04</pdfrwt>
<totfact> 0.17363924E+00</totfact>
</mgrwt>
</event>
<event>
 4    1  0.2514307E-008  0.7019905E+03  0.7818608E-02  0.9989042E-01
         -1   -1    0    0    0  501 -0.00000000000E+00  0.00000000000E+00  0.49682651516E+03  0.49682651518E+03  0.50400000000E-02 0.  1.
          1   -1    0    0  501    0  0.00000000000E+00 -0.00000000000E+00 -0.76223134925E+03  0.76223134927E+03  0.50400000000E-02 0. -1.
    8880023    1    1    2    0    0 -0.18708063130E+03 -0.15485903797E+03  0.18411048990E+03  0.72573229431E+03  0.65864270000E+03 0.  1.
    8880022    1    1    2    0    0  0.18708063130E+03  0.15485903797E+03 -0.44951532400E+03  0.53332557015E+03  0.15294330000E+03 0.  0.
<mgrwt>
<rscale>  0 0.56133352E+03</rscale>
<asrwt>0</asrwt>
<pdfrwt beam="1">  1        1 0.11726636E+00 0.70199052E+03</pdfrwt>
<pdfrwt beam="2">  1       -1 0.76434848E-01 0.70199052E+03</pdfrwt>
<totfact> 0.42194642E+01</totfact>
</mgrwt>
</event>
<event>
 4    1  0.2514307E-008  0.8649680E+03  0.7818608E-02  0.9584787E-01
         -1   -1    0    0    0  501 -0.00000000000E+00  0.00000000000E+00  0.31553329571E+03  0.31553329575E+03  0.50400000000E-02 0.  1.
          1   -1    0    0  501    0  0.00000000000E+00 -0.00000000000E+00 -0.19706936347E+04  0.19706936347E+04  0.50400000000E-02 0. -1.
    8880023    1    1    2    0    0 -0.18369344002E+02 -0.56037665619E+03 -0.51547782214E+03  0.10069195703E+04  0.65864270000E+03 0.  0.
    8880022    1    1    2    0    0  0.18369344002E+02  0.56037665619E+03 -0.11396825168E+04  0.12793073601E+04  0.15294330000E+03 0.  0.
<mgrwt>
<rscale>  0 0.78311334E+03</rscale>
<asrwt>0</asrwt>
<pdfrwt beam="1">  1        1 0.30318363E+00 0.86496800E+03</pdfrwt>
<pdfrwt beam="2">  1       -1 0.48543585E-01 0.86496800E+03</pdfrwt>
<totfact> 0.13600790E+01</totfact>
</mgrwt>
</event>
<event>
 4    1  0.2514307E-008  0.1719423E+04  0.7818608E-02  0.8768469E-01
         -1   -1    0    0    0  501 -0.00000000000E+00  0.00000000000E+00  0.12576367374E+04  0.12576367374E+04  0.50400000000E-02 0.  1.
          1   -1    0    0  501    0  0.00000000000E+00 -0.00000000000E+00 -0.24644327518E+04  0.24644327518E+04  0.50400000000E-02 0. -1.
    8880023    1    1    2    0    0  0.39820941249E+03  0.15375412581E+04  0.34046176175E+01  0.17194259665E+04  0.65864270000E+03 0.  0.
    8880022    1    1    2    0    0 -0.39820941249E+03 -0.15375412581E+04 -0.12102006320E+04  0.20026435228E+04  0.15294330000E+03 0.  0.
<mgrwt>
<rscale>  0 0.16875987E+04</rscale>
<asrwt>0</asrwt>
<pdfrwt beam="1">  1        1 0.37914350E+00 0.17194226E+04</pdfrwt>
<pdfrwt beam="2">  1       -1 0.19348258E+00 0.17194226E+04</pdfrwt>
<totfact> 0.22106746E-01</totfact>
</mgrwt>
</event>
<event>
 4    1  0.2514307E-008  0.1227083E+04  0.7818608E-02  0.9131235E-01
          1   -1    0    0  501    0  0.00000000000E+00  0.00000000000E+00  0.25587781444E+04  0.25587781444E+04  0.50400000000E-02 0. -1.
         -1   -1    0    0    0  501 -0.00000000000E+00 -0.00000000000E+00 -0.14640244720E+04  0.14640244720E+04  0.50400000000E-02 0.  1.
    8880023    1    1    2    0    0 -0.89730064032E+03  0.51650127495E+03 -0.10637392745E+04  0.16239684285E+04  0.65864270000E+03 0.  0.
    8880022    1    1    2    0    0  0.89730064032E+03 -0.51650127495E+03  0.21584929470E+04  0.23988341880E+04  0.15294330000E+03 0.  0.
<mgrwt>
<rscale>  0 0.11792278E+04</rscale>
<asrwt>0</asrwt>
<pdfrwt beam="1">  1        1 0.39365817E+00 0.12270828E+04</pdfrwt>
<pdfrwt beam="2">  1       -1 0.22523454E+00 0.12270828E+04</pdfrwt>
<totfact> 0.12296068E-01</totfact>
</mgrwt>
</event>
<event>
 4    1  0.2514307E-008  0.1186395E+04  0.7818608E-02  0.9170462E-01
          1   -1    0    0  501    0  0.00000000000E+00  0.00000000000E+00  0.13338393707E+04  0.13338393707E+04  0.50400000000E-02 0. -1.
         -1   -1    0    0    0  501 -0.00000000000E+00 -0.00000000000E+00 -0.11540605863E+04  0.11540605863E+04  0.50400000000E-02 0.  1.
    8880023    1    1    2    0    0 -0.39268073115E+03 -0.90527577082E+03 -0.49204091143E+03  0.12843818913E+04  0.65864270000E+03 0.  0.
    8880022    1    1    2    0    0  0.39268073115E+03  0.90527577082E+03  0.67181969586E+03  0.12035180658E+04  0.15294330000E+03 0.  0.
<mgrwt>
<rscale>  0 0.11363576E+04</rscale>
<asrwt>0</asrwt>
<pdfrwt beam="1">  1        1 0.20520606E+00 0.11863948E+04</pdfrwt>
<pdfrwt beam="2">  1       -1 0.17754778E+00 0.11863948E+04</pdfrwt>
<totfact> 0.18206937E+00</totfact>
</mgrwt>
</event>
<event>
 4    1  0.2514307E-008  0.6760190E+03  0.7818608E-02  0.1011672E+00
          1   -1    0    0  501    0  0.00000000000E+00  0.00000000000E+00  0.69418502602E+03  0.69418502603E+03  0.50400000000E-02 0. -1.
         -1   -1    0    0    0  501 -0.00000000000E+00 -0.00000000000E+00 -0.48558743179E+03  0.48558743182E+03  0.50400000000E-02 0.  1.
    8880023    1    1    2    0    0  0.12805064070E+03 -0.82428816778E+02 -0.21077824762E+03  0.70811662341E+03  0.65864270000E+03 0.  1.
    8880022    1    1    2    0    0 -0.12805064070E+03  0.82428816778E+02  0.41937584185E+03  0.47165583444E+03  0.15294330000E+03 0.  0.
<mgrwt>
<rscale>  0 0.50815682E+03</rscale>
<asrwt>0</asrwt>
<pdfrwt beam="1">  1        1 0.10679770E+00 0.67601900E+03</pdfrwt>
<pdfrwt beam="2">  1       -1 0.74705758E-01 0.67601900E+03</pdfrwt>
<totfact> 0.51199661E+01</totfact>
</mgrwt>
</event>
<event>
 4    1  0.2514307E-008  0.9971459E+03  0.7818608E-02  0.9385301E-01
          1   -1    0    0  501    0  0.00000000000E+00  0.00000000000E+00  0.29282541026E+04  0.29282541026E+04  0.50400000000E-02 0. -1.
         -1   -1    0    0    0  501 -0.00000000000E+00 -0.00000000000E+00 -0.44068040428E+03  0.44068040431E+03  0.50400000000E-02 0.  1.
    8880023    1    1    2    0    0 -0.74671872846E+03 -0.53859341428E+02  0.28424634192E+03  0.10368683028E+04  0.65864270000E+03 0.  0.
    8880022    1    1    2    0    0  0.74671872846E+03  0.53859341428E+02  0.22033273564E+04  0.23320662041E+04  0.15294330000E+03 0.  0.
<mgrwt>
<rscale>  0 0.93295264E+03</rscale>
<asrwt>0</asrwt>
<pdfrwt beam="1">  1        1 0.45050063E+00 0.99714587E+03</pdfrwt>
<pdfrwt beam="2">  1       -1 0.67796985E-01 0.99714587E+03</pdfrwt>
<totfact> 0.15252976E+00</totfact>
</mgrwt>
</event>
<event>
 4    1  0.2514307E-008  0.6590357E+03  0.7818608E-02  0.1025167E+00
         -1   -1    0    0    0  501 -0.00000000000E+00  0.00000000000E+00  0.18186499717E+03  0.18186499724E+03  0.50400000000E-02 0.  1.
          1   -1    0    0  501    0  0.00000000000E+00 -0.00000000000E+00 -0.15178922500E+04  0.15178922500E+04  0.50400000000E-02 0. -1.
    8880023    1    1    2    0    0 -0.11604299162E+02  0.19574586182E+02 -0.44451529974E+03  0.79493514336E+03  0.65864270000E+03 0.  1.
    8880022    1    1    2    0    0  0.11604299162E+02 -0.19574586182E+02 -0.89151195307E+03  0.90482210388E+03  0.15294330000E+03 0.  0.
<mgrwt>
<rscale>  0 0.45867277E+03</rscale>
<asrwt>0</asrwt>
<pdfrwt beam="1">  1        1 0.23352188E+00 0.65903568E+03</pdfrwt>
<pdfrwt beam="2">  1       -1 0.27979231E-01 0.65903568E+03</pdfrwt>
<totfact> 0.75831419E+01</totfact>
</mgrwt>
</event>
<event>
 4    1  0.2514307E-008  0.9358956E+03  0.7818608E-02  0.9470704E-01
         -1   -1    0    0    0  501 -0.00000000000E+00  0.00000000000E+00  0.19807194675E+04  0.19807194675E+04  0.50400000000E-02 0.  1.
          1   -1    0    0  501    0  0.00000000000E+00 -0.00000000000E+00 -0.48115517290E+03  0.48115517292E+03  0.50400000000E-02 0. -1.
    8880023    1    1    2    0    0  0.43052625541E+03 -0.50669271118E+03  0.15134775267E+04  0.17794703679E+04  0.65864270000E+03 0.  0.
    8880022    1    1    2    0    0 -0.43052625541E+03  0.50669271118E+03 -0.13913232073E+02  0.68240427255E+03  0.15294330000E+03 0.  0.
<mgrwt>
<rscale>  0 0.86478553E+03</rscale>
<asrwt>0</asrwt>
<pdfrwt beam="1">  1        1 0.74023874E-01 0.93589560E+03</pdfrwt>
<pdfrwt beam="2">  1       -1 0.30472607E+00 0.93589560E+03</pdfrwt>
<totfact> 0.14723871E+00</totfact>
</mgrwt>
</event>
<event>
 4    1  0.2514307E-008  0.7933175E+03  0.7818608E-02  0.9725436E-01
         -1   -1    0    0    0  501 -0.00000000000E+00  0.00000000000E+00  0.43677015129E+03  0.43677015132E+03  0.50400000000E-02 0.  1.
          1   -1    0    0  501    0  0.00000000000E+00 -0.00000000000E+00 -0.12208281222E+04  0.12208281222E+04  0.50400000000E-02 0. -1.
    8880023    1    1    2    0    0 -0.42311291804E+03  0.12852215115E+03 -0.60094213583E+02  0.79559035032E+03  0.65864270000E+03 0.  0.
    8880022    1    1    2    0    0  0.42311291804E+03 -0.12852215115E+03 -0.72396375730E+03  0.86200792320E+03  0.15294330000E+03 0.  0.
<mgrwt>
<rscale>  0 0.69522354E+03</rscale>
<asrwt>0</asrwt>
<pdfrwt beam="1">  1        1 0.18781971E+00 0.79331752E+03</pdfrwt>
<pdfrwt beam="2">  1       -1 0.67195409E-01 0.79331752E+03</pdfrwt>
<totfact> 0.23728512E+01</totfact>
</mgrwt>
</event>
<event>
 4    1  0.2514307E-008  0.7813943E+03  0.7818608E-02  0.9752572E-01
         -1   -1    0    0    0  501 -0.00000000000E+00  0.00000000000E+00  0.21290220350E+04  0.21290220350E+04  0.50400000000E-02 0.  1.
          1   -1    0    0  501    0  0.00000000000E+00 -0.00000000000E+00 -0.33098198793E+03  0.33098198797E+03  0.50400000000E-02 0. -1.
    8880023    1    1    2    0    0  0.37518084978E+03 -0.18975285782E+03  0.18513042351E+04  0.20094537552E+04  0.65864270000E+03 0.  1.
    8880022    1    1    2    0    0 -0.37518084978E+03  0.18975285782E+03 -0.53264187997E+02  0.45055026782E+03  0.15294330000E+03 0.  0.
<mgrwt>
<rscale>  0 0.67971119E+03</rscale>
<asrwt>0</asrwt>
<pdfrwt beam="1">  1        1 0.50920305E-01 0.78139428E+03</pdfrwt>
<pdfrwt beam="2">  1       -1 0.32754186E+00 0.78139428E+03</pdfrwt>
<totfact> 0.17685748E+00</totfact>
</mgrwt>
</event>
<event>
 4    1  0.2514307E-008  0.1957584E+04  0.7818608E-02  0.8640036E-01
         -1   -1    0    0    0  501 -0.00000000000E+00  0.00000000000E+00  0.12364162476E+04  0.12364162476E+04  0.50400000000E-02 0.  1.
          1   -1    0    0  501    0  0.00000000000E+00 -0.00000000000E+00 -0.30704789777E+04  0.30704789777E+04  0.50400000000E-02 0. -1.
    8880023    1    1    2    0    0  0.18180419946E+04 -0.30504071575E+03 -0.14004966176E+04  0.24069747640E+04  0.65864270000E+03 0.  0.
    8880022    1    1    2    0    0 -0.18180419946E+04  0.30504071575E+03 -0.43356611257E+03  0.18999204613E+04  0.15294330000E+03 0.  0.
<mgrwt>
<rscale>  0 0.19300604E+04</rscale>
<asrwt>0</asrwt>
<pdfrwt beam="1">  1        1 0.47238138E+00 0.19575844E+04</pdfrwt>
<pdfrwt beam="2">  1       -1 0.19021788E+00 0.19575844E+04</pdfrwt>
<totfact> 0.84085015E-02</totfact>
</mgrwt>
</event>
<event>
 4    1  0.2514307E-008  0.6967563E+03  0.7818608E-02  0.1001093E+00
          1   -1    0    0  501    0  0.00000000000E+00  0.00000000000E+00  0.22694486190E+04  0.22694486190E+04  0.50400000000E-02 0. -1.
         -1   -1    0    0    0  501 -0.00000000000E+00 -0.00000000000E+00 -0.60376268826E+03  0.60376268828E+03  0.50400000000E-02 0.  1.
    8880023    1    1    2    0    0  0.44340620834E+02 -0.22291925595E+03 -0.39058915900E+03  0.79876728947E+03  0.65864270000E+03 0.  0.
    8880022    1    1    2    0    0 -0.44340620834E+02  0.22291925595E+03  0.20562750897E+04  0.20744440178E+04  0.15294330000E+03 0.  0.
<mgrwt>
<rscale>  0 0.55173436E+03</rscale>
<asrwt>0</asrwt>
<pdfrwt beam="1">  1        1 0.34914594E+00 0.69675626E+03</pdfrwt>
<pdfrwt beam="2">  1       -1 0.92886569E-01 0.69675626E+03</pdfrwt>
<totfact> 0.23540601E+00</totfact>
</mgrwt>
</event>
<event>
 4    1  0.2514307E-008  0.6626617E+03  0.7818608E-02  0.1021581E+00
         -1   -1    0    0    0  501 -0.00000000000E+00  0.00000000000E+00  0.10007384133E+03  0.10007384145E+03  0.50400000000E-02 0.  1.
          1   -1    0    0  501    0  0.00000000000E+00 -0.00000000000E+00 -0.21106144763E+04  0.21106144763E+04  0.50400000000E-02 0. -1.
    8880023    1    1    2    0    0 -0.10758167470E+01  0.72864136635E+02 -0.10973207777E+04  0.12818866702E+04  0.65864270000E+03 0.  1.
    8880022    1    1    2    0    0  0.10758167470E+01 -0.72864136635E+02 -0.91321985723E+03  0.92880164752E+03  0.15294330000E+03 0.  0.
<mgrwt>
<rscale>  0 0.47120286E+03</rscale>
<asrwt>0</asrwt>
<pdfrwt beam="1">  1        1 0.32470988E+00 0.66266171E+03</pdfrwt>
<pdfrwt beam="2">  1       -1 0.15395977E-01 0.66266171E+03</pdfrwt>
<totfact> 0.82440673E+01</totfact>
</mgrwt>
</event>
<event>
 4    1  0.2514307E-008  0.8993366E+03  0.7818608E-02  0.9527097E-01
         -1   -1    0    0    0  501 -0.00000000000E+00  0.00000000000E+00  0.40423003034E+03  0.40423003037E+03  0.50400000000E-02 0.  1.
          1   -1    0    0  501    0  0.00000000000E+00 -0.00000000000E+00 -0.20283895203E+04  0.20283895203E+04  0.50400000000E-02 0. -1.
    8880023    1    1    2    0    0 -0.29560576386E+03 -0.53629598475E+03 -0.27065649755E+03  0.93918118423E+03  0.65864270000E+03 0.  1.
    8880022    1    1    2    0    0  0.29560576386E+03  0.53629598475E+03 -0.13535029924E+04  0.14934383664E+04  0.15294330000E+03 0.  0.
<mgrwt>
<rscale>  0 0.82315186E+03</rscale>
<asrwt>0</asrwt>
<pdfrwt beam="1">  1        1 0.31205992E+00 0.89933662E+03</pdfrwt>
<pdfrwt beam="2">  1       -1 0.62189237E-01 0.89933662E+03</pdfrwt>
<totfact> 0.76615063E+00</totfact>
</mgrwt>
</event>
<event>
 4    1  0.2514307E-008  0.1401821E+04  0.7818608E-02  0.8982269E-01
         -1   -1    0    0    0  501 -0.00000000000E+00  0.00000000000E+00  0.24872498319E+04  0.24872498320E+04  0.50400000000E-02 0.  1.
          1   -1    0    0  501    0  0.00000000000E+00 -0.00000000000E+00 -0.19760706619E+04  0.19760706619E+04  0.50400000000E-02 0. -1.
    8880023    1    1    2    0    0  0.33923410756E+03 -0.11900471574E+04  0.20495542865E+04  0.24830978628E+04  0.65864270000E+03 0.  1.
    8880022    1    1    2    0    0 -0.33923410756E+03  0.11900471574E+04 -0.15383751165E+04  0.19802226310E+04  0.15294330000E+03 0.  0.
<mgrwt>
<rscale>  0 0.13613653E+04</rscale>
<asrwt>0</asrwt>
<pdfrwt beam="1">  1        1 0.30401087E+00 0.14018210E+04</pdfrwt>
<pdfrwt beam="2">  1       -1 0.38265382E+00 0.14018210E+04</pdfrwt>
<totfact> 0.27840536E-02</totfact>
</mgrwt>
</event>
<event>
 4    1  0.2514307E-008  0.7869104E+03  0.7818608E-02  0.9739848E-01
         -1   -1    0    0    0  501 -0.00000000000E+00  0.00000000000E+00  0.13187553847E+04  0.13187553847E+04  0.50400000000E-02 0.  1.
          1   -1    0    0  501    0  0.00000000000E+00 -0.00000000000E+00 -0.84685455866E+03  0.84685455867E+03  0.50400000000E-02 0. -1.
    8880023    1    1    2    0    0  0.37582544704E+03  0.21017359059E+03  0.11223279265E+04  0.13707107228E+04  0.65864270000E+03 0.  1.
    8880022    1    1    2    0    0 -0.37582544704E+03 -0.21017359059E+03 -0.65042710045E+03  0.79489922055E+03  0.15294330000E+03 0.  0.
<mgrwt>
<rscale>  0 0.68693033E+03</rscale>
<asrwt>0</asrwt>
<pdfrwt beam="1">  1        1 0.13028532E+00 0.78691036E+03</pdfrwt>
<pdfrwt beam="2">  1       -1 0.20288544E+00 0.78691036E+03</pdfrwt>
<totfact> 0.29962001E+00</totfact>
</mgrwt>
</event>
<event>
 4    1  0.2514307E-008  0.9574508E+03  0.7818608E-02  0.9439474E-01
          1   -1    0    0  501    0  0.00000000000E+00  0.00000000000E+00  0.19692517800E+04  0.19692517800E+04  0.50400000000E-02 0. -1.
         -1   -1    0    0    0  501 -0.00000000000E+00 -0.00000000000E+00 -0.46437236805E+03  0.46437236808E+03  0.50400000000E-02 0.  1.
    8880023    1    1    2    0    0 -0.68339671213E+03  0.12597891002E+03  0.14261544694E+04  0.17177393658E+04  0.65864270000E+03 0.  0.
    8880022    1    1    2    0    0  0.68339671213E+03 -0.12597891002E+03  0.78724942547E+02  0.71588478229E+03  0.15294330000E+03 0.  0.
<mgrwt>
<rscale>  0 0.88897105E+03</rscale>
<asrwt>0</asrwt>
<pdfrwt beam="1">  1        1 0.30296181E+00 0.95745076E+03</pdfrwt>
<pdfrwt beam="2">  1       -1 0.71441904E-01 0.95745076E+03</pdfrwt>
<totfact> 0.62873839E+00</totfact>
</mgrwt>
</event>
<event>
 4    1  0.2514307E-008  0.7942501E+03  0.7818608E-02  0.9723369E-01
         -1   -1    0    0    0  501 -0.00000000000E+00  0.00000000000E+00  0.79699565131E+03  0.79699565133E+03  0.50400000000E-02 0.  1.
          1   -1    0    0  501    0  0.00000000000E+00 -0.00000000000E+00 -0.24670696884E+04  0.24670696884E+04  0.50400000000E-02 0. -1.
    8880023    1    1    2    0    0 -0.42158088694E+03 -0.13889750792E+03  0.56853061606E+03  0.97676006757E+03  0.65864270000E+03 0.  1.
    8880022    1    1    2    0    0  0.42158088694E+03  0.13889750792E+03 -0.22386046532E+04  0.22873052722E+04  0.15294330000E+03 0.  0.
<mgrwt>
<rscale>  0 0.69642282E+03</rscale>
<asrwt>0</asrwt>
<pdfrwt beam="1">  1        1 0.37954918E+00 0.79425007E+03</pdfrwt>
<pdfrwt beam="2">  1       -1 0.12261472E+00 0.79425007E+03</pdfrwt>
<totfact> 0.88637420E-01</totfact>
</mgrwt>
</event>
<event>
 4    1  0.2514307E-008  0.9914511E+03  0.7818608E-02  0.9392829E-01
         -1   -1    0    0    0  501 -0.00000000000E+00  0.00000000000E+00  0.72999269511E+03  0.72999269513E+03  0.50400000000E-02 0.  1.
          1   -1    0    0  501    0  0.00000000000E+00 -0.00000000000E+00 -0.21520430818E+04  0.21520430818E+04  0.50400000000E-02 0. -1.
    8880023    1    1    2    0    0  0.73797183507E+03  0.67547391750E+02  0.27080189456E+03  0.10277689195E+04  0.65864270000E+03 0.  0.
    8880022    1    1    2    0    0 -0.73797183507E+03 -0.67547391750E+02 -0.16928522813E+04  0.18542668575E+04  0.15294330000E+03 0.  0.
<mgrwt>
<rscale>  0 0.92668213E+03</rscale>
<asrwt>0</asrwt>
<pdfrwt beam="1">  1        1 0.33108355E+00 0.99145110E+03</pdfrwt>
<pdfrwt beam="2">  1       -1 0.11230657E+00 0.99145110E+03</pdfrwt>
<totfact> 0.17309643E+00</totfact>
</mgrwt>
</event>
<event>
 4    1  0.2514307E-008  0.7192823E+03  0.7818608E-02  0.9925022E-01
         -1   -1    0    0    0  501 -0.00000000000E+00  0.00000000000E+00  0.71288665882E+03  0.71288665884E+03  0.50400000000E-02 0.  1.
          1   -1    0    0  501    0  0.00000000000E+00 -0.00000000000E+00 -0.27271977003E+04  0.27271977004E+04  0.50400000000E-02 0. -1.
    8880023    1    1    2    0    0  0.18480095023E+03  0.22227318247E+03  0.51822317066E+03  0.88652254327E+03  0.65864270000E+03 0.  1.
    8880022    1    1    2    0    0 -0.18480095023E+03 -0.22227318247E+03 -0.25325342122E+04  0.25535618159E+04  0.15294330000E+03 0.  0.
<mgrwt>
<rscale>  0 0.59063789E+03</rscale>
<asrwt>0</asrwt>
<pdfrwt beam="1">  1        1 0.41956887E+00 0.71928226E+03</pdfrwt>
<pdfrwt beam="2">  1       -1 0.10967487E+00 0.71928226E+03</pdfrwt>
<totfact> 0.78033658E-01</totfact>
</mgrwt>
</event>
<event>
 4    1  0.2514307E-008  0.7483311E+03  0.7818608E-02  0.9836311E-01
          1   -1    0    0  501    0  0.00000000000E+00  0.00000000000E+00  0.22306579371E+04  0.22306579371E+04  0.50400000000E-02 0. -1.
         -1   -1    0    0    0  501 -0.00000000000E+00 -0.00000000000E+00 -0.39358701560E+03  0.39358701563E+03  0.50400000000E-02 0.  1.
    8880023    1    1    2    0    0  0.13118126039E+03 -0.33012229969E+03  0.14602707277E+01  0.74833254271E+03  0.65864270000E+03 0.  1.
    8880022    1    1    2    0    0 -0.13118126039E+03  0.33012229969E+03  0.18356106508E+04  0.18759124101E+04  0.15294330000E+03 0.  0.
<mgrwt>
<rscale>  0 0.63449744E+03</rscale>
<asrwt>0</asrwt>
<pdfrwt beam="1">  1        1 0.34317814E+00 0.74833112E+03</pdfrwt>
<pdfrwt beam="2">  1       -1 0.60551850E-01 0.74833112E+03</pdfrwt>
<totfact> 0.60467048E+00</totfact>
</mgrwt>
</event>
<event>
 4    1  0.2514307E-008  0.9090990E+03  0.7818608E-02  0.9511580E-01
          1   -1    0    0  501    0  0.00000000000E+00  0.00000000000E+00  0.26361031003E+04  0.26361031003E+04  0.50400000000E-02 0. -1.
         -1   -1    0    0    0  501 -0.00000000000E+00 -0.00000000000E+00 -0.35219044467E+03  0.35219044471E+03  0.50400000000E-02 0.  1.
    8880023    1    1    2    0    0 -0.29270648396E+02 -0.62593451699E+03  0.39302298419E+03  0.99041812523E+03  0.65864270000E+03 0.  0.
    8880022    1    1    2    0    0  0.29270648396E+02  0.62593451699E+03  0.18908896714E+04  0.19978754197E+04  0.15294330000E+03 0.  0.
<mgrwt>
<rscale>  0 0.83435446E+03</rscale>
<asrwt>0</asrwt>
<pdfrwt beam="1">  1        1 0.40555431E+00 0.90909900E+03</pdfrwt>
<pdfrwt beam="2">  1       -1 0.54183148E-01 0.90909900E+03</pdfrwt>
<totfact> 0.38733065E+00</totfact>
</mgrwt>
</event>
<event>
 4    1  0.2514307E-008  0.1173466E+04  0.7818608E-02  0.9183357E-01
          1   -1    0    0  501    0  0.00000000000E+00  0.00000000000E+00  0.22598299511E+04  0.22598299511E+04  0.50400000000E-02 0. -1.
         -1   -1    0    0    0  501 -0.00000000000E+00 -0.00000000000E+00 -0.73311233961E+03  0.73311233963E+03  0.50400000000E-02 0.  1.
    8880023    1    1    2    0    0  0.49913702342E+03 -0.83311126973E+03 -0.42501532591E+01  0.11734736580E+04  0.65864270000E+03 0.  0.
    8880022    1    1    2    0    0 -0.49913702342E+03  0.83311126973E+03  0.15309677648E+04  0.18194686328E+04  0.15294330000E+03 0.  0.
<mgrwt>
<rscale>  0 0.11226876E+04</rscale>
<asrwt>0</asrwt>
<pdfrwt beam="1">  1        1 0.34766615E+00 0.11734660E+04</pdfrwt>
<pdfrwt beam="2">  1       -1 0.11278651E+00 0.11734660E+04</pdfrwt>
<totfact> 0.14121446E+00</totfact>
</mgrwt>
</event>
<event>
 4    1  0.2514307E-008  0.1064850E+04  0.7818608E-02  0.9301239E-01
         -1   -1    0    0    0  501 -0.00000000000E+00  0.00000000000E+00  0.18263377969E+04  0.18263377969E+04  0.50400000000E-02 0.  1.
          1   -1    0    0  501    0  0.00000000000E+00 -0.00000000000E+00 -0.10335912625E+04  0.10335912625E+04  0.50400000000E-02 0. -1.
    8880023    1    1    2    0    0  0.79097010490E+03 -0.27287648828E+03  0.14400962650E+04  0.17910284039E+04  0.65864270000E+03 0.  1.
    8880022    1    1    2    0    0 -0.79097010490E+03  0.27287648828E+03 -0.64734973055E+03  0.10689006555E+04  0.15294330000E+03 0.  0.
<mgrwt>
<rscale>  0 0.10066886E+04</rscale>
<asrwt>0</asrwt>
<pdfrwt beam="1">  1        1 0.15901404E+00 0.10648500E+04</pdfrwt>
<pdfrwt beam="2">  1       -1 0.28097505E+00 0.10648500E+04</pdfrwt>
<totfact> 0.62620675E-01</totfact>
</mgrwt>
</event>
<event>
 4    1  0.2514307E-008  0.8726321E+03  0.7818608E-02  0.9571477E-01
         -1   -1    0    0    0  501 -0.00000000000E+00  0.00000000000E+00  0.16417913425E+04  0.16417913425E+04  0.50400000000E-02 0.  1.
          1   -1    0    0  501    0  0.00000000000E+00 -0.00000000000E+00 -0.32691508550E+03  0.32691508554E+03  0.50400000000E-02 0. -1.
    8880023    1    1    2    0    0 -0.53475604831E+03  0.20423638802E+03  0.77240646486E+03  0.11653748267E+04  0.65864270000E+03 0.  1.
    8880022    1    1    2    0    0  0.53475604831E+03 -0.20423638802E+03  0.54246979214E+03  0.80333160140E+03  0.15294330000E+03 0. -1.
<mgrwt>
<rscale>  0 0.79213155E+03</rscale>
<asrwt>0</asrwt>
<pdfrwt beam="1">  1        1 0.50294629E-01 0.87263208E+03</pdfrwt>
<pdfrwt beam="2">  1       -1 0.25258328E+00 0.87263208E+03</pdfrwt>
<totfact> 0.53754749E+00</totfact>
</mgrwt>
</event>
<event>
 4    1  0.2514307E-008  0.9609733E+03  0.7818608E-02  0.9434499E-01
          1   -1    0    0  501    0  0.00000000000E+00  0.00000000000E+00  0.79386345139E+03  0.79386345141E+03  0.50400000000E-02 0. -1.
         -1   -1    0    0    0  501 -0.00000000000E+00 -0.00000000000E+00 -0.25088352131E+04  0.25088352131E+04  0.50400000000E-02 0.  1.
    8880023    1    1    2    0    0  0.53641340098E+02  0.69769767228E+03 -0.22248257813E+04  0.24234932224E+04  0.65864270000E+03 0.  1.
    8880022    1    1    2    0    0 -0.53641340098E+02 -0.69769767228E+03  0.50985401959E+03  0.87920544219E+03  0.15294330000E+03 0.  0.
<mgrwt>
<rscale>  0 0.89290152E+03</rscale>
<asrwt>0</asrwt>
<pdfrwt beam="1">  1        1 0.12213284E+00 0.96097328E+03</pdfrwt>
<pdfrwt beam="2">  1       -1 0.38597465E+00 0.96097328E+03</pdfrwt>
<totfact> 0.20579125E-01</totfact>
</mgrwt>
</event>
<event>
 4    1  0.2514307E-008  0.7087085E+03  0.7818608E-02  0.9962828E-01
         -1   -1    0    0    0  501 -0.00000000000E+00  0.00000000000E+00  0.26926027639E+04  0.26926027639E+04  0.50400000000E-02 0.  1.
          1   -1    0    0  501    0  0.00000000000E+00 -0.00000000000E+00 -0.12285019802E+03  0.12285019812E+03  0.50400000000E-02 0. -1.
    8880023    1    1    2    0    0  0.12873809088E+03  0.22778079959E+03  0.10567441870E+04  0.12723899055E+04  0.65864270000E+03 0. -1.
    8880022    1    1    2    0    0 -0.12873809088E+03 -0.22778079959E+03  0.15130083788E+04  0.15430630564E+04  0.15294330000E+03 0.  0.
<mgrwt>
<rscale>  0 0.57310632E+03</rscale>
<asrwt>0</asrwt>
<pdfrwt beam="1">  1        1 0.18900031E-01 0.70870854E+03</pdfrwt>
<pdfrwt beam="2">  1       -1 0.41424656E+00 0.70870854E+03</pdfrwt>
<totfact> 0.17304062E+00</totfact>
</mgrwt>
</event>
<event>
 4    1  0.2514307E-008  0.7387801E+03  0.7818608E-02  0.9863515E-01
         -1   -1    0    0    0  501 -0.00000000000E+00  0.00000000000E+00  0.26528764135E+03  0.26528764140E+03  0.50400000000E-02 0.  1.
          1   -1    0    0  501    0  0.00000000000E+00 -0.00000000000E+00 -0.19771592315E+04  0.19771592315E+04  0.50400000000E-02 0. -1.
    8880023    1    1    2    0    0  0.33070935041E+03 -0.51158612132E+02 -0.32412871932E+03  0.80675616576E+03  0.65864270000E+03 0.  1.
    8880022    1    1    2    0    0 -0.33070935041E+03  0.51158612132E+02 -0.13877428709E+04  0.14356907072E+04  0.15294330000E+03 0.  0.
<mgrwt>
<rscale>  0 0.62062566E+03</rscale>
<asrwt>0</asrwt>
<pdfrwt beam="1">  1        1 0.30417833E+00 0.73878013E+03</pdfrwt>
<pdfrwt beam="2">  1       -1 0.40813485E-01 0.73878013E+03</pdfrwt>
<totfact> 0.18901150E+01</totfact>
</mgrwt>
</event>
<event>
 4    1  0.2514307E-008  0.6942909E+03  0.7818608E-02  0.1002176E+00
         -1   -1    0    0    0  501 -0.00000000000E+00  0.00000000000E+00  0.34243947048E+03  0.34243947052E+03  0.50400000000E-02 0.  1.
          1   -1    0    0  501    0  0.00000000000E+00 -0.00000000000E+00 -0.98726919864E+03  0.98726919865E+03  0.50400000000E-02 0. -1.
    8880023    1    1    2    0    0 -0.75915272013E+02 -0.20607420911E+03 -0.72707527728E+02  0.69808760126E+03  0.65864270000E+03 0.  1.
    8880022    1    1    2    0    0  0.75915272013E+02  0.20607420911E+03 -0.57212220043E+03  0.63162106791E+03  0.15294330000E+03 0.  0.
<mgrwt>
<rscale>  0 0.54706187E+03</rscale>
<asrwt>0</asrwt>
<pdfrwt beam="1">  1        1 0.15188757E+00 0.69429094E+03</pdfrwt>
<pdfrwt beam="2">  1       -1 0.52682996E-01 0.69429094E+03</pdfrwt>
<totfact> 0.57836484E+01</totfact>
</mgrwt>
</event>
<event>
 4    1  0.2514307E-008  0.1430123E+04  0.7818608E-02  0.8960623E-01
          1   -1    0    0  501    0  0.00000000000E+00  0.00000000000E+00  0.12162261952E+04  0.12162261952E+04  0.50400000000E-02 0. -1.
         -1   -1    0    0    0  501 -0.00000000000E+00 -0.00000000000E+00 -0.18961242296E+04  0.18961242296E+04  0.50400000000E-02 0.  1.
    8880023    1    1    2    0    0  0.11052902067E+04 -0.62432046833E+03 -0.10580837789E+04  0.17789867840E+04  0.65864270000E+03 0.  0.
    8880022    1    1    2    0    0 -0.11052902067E+04  0.62432046833E+03  0.37818574450E+03  0.13333636408E+04  0.15294330000E+03 0.  0.
<mgrwt>
<rscale>  0 0.13906388E+04</rscale>
<asrwt>0</asrwt>
<pdfrwt beam="1">  1        1 0.18711172E+00 0.14301233E+04</pdfrwt>
<pdfrwt beam="2">  1       -1 0.29171142E+00 0.14301233E+04</pdfrwt>
<totfact> 0.37145244E-01</totfact>
</mgrwt>
</event>
<event>
 4    1  0.2514307E-008  0.6812564E+03  0.7818608E-02  0.1008622E+00
          1   -1    0    0  501    0  0.00000000000E+00  0.00000000000E+00  0.64480428882E+03  0.64480428884E+03  0.50400000000E-02 0. -1.
         -1   -1    0    0    0  501 -0.00000000000E+00 -0.00000000000E+00 -0.32692125107E+03  0.32692125111E+03  0.50400000000E-02 0.  1.
    8880023    1    1    2    0    0  0.17330536110E+03 -0.16289028690E+02  0.19090100558E+03  0.70749804299E+03  0.65864270000E+03 0.  1.
    8880022    1    1    2    0    0 -0.17330536110E+03  0.16289028690E+02  0.12698203216E+03  0.26422749696E+03  0.15294330000E+03 0.  1.
<mgrwt>
<rscale>  0 0.52026113E+03</rscale>
<asrwt>0</asrwt>
<pdfrwt beam="1">  1        1 0.99200660E-01 0.68125640E+03</pdfrwt>
<pdfrwt beam="2">  1       -1 0.50295577E-01 0.68125640E+03</pdfrwt>
<totfact> 0.12496520E+02</totfact>
</mgrwt>
</event>
<event>
 4    1  0.2514307E-008  0.1082129E+04  0.7818608E-02  0.9281219E-01
         -1   -1    0    0    0  501 -0.00000000000E+00  0.00000000000E+00  0.14818899712E+04  0.14818899712E+04  0.50400000000E-02 0.  1.
          1   -1    0    0  501    0  0.00000000000E+00 -0.00000000000E+00 -0.10470891284E+04  0.10470891284E+04  0.50400000000E-02 0. -1.
    8880023    1    1    2    0    0 -0.42838105768E+03  0.74409781349E+03  0.10132586243E+04  0.14824625232E+04  0.65864270000E+03 0.  0.
    8880022    1    1    2    0    0  0.42838105768E+03 -0.74409781349E+03 -0.57845778155E+03  0.10465165764E+04  0.15294330000E+03 0.  0.
<mgrwt>
<rscale>  0 0.10253036E+04</rscale>
<asrwt>0</asrwt>
<pdfrwt beam="1">  1        1 0.16109063E+00 0.10821285E+04</pdfrwt>
<pdfrwt beam="2">  1       -1 0.22798307E+00 0.10821285E+04</pdfrwt>
<totfact> 0.13478680E+00</totfact>
</mgrwt>
</event>
<event>
 4    1  0.2514307E-008  0.9216290E+03  0.7818608E-02  0.9492166E-01
          1   -1    0    0  501    0  0.00000000000E+00  0.00000000000E+00  0.14481674602E+04  0.14481674602E+04  0.50400000000E-02 0. -1.
         -1   -1    0    0    0  501 -0.00000000000E+00 -0.00000000000E+00 -0.48050246849E+03  0.48050246851E+03  0.50400000000E-02 0.  1.
    8880023    1    1    2    0    0 -0.59979531808E+03  0.23629509541E+03  0.25641965678E+03  0.95663527133E+03  0.65864270000E+03 0.  1.
    8880022    1    1    2    0    0  0.59979531808E+03 -0.23629509541E+03  0.71124533497E+03  0.97203465743E+03  0.15294330000E+03 0.  0.
<mgrwt>
<rscale>  0 0.84863877E+03</rscale>
<asrwt>0</asrwt>
<pdfrwt beam="1">  1        1 0.22279499E+00 0.92162899E+03</pdfrwt>
<pdfrwt beam="2">  1       -1 0.73923457E-01 0.92162899E+03</pdfrwt>
<totfact> 0.13282792E+01</totfact>
</mgrwt>
</event>
<event>
 4    1  0.2514307E-008  0.7514160E+03  0.7818608E-02  0.9827860E-01
          1   -1    0    0  501    0  0.00000000000E+00  0.00000000000E+00  0.17763155767E+04  0.17763155767E+04  0.50400000000E-02 0. -1.
         -1   -1    0    0    0  501 -0.00000000000E+00 -0.00000000000E+00 -0.91630317678E+03  0.91630317679E+03  0.50400000000E-02 0.  1.
    8880023    1    1    2    0    0 -0.25055060277E+03  0.26084520095E+03 -0.73431621714E+03  0.10506409170E+04  0.65864270000E+03 0.  0.
    8880022    1    1    2    0    0  0.25055060277E+03 -0.26084520095E+03  0.15943286170E+04  0.16419778365E+04  0.15294330000E+03 0.  0.
<mgrwt>
<rscale>  0 0.63888621E+03</rscale>
<asrwt>0</asrwt>
<pdfrwt beam="1">  1        1 0.27327932E+00 0.75141602E+03</pdfrwt>
<pdfrwt beam="2">  1       -1 0.14096972E+00 0.75141602E+03</pdfrwt>
<totfact> 0.18294477E+00</totfact>
</mgrwt>
</event>
<event>
 4    1  0.2514307E-008  0.1121498E+04  0.7818608E-02  0.9237490E-01
          1   -1    0    0  501    0  0.00000000000E+00  0.00000000000E+00  0.15863059669E+04  0.15863059669E+04  0.50400000000E-02 0. -1.
         -1   -1    0    0    0  501 -0.00000000000E+00 -0.00000000000E+00 -0.11134913466E+04  0.11134913466E+04  0.50400000000E-02 0.  1.
    8880023    1    1    2    0    0  0.90168869059E+03  0.10442291796E+03 -0.61155842983E+03  0.12774038359E+04  0.65864270000E+03 0.  1.
    8880022    1    1    2    0    0 -0.90168869059E+03 -0.10442291796E+03  0.10843730501E+04  0.14223934777E+04  0.15294330000E+03 0.  0.
<mgrwt>
<rscale>  0 0.10674705E+04</rscale>
<asrwt>0</asrwt>
<pdfrwt beam="1">  1        1 0.24404707E+00 0.11214976E+04</pdfrwt>
<pdfrwt beam="2">  1       -1 0.17130636E+00 0.11214976E+04</pdfrwt>
<totfact> 0.13588799E+00</totfact>
</mgrwt>
</event>
<event>
 4    1  0.2514307E-008  0.7323448E+03  0.7818608E-02  0.9882835E-01
         -1   -1    0    0    0  501 -0.00000000000E+00  0.00000000000E+00  0.32164169825E+03  0.32164169829E+03  0.50400000000E-02 0.  1.
          1   -1    0    0  501    0  0.00000000000E+00 -0.00000000000E+00 -0.15110996944E+04  0.15110996944E+04  0.50400000000E-02 0. -1.
    8880023    1    1    2    0    0  0.15422100619E+03 -0.28059678282E+03 -0.16794672676E+03  0.75135543025E+03  0.65864270000E+03 0.  0.
    8880022    1    1    2    0    0 -0.15422100619E+03  0.28059678282E+03 -0.10215112694E+04  0.10813859624E+04  0.15294330000E+03 0. -1.
<mgrwt>
<rscale>  0 0.61100443E+03</rscale>
<asrwt>0</asrwt>
<pdfrwt beam="1">  1        1 0.23247687E+00 0.73234478E+03</pdfrwt>
<pdfrwt beam="2">  1       -1 0.49483339E-01 0.73234478E+03</pdfrwt>
<totfact> 0.27232285E+01</totfact>
</mgrwt>
</event>
<event>
 4    1  0.2514307E-008  0.1085682E+04  0.7818608E-02  0.9277167E-01
         -1   -1    0    0    0  501 -0.00000000000E+00  0.00000000000E+00  0.22680099167E+04  0.22680099167E+04  0.50400000000E-02 0.  1.
          1   -1    0    0  501    0  0.00000000000E+00 -0.00000000000E+00 -0.66434009016E+03  0.66434009018E+03  0.50400000000E-02 0. -1.
    8880023    1    1    2    0    0 -0.60202808640E+03  0.61843107072E+03  0.17343559294E+04  0.20461416135E+04  0.65864270000E+03 0.  0.
    8880022    1    1    2    0    0  0.60202808640E+03 -0.61843107072E+03 -0.13068610293E+03  0.88620839342E+03  0.15294330000E+03 0.  0.
<mgrwt>
<rscale>  0 0.10291231E+04</rscale>
<asrwt>0</asrwt>
<pdfrwt beam="1">  1        1 0.10220617E+00 0.10856818E+04</pdfrwt>
<pdfrwt beam="2">  1       -1 0.34892461E+00 0.10856818E+04</pdfrwt>
<totfact> 0.46916860E-01</totfact>
</mgrwt>
</event>
<event>
 4    1  0.2514307E-008  0.1960807E+04  0.7818608E-02  0.8638440E-01
          1   -1    0    0  501    0  0.00000000000E+00  0.00000000000E+00  0.36072740904E+04  0.36072740904E+04  0.50400000000E-02 0. -1.
         -1   -1    0    0    0  501 -0.00000000000E+00 -0.00000000000E+00 -0.11080853382E+04  0.11080853382E+04  0.50400000000E-02 0.  1.
    8880023    1    1    2    0    0 -0.17555025035E+04  0.57372834286E+03  0.57387333103E+03  0.20430599740E+04  0.65864270000E+03 0. -1.
    8880022    1    1    2    0    0  0.17555025035E+04 -0.57372834286E+03  0.19253154211E+04  0.26722994546E+04  0.15294330000E+03 0.  0.
<mgrwt>
<rscale>  0 0.19333327E+04</rscale>
<asrwt>0</asrwt>
<pdfrwt beam="1">  1        1 0.55496524E+00 0.19608068E+04</pdfrwt>
<pdfrwt beam="2">  1       -1 0.17047467E+00 0.19608068E+04</pdfrwt>
<totfact> 0.45226746E-02</totfact>
</mgrwt>
</event>
<event>
 4    1  0.2514307E-008  0.7162259E+03  0.7818608E-02  0.9935569E-01
         -1   -1    0    0    0  501 -0.00000000000E+00  0.00000000000E+00  0.22645424203E+03  0.22645424208E+03  0.50400000000E-02 0.  1.
          1   -1    0    0  501    0  0.00000000000E+00 -0.00000000000E+00 -0.26560663867E+04  0.26560663867E+04  0.50400000000E-02 0. -1.
    8880023    1    1    2    0    0 -0.27332091006E+03 -0.66820988236E+02 -0.38532121235E+03  0.81329699821E+03  0.65864270000E+03 0.  1.
    8880022    1    1    2    0    0  0.27332091006E+03  0.66820988236E+02 -0.20442909323E+04  0.20692236306E+04  0.15294330000E+03 0.  0.
<mgrwt>
<rscale>  0 0.58567990E+03</rscale>
<asrwt>0</asrwt>
<pdfrwt beam="1">  1        1 0.40862557E+00 0.71622592E+03</pdfrwt>
<pdfrwt beam="2">  1       -1 0.34839116E-01 0.71622592E+03</pdfrwt>
<totfact> 0.87671906E+00</totfact>
</mgrwt>
</event>
<event>
 4    1  0.2514307E-008  0.6788899E+03  0.7818608E-02  0.1009959E+00
          1   -1    0    0  501    0  0.00000000000E+00  0.00000000000E+00  0.85342798875E+03  0.85342798877E+03  0.50400000000E-02 0. -1.
         -1   -1    0    0    0  501 -0.00000000000E+00 -0.00000000000E+00 -0.68738833894E+03  0.68738833896E+03  0.50400000000E-02 0.  1.
    8880023    1    1    2    0    0  0.46522164977E+02  0.15785105580E+03 -0.49659718262E+03  0.84113033217E+03  0.65864270000E+03 0.  1.
    8880022    1    1    2    0    0 -0.46522164977E+02 -0.15785105580E+03  0.66263683244E+03  0.69968599555E+03  0.15294330000E+03 0.  0.
<mgrwt>
<rscale>  0 0.51491057E+03</rscale>
<asrwt>0</asrwt>
<pdfrwt beam="1">  1        1 0.13129661E+00 0.67888988E+03</pdfrwt>
<pdfrwt beam="2">  1       -1 0.10575205E+00 0.67888988E+03</pdfrwt>
<totfact> 0.17291376E+01</totfact>
</mgrwt>
</event>
<event>
 4    1  0.2514307E-008  0.1384313E+04  0.7818608E-02  0.8995969E-01
          1   -1    0    0  501    0  0.00000000000E+00  0.00000000000E+00  0.12811628520E+04  0.12811628520E+04  0.50400000000E-02 0. -1.
         -1   -1    0    0    0  501 -0.00000000000E+00 -0.00000000000E+00 -0.17484715002E+04  0.17484715002E+04  0.50400000000E-02 0.  1.
    8880023    1    1    2    0    0 -0.77120165834E+03 -0.94221083473E+03  0.49501368563E+03  0.14701571379E+04  0.65864270000E+03 0.  0.
    8880022    1    1    2    0    0  0.77120165834E+03  0.94221083473E+03 -0.96232233382E+03  0.15594772144E+04  0.15294330000E+03 0.  0.
<mgrwt>
<rscale>  0 0.13432304E+04</rscale>
<asrwt>0</asrwt>
<pdfrwt beam="1">  1        1 0.19710198E+00 0.13843134E+04</pdfrwt>
<pdfrwt beam="2">  1       -1 0.26899562E+00 0.13843134E+04</pdfrwt>
<totfact> 0.46978850E-01</totfact>
</mgrwt>
</event>
<event>
 4    1  0.2514307E-008  0.1041280E+04  0.7818608E-02  0.9329438E-01
         -1   -1    0    0    0  501 -0.00000000000E+00  0.00000000000E+00  0.16338801940E+04  0.16338801940E+04  0.50400000000E-02 0.  1.
          1   -1    0    0  501    0  0.00000000000E+00 -0.00000000000E+00 -0.10050513646E+04  0.10050513646E+04  0.50400000000E-02 0. -1.
    8880023    1    1    2    0    0  0.18313760825E+03 -0.78543943737E+03  0.12372831187E+04  0.16171376613E+04  0.65864270000E+03 0.  1.
    8880022    1    1    2    0    0 -0.18313760825E+03  0.78543943737E+03 -0.60845428936E+03  0.10217938973E+04  0.15294330000E+03 0.  0.
<mgrwt>
<rscale>  0 0.98117356E+03</rscale>
<asrwt>0</asrwt>
<pdfrwt beam="1">  1        1 0.15462329E+00 0.10412803E+04</pdfrwt>
<pdfrwt beam="2">  1       -1 0.25136618E+00 0.10412803E+04</pdfrwt>
<totfact> 0.10266217E+00</totfact>
</mgrwt>
</event>
<event>
 4    1  0.2514307E-008  0.1029741E+04  0.7818608E-02  0.9343641E-01
          1   -1    0    0  501    0  0.00000000000E+00  0.00000000000E+00  0.22330930129E+04  0.22330930129E+04  0.50400000000E-02 0. -1.
         -1   -1    0    0    0  501 -0.00000000000E+00 -0.00000000000E+00 -0.89636239327E+03  0.89636239328E+03  0.50400000000E-02 0.  1.
    8880023    1    1    2    0    0  0.64320541326E+03  0.46135027378E+03 -0.48430388460E+03  0.11379445231E+04  0.65864270000E+03 0.  1.
    8880022    1    1    2    0    0 -0.64320541326E+03 -0.46135027378E+03  0.18210345042E+04  0.19915108831E+04  0.15294330000E+03 0.  0.
<mgrwt>
<rscale>  0 0.96862585E+03</rscale>
<asrwt>0</asrwt>
<pdfrwt beam="1">  1        1 0.34355277E+00 0.10297415E+04</pdfrwt>
<pdfrwt beam="2">  1       -1 0.13790191E+00 0.10297415E+04</pdfrwt>
<totfact> 0.91018976E-01</totfact>
</mgrwt>
</event>
<event>
 4    1  0.2514307E-008  0.1008408E+04  0.7818608E-02  0.9370639E-01
          1   -1    0    0  501    0  0.00000000000E+00  0.00000000000E+00  0.32020586454E+04  0.32020586454E+04  0.50400000000E-02 0. -1.
         -1   -1    0    0    0  501 -0.00000000000E+00 -0.00000000000E+00 -0.11144527652E+04  0.11144527652E+04  0.50400000000E-02 0.  1.
    8880023    1    1    2    0    0  0.71676486749E+03  0.26329516736E+03 -0.82419071445E+03  0.13023735104E+04  0.65864270000E+03 0.  1.
    8880022    1    1    2    0    0 -0.71676486749E+03 -0.26329516736E+03  0.29117965947E+04  0.30141379003E+04  0.15294330000E+03 0.  0.
<mgrwt>
<rscale>  0 0.94531847E+03</rscale>
<asrwt>0</asrwt>
<pdfrwt beam="1">  1        1 0.49262441E+00 0.10084079E+04</pdfrwt>
<pdfrwt beam="2">  1       -1 0.17145427E+00 0.10084079E+04</pdfrwt>
<totfact> 0.10484230E-01</totfact>
</mgrwt>
</event>
<event>
 4    1  0.2514307E-008  0.7925566E+03  0.7818608E-02  0.9727127E-01
          1   -1    0    0  501    0  0.00000000000E+00  0.00000000000E+00  0.12364813944E+04  0.12364813944E+04  0.50400000000E-02 0. -1.
         -1   -1    0    0    0  501 -0.00000000000E+00 -0.00000000000E+00 -0.56635136613E+03  0.56635136615E+03  0.50400000000E-02 0.  1.
    8880023    1    1    2    0    0  0.40354207767E+03  0.17745310513E+03 -0.19829652195E+03  0.81698686027E+03  0.65864270000E+03 0.  0.
    8880022    1    1    2    0    0 -0.40354207767E+03 -0.17745310513E+03  0.86842655020E+03  0.98584590027E+03  0.15294330000E+03 0.  0.
<mgrwt>
<rscale>  0 0.69424360E+03</rscale>
<asrwt>0</asrwt>
<pdfrwt beam="1">  1        1 0.19022790E+00 0.79255663E+03</pdfrwt>
<pdfrwt beam="2">  1       -1 0.87130981E-01 0.79255663E+03</pdfrwt>
<totfact> 0.13399836E+01</totfact>
</mgrwt>
</event>
<event>
 4    1  0.2514307E-008  0.1063364E+04  0.7818608E-02  0.9302986E-01
         -1   -1    0    0    0  501 -0.00000000000E+00  0.00000000000E+00  0.24422691064E+04  0.24422691064E+04  0.50400000000E-02 0.  1.
          1   -1    0    0  501    0  0.00000000000E+00 -0.00000000000E+00 -0.62494669834E+03  0.62494669836E+03  0.50400000000E-02 0. -1.
    8880023    1    1    2    0    0  0.65579093974E+03  0.51659553593E+03  0.19374075979E+04  0.22100432374E+04  0.65864270000E+03 0.  0.
    8880022    1    1    2    0    0 -0.65579093974E+03 -0.51659553593E+03 -0.12008518987E+03  0.85717256736E+03  0.15294330000E+03 0.  0.
<mgrwt>
<rscale>  0 0.10050842E+04</rscale>
<asrwt>0</asrwt>
<pdfrwt beam="1">  1        1 0.96145646E-01 0.10633640E+04</pdfrwt>
<pdfrwt beam="2">  1       -1 0.37573371E+00 0.10633640E+04</pdfrwt>
<totfact> 0.34201874E-01</totfact>
</mgrwt>
</event>
<event>
 4    1  0.2514307E-008  0.6791512E+03  0.7818608E-02  0.1009808E+00
         -1   -1    0    0    0  501 -0.00000000000E+00  0.00000000000E+00  0.16245018077E+03  0.16245018085E+03  0.50400000000E-02 0.  1.
          1   -1    0    0  501    0  0.00000000000E+00 -0.00000000000E+00 -0.24366787657E+04  0.24366787657E+04  0.50400000000E-02 0. -1.
    8880023    1    1    2    0    0  0.16540314715E+03  0.88248609799E+01 -0.58928097565E+03  0.89916536510E+03  0.65864270000E+03 0.  1.
    8880022    1    1    2    0    0 -0.16540314715E+03 -0.88248609799E+01 -0.16849476092E+04  0.16999635814E+04  0.15294330000E+03 0.  0.
<mgrwt>
<rscale>  0 0.51551039E+03</rscale>
<asrwt>0</asrwt>
<pdfrwt beam="1">  1        1 0.37487363E+00 0.67915115E+03</pdfrwt>
<pdfrwt beam="2">  1       -1 0.24992337E-01 0.67915115E+03</pdfrwt>
<totfact> 0.22205110E+01</totfact>
</mgrwt>
</event>
<event>
 4    1  0.2514307E-008  0.9127113E+03  0.7818608E-02  0.9505926E-01
         -1   -1    0    0    0  501 -0.00000000000E+00  0.00000000000E+00  0.16431539646E+04  0.16431539646E+04  0.50400000000E-02 0.  1.
          1   -1    0    0  501    0  0.00000000000E+00 -0.00000000000E+00 -0.97434712009E+03  0.97434712011E+03  0.50400000000E-02 0. -1.
    8880023    1    1    2    0    0 -0.37700059121E+03  0.50705246442E+03  0.13796402340E+04  0.16542215780E+04  0.65864270000E+03 0.  0.
    8880022    1    1    2    0    0  0.37700059121E+03 -0.50705246442E+03 -0.71083338952E+03  0.96327950674E+03  0.15294330000E+03 0.  0.
<mgrwt>
<rscale>  0 0.83848295E+03</rscale>
<asrwt>0</asrwt>
<pdfrwt beam="1">  1        1 0.14989956E+00 0.91271127E+03</pdfrwt>
<pdfrwt beam="2">  1       -1 0.25279292E+00 0.91271127E+03</pdfrwt>
<totfact> 0.10828241E+00</totfact>
</mgrwt>
</event>
<event>
 4    1  0.2514307E-008  0.1095781E+04  0.7818608E-02  0.9265768E-01
          1   -1    0    0  501    0  0.00000000000E+00  0.00000000000E+00  0.34335831994E+04  0.34335831994E+04  0.50400000000E-02 0. -1.
         -1   -1    0    0    0  501 -0.00000000000E+00 -0.00000000000E+00 -0.30366698198E+03  0.30366698203E+03  0.50400000000E-02 0.  1.
    8880023    1    1    2    0    0  0.25213731183E+03 -0.83866137078E+03  0.12811520012E+04  0.16858489776E+04  0.65864270000E+03 0.  0.
    8880022    1    1    2    0    0 -0.25213731183E+03  0.83866137078E+03  0.18487642163E+04  0.20514012039E+04  0.15294330000E+03 0.  1.
<mgrwt>
<rscale>  0 0.10399635E+04</rscale>
<asrwt>0</asrwt>
<pdfrwt beam="1">  1        1 0.52824357E+00 0.10957811E+04</pdfrwt>
<pdfrwt beam="2">  1       -1 0.46717997E-01 0.10957811E+04</pdfrwt>
<totfact> 0.13150083E+00</totfact>
</mgrwt>
</event>
<event>
 4    1  0.2514307E-008  0.7610584E+03  0.7818608E-02  0.9802375E-01
         -1   -1    0    0    0  501 -0.00000000000E+00  0.00000000000E+00  0.45701117000E+03  0.45701117002E+03  0.50400000000E-02 0.  1.
          1   -1    0    0  501    0  0.00000000000E+00 -0.00000000000E+00 -0.27741237912E+04  0.27741237912E+04  0.50400000000E-02 0. -1.
    8880023    1    1    2    0    0  0.19875236842E+03  0.32541840296E+03  0.11046854498E+03  0.76903390474E+03  0.65864270000E+03 0.  1.
    8880022    1    1    2    0    0 -0.19875236842E+03 -0.32541840296E+03 -0.24275811662E+04  0.24621010565E+04  0.15294330000E+03 0.  0.
<mgrwt>
<rscale>  0 0.65235235E+03</rscale>
<asrwt>0</asrwt>
<pdfrwt beam="1">  1        1 0.42678826E+00 0.76105837E+03</pdfrwt>
<pdfrwt beam="2">  1       -1 0.70309413E-01 0.76105837E+03</pdfrwt>
<totfact> 0.18981433E+00</totfact>
</mgrwt>
</event>
<event>
 4    1  0.2514307E-008  0.8312017E+03  0.7818608E-02  0.9646999E-01
          1   -1    0    0  501    0  0.00000000000E+00  0.00000000000E+00  0.10255764803E+04  0.10255764804E+04  0.50400000000E-02 0. -1.
         -1   -1    0    0    0  501 -0.00000000000E+00 -0.00000000000E+00 -0.85113567248E+03  0.85113567250E+03  0.50400000000E-02 0.  1.
    8880023    1    1    2    0    0  0.17263914185E+03  0.47674071783E+03 -0.53715961600E+03  0.98966491534E+03  0.65864270000E+03 0.  1.
    8880022    1    1    2    0    0 -0.17263914185E+03 -0.47674071783E+03  0.71160042385E+03  0.88704723751E+03  0.15294330000E+03 0.  0.
<mgrwt>
<rscale>  0 0.74262075E+03</rscale>
<asrwt>0</asrwt>
<pdfrwt beam="1">  1        1 0.15778100E+00 0.83120166E+03</pdfrwt>
<pdfrwt beam="2">  1       -1 0.13094395E+00 0.83120166E+03</pdfrwt>
<totfact> 0.73608947E+00</totfact>
</mgrwt>
</event>
<event>
 4    1  0.2514307E-008  0.1222304E+04  0.7818608E-02  0.9135741E-01
          1   -1    0    0  501    0  0.00000000000E+00  0.00000000000E+00  0.30394876959E+04  0.30394876959E+04  0.50400000000E-02 0. -1.
         -1   -1    0    0    0  501 -0.00000000000E+00 -0.00000000000E+00 -0.66729732928E+03  0.66729732930E+03  0.50400000000E-02 0.  1.
    8880023    1    1    2    0    0 -0.85319930972E+03 -0.57642655014E+03  0.12311372858E+03  0.12284884315E+04  0.65864270000E+03 0.  0.
    8880022    1    1    2    0    0  0.85319930972E+03  0.57642655014E+03  0.22490766381E+04  0.24782965938E+04  0.15294330000E+03 0.  0.
<mgrwt>
<rscale>  0 0.11742037E+04</rscale>
<asrwt>0</asrwt>
<pdfrwt beam="1">  1        1 0.46761350E+00 0.12223039E+04</pdfrwt>
<pdfrwt beam="2">  1       -1 0.10266113E+00 0.12223039E+04</pdfrwt>
<totfact> 0.49833586E-01</totfact>
</mgrwt>
</event>
<event>
 4    1  0.2514307E-008  0.1003715E+04  0.7818608E-02  0.9376713E-01
          1   -1    0    0  501    0  0.00000000000E+00  0.00000000000E+00  0.24563091497E+04  0.24563091497E+04  0.50400000000E-02 0. -1.
         -1   -1    0    0    0  501 -0.00000000000E+00 -0.00000000000E+00 -0.52058279821E+03  0.52058279823E+03  0.50400000000E-02 0.  1.
    8880023    1    1    2    0    0  0.75693993758E+03  0.26004689940E+02  0.12911958274E+03  0.10119863566E+04  0.65864270000E+03 0.  1.
    8880022    1    1    2    0    0 -0.75693993758E+03 -0.26004689940E+02  0.18066067687E+04  0.19649055913E+04  0.15294330000E+03 0.  0.
<mgrwt>
<rscale>  0 0.94017149E+03</rscale>
<asrwt>0</asrwt>
<pdfrwt beam="1">  1        1 0.37789372E+00 0.10037154E+04</pdfrwt>
<pdfrwt beam="2">  1       -1 0.80089661E-01 0.10037154E+04</pdfrwt>
<totfact> 0.23001749E+00</totfact>
</mgrwt>
</event>
<event>
 4    1  0.2514307E-008  0.8043037E+03  0.7818608E-02  0.9701567E-01
         -1   -1    0    0    0  501 -0.00000000000E+00  0.00000000000E+00  0.39220733863E+03  0.39220733866E+03  0.50400000000E-02 0.  1.
          1   -1    0    0  501    0  0.00000000000E+00 -0.00000000000E+00 -0.37187293004E+04  0.37187293004E+04  0.50400000000E-02 0. -1.
    8880023    1    1    2    0    0 -0.31282414857E+03 -0.33946319000E+03 -0.57951806021E+02  0.80638875450E+03  0.65864270000E+03 0.  1.
    8880022    1    1    2    0    0  0.31282414857E+03  0.33946319000E+03 -0.32685701558E+04  0.33045478846E+04  0.15294330000E+03 0.  0.
<mgrwt>
<rscale>  0 0.70923587E+03</rscale>
<asrwt>0</asrwt>
<pdfrwt beam="1">  1        1 0.57211218E+00 0.80430368E+03</pdfrwt>
<pdfrwt beam="2">  1       -1 0.60339593E-01 0.80430368E+03</pdfrwt>
<totfact> 0.50465373E-01</totfact>
</mgrwt>
</event>
<event>
 4    1  0.2514307E-008  0.1297600E+04  0.7818608E-02  0.9067636E-01
         -1   -1    0    0    0  501 -0.00000000000E+00  0.00000000000E+00  0.14421776313E+04  0.14421776313E+04  0.50400000000E-02 0.  1.
          1   -1    0    0  501    0  0.00000000000E+00 -0.00000000000E+00 -0.13590041050E+04  0.13590041051E+04  0.50400000000E-02 0. -1.
    8880023    1    1    2    0    0 -0.99563627276E+02 -0.11135715639E+04  0.74174012987E+03  0.14946381403E+04  0.65864270000E+03 0.  1.
    8880022    1    1    2    0    0  0.99563627276E+02  0.11135715639E+04 -0.65856660364E+03  0.13065435960E+04  0.15294330000E+03 0.  0.
<mgrwt>
<rscale>  0 0.12530657E+04</rscale>
<asrwt>0</asrwt>
<pdfrwt beam="1">  1        1 0.20907756E+00 0.12975996E+04</pdfrwt>
<pdfrwt beam="2">  1       -1 0.22187348E+00 0.12975996E+04</pdfrwt>
<totfact> 0.85042947E-01</totfact>
</mgrwt>
</event>
<event>
 4    1  0.2514307E-008  0.7222026E+03  0.7818608E-02  0.9915202E-01
          1   -1    0    0  501    0  0.00000000000E+00  0.00000000000E+00  0.30456973319E+04  0.30456973319E+04  0.50400000000E-02 0. -1.
         -1   -1    0    0    0  501 -0.00000000000E+00 -0.00000000000E+00 -0.42327456679E+03  0.42327456682E+03  0.50400000000E-02 0.  1.
    8880023    1    1    2    0    0 -0.74764262008E+02 -0.28666484321E+03 -0.97444005749E+02  0.72874684749E+03  0.65864270000E+03 0.  1.
    8880022    1    1    2    0    0  0.74764262008E+02  0.28666484321E+03  0.27198667708E+04  0.27402250512E+04  0.15294330000E+03 0.  0.
<mgrwt>
<rscale>  0 0.59530143E+03</rscale>
<asrwt>0</asrwt>
<pdfrwt beam="1">  1        1 0.46856881E+00 0.72220263E+03</pdfrwt>
<pdfrwt beam="2">  1       -1 0.65119166E-01 0.72220263E+03</pdfrwt>
<totfact> 0.14347311E+00</totfact>
</mgrwt>
</event>
<event>
 4    1  0.2514307E-008  0.1011787E+04  0.7818608E-02  0.9366296E-01
          1   -1    0    0  501    0  0.00000000000E+00  0.00000000000E+00  0.79238940098E+03  0.79238940099E+03  0.50400000000E-02 0. -1.
         -1   -1    0    0    0  501 -0.00000000000E+00 -0.00000000000E+00 -0.12618402606E+04  0.12618402607E+04  0.50400000000E-02 0.  1.
    8880023    1    1    2    0    0 -0.62937394345E+03 -0.44021812718E+03 -0.70877628839E+03  0.12353451313E+04  0.65864270000E+03 0.  1.
    8880022    1    1    2    0    0  0.62937394345E+03  0.44021812718E+03  0.23932542872E+03  0.81888453035E+03  0.15294330000E+03 0.  0.
<mgrwt>
<rscale>  0 0.94902062E+03</rscale>
<asrwt>0</asrwt>
<pdfrwt beam="1">  1        1 0.12190606E+00 0.10117874E+04</pdfrwt>
<pdfrwt beam="2">  1       -1 0.19412927E+00 0.10117874E+04</pdfrwt>
<totfact> 0.37202223E+00</totfact>
</mgrwt>
</event>
<event>
 4    1  0.2514307E-008  0.9124503E+03  0.7818608E-02  0.9506333E-01
         -1   -1    0    0    0  501 -0.00000000000E+00  0.00000000000E+00  0.67880670019E+03  0.67880670021E+03  0.50400000000E-02 0.  1.
          1   -1    0    0  501    0  0.00000000000E+00 -0.00000000000E+00 -0.11920675214E+04  0.11920675214E+04  0.50400000000E-02 0. -1.
    8880023    1    1    2    0    0  0.39103980906E+03 -0.49582586948E+03  0.16984415981E+03  0.92812319764E+03  0.65864270000E+03 0.  1.
    8880022    1    1    2    0    0 -0.39103980906E+03  0.49582586948E+03 -0.68310498104E+03  0.94275102400E+03  0.15294330000E+03 0.  0.
<mgrwt>
<rscale>  0 0.83818504E+03</rscale>
<asrwt>0</asrwt>
<pdfrwt beam="1">  1        1 0.18339500E+00 0.91245034E+03</pdfrwt>
<pdfrwt beam="2">  1       -1 0.10443180E+00 0.91245034E+03</pdfrwt>
<totfact> 0.94609399E+00</totfact>
</mgrwt>
</event>
<event>
 4    1  0.2514307E-008  0.7453408E+03  0.7818608E-02  0.9844654E-01
          1   -1    0    0  501    0  0.00000000000E+00  0.00000000000E+00  0.10962453973E+04  0.10962453973E+04  0.50400000000E-02 0. -1.
         -1   -1    0    0    0  501 -0.00000000000E+00 -0.00000000000E+00 -0.13447909802E+04  0.13447909802E+04  0.50400000000E-02 0.  1.
    8880023    1    1    2    0    0 -0.25293796186E+03 -0.24030198453E+03 -0.12019810780E+04  0.14143165751E+04  0.65864270000E+03 0.  1.
    8880022    1    1    2    0    0  0.25293796186E+03  0.24030198453E+03  0.95343549510E+03  0.10267198024E+04  0.15294330000E+03 0.  0.
<mgrwt>
<rscale>  0 0.63020223E+03</rscale>
<asrwt>0</asrwt>
<pdfrwt beam="1">  1        1 0.16865314E+00 0.74534077E+03</pdfrwt>
<pdfrwt beam="2">  1       -1 0.20689092E+00 0.74534077E+03</pdfrwt>
<totfact> 0.18023936E+00</totfact>
</mgrwt>
</event>
<event>
 4    1  0.2514307E-008  0.6922955E+03  0.7818608E-02  0.1003080E+00
         -1   -1    0    0    0  501 -0.00000000000E+00  0.00000000000E+00  0.11803314405E+04  0.11803314405E+04  0.50400000000E-02 0.  1.
          1   -1    0    0  501    0  0.00000000000E+00 -0.00000000000E+00 -0.44516113962E+03  0.44516113965E+03  0.50400000000E-02 0. -1.
    8880023    1    1    2    0    0  0.80860663932E+02  0.19729265742E+03  0.10234922325E+04  0.12356412893E+04  0.65864270000E+03 0.  1.
    8880022    1    1    2    0    0 -0.80860663932E+02 -0.19729265742E+03 -0.28832193166E+03  0.38985129079E+03  0.15294330000E+03 0.  0.
<mgrwt>
<rscale>  0 0.54320050E+03</rscale>
<asrwt>0</asrwt>
<pdfrwt beam="1">  1        1 0.68486331E-01 0.69229549E+03</pdfrwt>
<pdfrwt beam="2">  1       -1 0.18158945E+00 0.69229549E+03</pdfrwt>
<totfact> 0.10931149E+01</totfact>
</mgrwt>
</event>
<event>
 4    1  0.2514307E-008  0.9116812E+03  0.7818608E-02  0.9507534E-01
         -1   -1    0    0    0  501 -0.00000000000E+00  0.00000000000E+00  0.46391361358E+03  0.46391361361E+03  0.50400000000E-02 0.  1.
          1   -1    0    0  501    0  0.00000000000E+00 -0.00000000000E+00 -0.34968704685E+04  0.34968704685E+04  0.50400000000E-02 0. -1.
    8880023    1    1    2    0    0  0.19835097256E+03 -0.59833878399E+03 -0.55366518132E+02  0.91336086315E+03  0.65864270000E+03 0.  0.
    8880022    1    1    2    0    0 -0.19835097256E+03  0.59833878399E+03 -0.29775903368E+04  0.30474232190E+04  0.15294330000E+03 0.  0.
<mgrwt>
<rscale>  0 0.83730657E+03</rscale>
<asrwt>0</asrwt>
<pdfrwt beam="1">  1        1 0.53798005E+00 0.91168120E+03</pdfrwt>
<pdfrwt beam="2">  1       -1 0.71371328E-01 0.91168120E+03</pdfrwt>
<totfact> 0.52668301E-01</totfact>
</mgrwt>
</event>
<event>
 4    1  0.2514307E-008  0.7809390E+03  0.7818608E-02  0.9753636E-01
         -1   -1    0    0    0  501 -0.00000000000E+00  0.00000000000E+00  0.36490521077E+03  0.36490521080E+03  0.50400000000E-02 0.  1.
          1   -1    0    0  501    0  0.00000000000E+00 -0.00000000000E+00 -0.10675493129E+04  0.10675493129E+04  0.50400000000E-02 0. -1.
    8880023    1    1    2    0    0  0.41461658627E+03 -0.64410220055E+02 -0.31855526502E+03  0.84341167480E+03  0.65864270000E+03 0.  1.
    8880022    1    1    2    0    0 -0.41461658627E+03  0.64410220055E+02 -0.38408883715E+03  0.58904284895E+03  0.15294330000E+03 0.  1.
<mgrwt>
<rscale>  0 0.67911193E+03</rscale>
<asrwt>0</asrwt>
<pdfrwt beam="1">  1        1 0.16423835E+00 0.78093905E+03</pdfrwt>
<pdfrwt beam="2">  1       -1 0.56139264E-01 0.78093905E+03</pdfrwt>
<totfact> 0.44030283E+01</totfact>
</mgrwt>
</event>
<event>
 4    1  0.2514307E-008  0.9769087E+03  0.7818608E-02  0.9412412E-01
         -1   -1    0    0    0  501 -0.00000000000E+00  0.00000000000E+00  0.78609078284E+03  0.78609078286E+03  0.50400000000E-02 0.  1.
          1   -1    0    0  501    0  0.00000000000E+00 -0.00000000000E+00 -0.21551865369E+04  0.21551865369E+04  0.50400000000E-02 0. -1.
    8880023    1    1    2    0    0  0.47916992325E+03  0.53938542006E+03  0.37597281168E+03  0.10467598617E+04  0.65864270000E+03 0.  1.
    8880022    1    1    2    0    0 -0.47916992325E+03 -0.53938542006E+03 -0.17450685658E+04  0.18945174581E+04  0.15294330000E+03 0.  0.
<mgrwt>
<rscale>  0 0.91061244E+03</rscale>
<asrwt>0</asrwt>
<pdfrwt beam="1">  1        1 0.33156716E+00 0.97690872E+03</pdfrwt>
<pdfrwt beam="2">  1       -1 0.12093704E+00 0.97690872E+03</pdfrwt>
<totfact> 0.14433080E+00</totfact>
</mgrwt>
</event>
<event>
 4    1  0.2514307E-008  0.1046322E+04  0.7818608E-02  0.9323316E-01
          1   -1    0    0  501    0  0.00000000000E+00  0.00000000000E+00  0.11939457663E+04  0.11939457664E+04  0.50400000000E-02 0. -1.
         -1   -1    0    0    0  501 -0.00000000000E+00 -0.00000000000E+00 -0.20184740519E+04  0.20184740519E+04  0.50400000000E-02 0.  1.
    8880023    1    1    2    0    0  0.55655838078E+03 -0.59263925871E+03 -0.17074195863E+04  0.20025160105E+04  0.65864270000E+03 0.  1.
    8880022    1    1    2    0    0 -0.55655838078E+03  0.59263925871E+03  0.88289130076E+03  0.12099038078E+04  0.15294330000E+03 0.  0.
<mgrwt>
<rscale>  0 0.98664349E+03</rscale>
<asrwt>0</asrwt>
<pdfrwt beam="1">  1        1 0.18368396E+00 0.10463215E+04</pdfrwt>
<pdfrwt beam="2">  1       -1 0.31053447E+00 0.10463215E+04</pdfrwt>
<totfact> 0.30707448E-01</totfact>
</mgrwt>
</event>
<event>
 4    1  0.2514307E-008  0.8792178E+03  0.7818608E-02  0.9560253E-01
          1   -1    0    0  501    0  0.00000000000E+00  0.00000000000E+00  0.79309425377E+03  0.79309425378E+03  0.50400000000E-02 0. -1.
         -1   -1    0    0    0  501 -0.00000000000E+00 -0.00000000000E+00 -0.22576507143E+04  0.22576507143E+04  0.50400000000E-02 0.  1.
    8880023    1    1    2    0    0 -0.57330671457E+03  0.10263123107E+03 -0.20377821139E+04  0.22193647534E+04  0.65864270000E+03 0.  1.
    8880022    1    1    2    0    0  0.57330671457E+03 -0.10263123107E+03  0.57322565342E+03  0.83138021465E+03  0.15294330000E+03 0.  0.
<mgrwt>
<rscale>  0 0.79983728E+03</rscale>
<asrwt>0</asrwt>
<pdfrwt beam="1">  1        1 0.12201450E+00 0.87921781E+03</pdfrwt>
<pdfrwt beam="2">  1       -1 0.34733088E+00 0.87921781E+03</pdfrwt>
<totfact> 0.37788445E-01</totfact>
</mgrwt>
</event>
<event>
 4    1  0.2514307E-008  0.9010992E+03  0.7818608E-02  0.9524269E-01
         -1   -1    0    0    0  501 -0.00000000000E+00  0.00000000000E+00  0.73278823904E+03  0.73278823906E+03  0.50400000000E-02 0.  1.
          1   -1    0    0  501    0  0.00000000000E+00 -0.00000000000E+00 -0.10253478768E+04  0.10253478768E+04  0.50400000000E-02 0. -1.
    8880023    1    1    2    0    0 -0.60596229234E+03  0.10478183141E+03  0.23762654965E+03  0.93190456341E+03  0.65864270000E+03 0. -1.
    8880022    1    1    2    0    0  0.60596229234E+03 -0.10478183141E+03 -0.53018618739E+03  0.82623155245E+03  0.15294330000E+03 0.  0.
<mgrwt>
<rscale>  0 0.82517947E+03</rscale>
<asrwt>0</asrwt>
<pdfrwt beam="1">  1        1 0.15774583E+00 0.90109918E+03</pdfrwt>
<pdfrwt beam="2">  1       -1 0.11273665E+00 0.90109918E+03</pdfrwt>
<totfact> 0.10546568E+01</totfact>
</mgrwt>
</event>
<event>
 4    1  0.2514307E-008  0.6802298E+03  0.7818608E-02  0.1009194E+00
         -1   -1    0    0    0  501 -0.00000000000E+00  0.00000000000E+00  0.97715808611E+03  0.97715808612E+03  0.50400000000E-02 0.  1.
          1   -1    0    0  501    0  0.00000000000E+00 -0.00000000000E+00 -0.58119345399E+03  0.58119345401E+03  0.50400000000E-02 0. -1.
    8880023    1    1    2    0    0  0.39070948983E+02 -0.16545658653E+03  0.82675711520E+03  0.10706259640E+04  0.65864270000E+03 0.  1.
    8880022    1    1    2    0    0 -0.39070948983E+02  0.16545658653E+03 -0.43079248308E+03  0.48772557609E+03  0.15294330000E+03 0.  0.
<mgrwt>
<rscale>  0 0.51796250E+03</rscale>
<asrwt>0</asrwt>
<pdfrwt beam="1">  1        1 0.89414377E-01 0.68022983E+03</pdfrwt>
<pdfrwt beam="2">  1       -1 0.15033201E+00 0.68022983E+03</pdfrwt>
<totfact> 0.12909614E+01</totfact>
</mgrwt>
</event>
<event>
 4    1  0.2514307E-008  0.8404957E+03  0.7818608E-02  0.9629246E-01
          1   -1    0    0  501    0  0.00000000000E+00  0.00000000000E+00  0.27518747200E+04  0.27518747200E+04  0.50400000000E-02 0. -1.
         -1   -1    0    0    0  501 -0.00000000000E+00 -0.00000000000E+00 -0.23671601510E+03  0.23671601515E+03  0.50400000000E-02 0.  1.
    8880023    1    1    2    0    0  0.32134395596E+03 -0.41153484190E+03  0.70053450660E+03  0.10941579709E+04  0.65864270000E+03 0.  0.
    8880022    1    1    2    0    0 -0.32134395596E+03  0.41153484190E+03  0.18146241983E+04  0.18944327642E+04  0.15294330000E+03 0.  0.
<mgrwt>
<rscale>  0 0.75390350E+03</rscale>
<asrwt>0</asrwt>
<pdfrwt beam="1">  1        1 0.42336533E+00 0.84049573E+03</pdfrwt>
<pdfrwt beam="2">  1       -1 0.36417850E-01 0.84049573E+03</pdfrwt>
<totfact> 0.68075178E+00</totfact>
</mgrwt>
</event>
<event>
 4    1  0.2514307E-008  0.7902528E+03  0.7818608E-02  0.9732282E-01
          1   -1    0    0  501    0  0.00000000000E+00  0.00000000000E+00  0.71567369971E+03  0.71567369973E+03  0.50400000000E-02 0. -1.
         -1   -1    0    0    0  501 -0.00000000000E+00 -0.00000000000E+00 -0.68834655290E+03  0.68834655291E+03  0.50400000000E-02 0.  1.
    8880023    1    1    2    0    0  0.16186333382E+03 -0.40557307088E+03 -0.29130156118E+03  0.84223278283E+03  0.65864270000E+03 0.  0.
    8880022    1    1    2    0    0 -0.16186333382E+03  0.40557307088E+03  0.31862870800E+03  0.56178746982E+03  0.15294330000E+03 0.  0.
<mgrwt>
<rscale>  0 0.69126850E+03</rscale>
<asrwt>0</asrwt>
<pdfrwt beam="1">  1        1 0.11010365E+00 0.79025278E+03</pdfrwt>
<pdfrwt beam="2">  1       -1 0.10589947E+00 0.79025278E+03</pdfrwt>
<totfact> 0.22463399E+01</totfact>
</mgrwt>
</event>
<event>
 4    1  0.2514307E-008  0.7393005E+03  0.7818608E-02  0.9861990E-01
          1   -1    0    0  501    0  0.00000000000E+00  0.00000000000E+00  0.90745747564E+03  0.90745747565E+03  0.50400000000E-02 0. -1.
         -1   -1    0    0    0  501 -0.00000000000E+00 -0.00000000000E+00 -0.35567850362E+03  0.35567850365E+03  0.50400000000E-02 0.  1.
    8880023    1    1    2    0    0  0.33068548326E+03 -0.58327239915E+02  0.23194207079E+03  0.77483048870E+03  0.65864270000E+03 0.  1.
    8880022    1    1    2    0    0 -0.33068548326E+03  0.58327239915E+02  0.31983690124E+03  0.48830549061E+03  0.15294330000E+03 0.  0.
<mgrwt>
<rscale>  0 0.62139332E+03</rscale>
<asrwt>0</asrwt>
<pdfrwt beam="1">  1        1 0.13960884E+00 0.73930045E+03</pdfrwt>
<pdfrwt beam="2">  1       -1 0.54719769E-01 0.73930045E+03</pdfrwt>
<totfact> 0.61946812E+01</totfact>
</mgrwt>
</event>
<event>
 4    1  0.2514307E-008  0.1174179E+04  0.7818608E-02  0.9182640E-01
         -1   -1    0    0    0  501 -0.00000000000E+00  0.00000000000E+00  0.26019450082E+04  0.26019450082E+04  0.50400000000E-02 0.  1.
          1   -1    0    0  501    0  0.00000000000E+00 -0.00000000000E+00 -0.11647912835E+04  0.11647912835E+04  0.50400000000E-02 0. -1.
    8880023    1    1    2    0    0  0.93481832122E+03  0.26645780698E+03  0.22186158558E+04  0.25101696314E+04  0.65864270000E+03 0.  1.
    8880022    1    1    2    0    0 -0.93481832122E+03 -0.26645780698E+03 -0.78146213110E+03  0.12565666604E+04  0.15294330000E+03 0.  0.
<mgrwt>
<rscale>  0 0.11234417E+04</rscale>
<asrwt>0</asrwt>
<pdfrwt beam="1">  1        1 0.17919866E+00 0.11741785E+04</pdfrwt>
<pdfrwt beam="2">  1       -1 0.40029923E+00 0.11741785E+04</pdfrwt>
<totfact> 0.80381824E-02</totfact>
</mgrwt>
</event>
<event>
 4    1  0.2514307E-008  0.7232075E+03  0.7818608E-02  0.9911879E-01
          1   -1    0    0  501    0  0.00000000000E+00  0.00000000000E+00  0.71634628397E+03  0.71634628399E+03  0.50400000000E-02 0. -1.
         -1   -1    0    0    0  501 -0.00000000000E+00 -0.00000000000E+00 -0.12188321842E+04  0.12188321842E+04  0.50400000000E-02 0.  1.
    8880023    1    1    2    0    0 -0.25355765762E+03  0.15788423623E+03 -0.10607433150E+04  0.12838245614E+04  0.65864270000E+03 0.  1.
    8880022    1    1    2    0    0  0.25355765762E+03 -0.15788423623E+03  0.55825741477E+03  0.65135390684E+03  0.15294330000E+03 0.  0.
<mgrwt>
<rscale>  0 0.59689040E+03</rscale>
<asrwt>0</asrwt>
<pdfrwt beam="1">  1        1 0.11020712E+00 0.72320752E+03</pdfrwt>
<pdfrwt beam="2">  1       -1 0.18751264E+00 0.72320752E+03</pdfrwt>
<totfact> 0.50320573E+00</totfact>
</mgrwt>
</event>
<event>
 4    1  0.2514307E-008  0.1275376E+04  0.7818608E-02  0.9087122E-01
          1   -1    0    0  501    0  0.00000000000E+00  0.00000000000E+00  0.10914337616E+04  0.10914337616E+04  0.50400000000E-02 0. -1.
         -1   -1    0    0    0  501 -0.00000000000E+00 -0.00000000000E+00 -0.23843892214E+04  0.23843892214E+04  0.50400000000E-02 0.  1.
    8880023    1    1    2    0    0  0.10909164438E+04 -0.51711040789E+02 -0.18447373869E+04  0.22426856561E+04  0.65864270000E+03 0.  0.
    8880022    1    1    2    0    0 -0.10909164438E+04  0.51711040789E+02  0.55178192708E+03  0.12331373269E+04  0.15294330000E+03 0.  0.
<mgrwt>
<rscale>  0 0.12298513E+04</rscale>
<asrwt>0</asrwt>
<pdfrwt beam="1">  1        1 0.16791289E+00 0.12753756E+04</pdfrwt>
<pdfrwt beam="2">  1       -1 0.36682911E+00 0.12753756E+04</pdfrwt>
<totfact> 0.15118066E-01</totfact>
</mgrwt>
</event>
<event>
 4    1  0.2514307E-008  0.1136499E+04  0.7818608E-02  0.9221467E-01
          1   -1    0    0  501    0  0.00000000000E+00  0.00000000000E+00  0.28700597198E+04  0.28700597198E+04  0.50400000000E-02 0. -1.
         -1   -1    0    0    0  501 -0.00000000000E+00 -0.00000000000E+00 -0.92878893724E+03  0.92878893726E+03  0.50400000000E-02 0.  1.
    8880023    1    1    2    0    0  0.90120500563E+03  0.21365879643E+03 -0.45582143124E+03  0.12245015014E+04  0.65864270000E+03 0.  0.
    8880022    1    1    2    0    0 -0.90120500563E+03 -0.21365879643E+03  0.23970922138E+04  0.25743471557E+04  0.15294330000E+03 0.  0.
<mgrwt>
<rscale>  0 0.10834577E+04</rscale>
<asrwt>0</asrwt>
<pdfrwt beam="1">  1        1 0.44154764E+00 0.11364993E+04</pdfrwt>
<pdfrwt beam="2">  1       -1 0.14289061E+00 0.11364993E+04</pdfrwt>
<totfact> 0.29530971E-01</totfact>
</mgrwt>
</event>
<event>
 4    1  0.2514307E-008  0.6610430E+03  0.7818608E-02  0.1023112E+00
          1   -1    0    0  501    0  0.00000000000E+00  0.00000000000E+00  0.20565249165E+04  0.20565249165E+04  0.50400000000E-02 0. -1.
         -1   -1    0    0    0  501 -0.00000000000E+00 -0.00000000000E+00 -0.67766766365E+03  0.67766766367E+03  0.50400000000E-02 0.  1.
    8880023    1    1    2    0    0 -0.35211589291E+02 -0.43907145300E+02 -0.51211818834E+03  0.83620747337E+03  0.65864270000E+03 0.  0.
    8880022    1    1    2    0    0  0.35211589291E+02  0.43907145300E+02  0.18909754412E+04  0.18979851068E+04  0.15294330000E+03 0. -1.
<mgrwt>
<rscale>  0 0.46579999E+03</rscale>
<asrwt>0</asrwt>
<pdfrwt beam="1">  1        1 0.31638845E+00 0.66104304E+03</pdfrwt>
<pdfrwt beam="2">  1       -1 0.10425656E+00 0.66104304E+03</pdfrwt>
<totfact> 0.25359417E+00</totfact>
</mgrwt>
</event>
<event>
 4    1  0.2514307E-008  0.6661634E+03  0.7818608E-02  0.1018577E+00
          1   -1    0    0  501    0  0.00000000000E+00  0.00000000000E+00  0.19085450215E+04  0.19085450215E+04  0.50400000000E-02 0. -1.
         -1   -1    0    0    0  501 -0.00000000000E+00 -0.00000000000E+00 -0.31059918870E+03  0.31059918874E+03  0.50400000000E-02 0.  1.
    8880023    1    1    2    0    0 -0.16826805209E+02  0.98388565683E+02  0.58306036684E+02  0.66871014005E+03  0.65864270000E+03 0.  1.
    8880022    1    1    2    0    0  0.16826805209E+02 -0.98388565683E+02  0.15396397962E+04  0.15504340702E+04  0.15294330000E+03 0.  0.
<mgrwt>
<rscale>  0 0.48203754E+03</rscale>
<asrwt>0</asrwt>
<pdfrwt beam="1">  1        1 0.29362231E+00 0.66616339E+03</pdfrwt>
<pdfrwt beam="2">  1       -1 0.47784491E-01 0.66616339E+03</pdfrwt>
<totfact> 0.15867591E+01</totfact>
</mgrwt>
</event>
<event>
 4    1  0.2514307E-008  0.1556433E+04  0.7818608E-02  0.8870781E-01
          1   -1    0    0  501    0  0.00000000000E+00  0.00000000000E+00  0.12525178709E+04  0.12525178710E+04  0.50400000000E-02 0. -1.
         -1   -1    0    0    0  501 -0.00000000000E+00 -0.00000000000E+00 -0.21754169395E+04  0.21754169395E+04  0.50400000000E-02 0.  1.
    8880023    1    1    2    0    0  0.10135969285E+04 -0.98045635126E+03 -0.12213208686E+04  0.19784105389E+04  0.65864270000E+03 0.  0.
    8880022    1    1    2    0    0 -0.10135969285E+04  0.98045635126E+03  0.29842180004E+03  0.14495242716E+04  0.15294330000E+03 0.  0.
<mgrwt>
<rscale>  0 0.15207333E+04</rscale>
<asrwt>0</asrwt>
<pdfrwt beam="1">  1        1 0.19269506E+00 0.15564330E+04</pdfrwt>
<pdfrwt beam="2">  1       -1 0.33467953E+00 0.15564330E+04</pdfrwt>
<totfact> 0.18089396E-01</totfact>
</mgrwt>
</event>
<event>
 4    1  0.2514307E-008  0.1225133E+04  0.7818608E-02  0.9133070E-01
          1   -1    0    0  501    0  0.00000000000E+00  0.00000000000E+00  0.20238852293E+04  0.20238852293E+04  0.50400000000E-02 0. -1.
         -1   -1    0    0    0  501 -0.00000000000E+00 -0.00000000000E+00 -0.79995377462E+03  0.79995377463E+03  0.50400000000E-02 0.  1.
    8880023    1    1    2    0    0  0.98300211978E+03  0.31756405442E+03  0.13521898535E+02  0.12252073882E+04  0.65864270000E+03 0.  1.
    8880022    1    1    2    0    0 -0.98300211978E+03 -0.31756405442E+03  0.12104095562E+04  0.15986316157E+04  0.15294330000E+03 0.  0.
<mgrwt>
<rscale>  0 0.11771781E+04</rscale>
<asrwt>0</asrwt>
<pdfrwt beam="1">  1        1 0.31136696E+00 0.12251328E+04</pdfrwt>
<pdfrwt beam="2">  1       -1 0.12306981E+00 0.12251328E+04</pdfrwt>
<totfact> 0.16391451E+00</totfact>
</mgrwt>
</event>
<event>
 4    1  0.2514307E-008  0.6901793E+03  0.7818608E-02  0.1004067E+00
          1   -1    0    0  501    0  0.00000000000E+00  0.00000000000E+00  0.10068057241E+04  0.10068057241E+04  0.50400000000E-02 0. -1.
         -1   -1    0    0    0  501 -0.00000000000E+00 -0.00000000000E+00 -0.60990364353E+03  0.60990364355E+03  0.50400000000E-02 0.  1.
    8880023    1    1    2    0    0  0.12594926418E+03 -0.16332173429E+03 -0.38738313847E+03  0.79146263858E+03  0.65864270000E+03 0.  1.
    8880022    1    1    2    0    0 -0.12594926418E+03  0.16332173429E+03  0.78428521902E+03  0.82524672906E+03  0.15294330000E+03 0.  0.
<mgrwt>
<rscale>  0 0.53902123E+03</rscale>
<asrwt>0</asrwt>
<pdfrwt beam="1">  1        1 0.15489319E+00 0.69017926E+03</pdfrwt>
<pdfrwt beam="2">  1       -1 0.93831330E-01 0.69017926E+03</pdfrwt>
<totfact> 0.17082205E+01</totfact>
</mgrwt>
</event>
<event>
 4    1  0.2514307E-008  0.9588900E+03  0.7818608E-02  0.9437437E-01
         -1   -1    0    0    0  501 -0.00000000000E+00  0.00000000000E+00  0.63009701920E+03  0.63009701922E+03  0.50400000000E-02 0.  1.
          1   -1    0    0  501    0  0.00000000000E+00 -0.00000000000E+00 -0.12664716454E+04  0.12664716454E+04  0.50400000000E-02 0. -1.
    8880023    1    1    2    0    0  0.59964569156E+03 -0.35508431764E+03 -0.28599748099E+02  0.95931641282E+03  0.65864270000E+03 0.  0.
    8880022    1    1    2    0    0 -0.59964569156E+03  0.35508431764E+03 -0.60777487808E+03  0.93725225179E+03  0.15294330000E+03 0.  0.
<mgrwt>
<rscale>  0 0.89057768E+03</rscale>
<asrwt>0</asrwt>
<pdfrwt beam="1">  1        1 0.19484179E+00 0.95889000E+03</pdfrwt>
<pdfrwt beam="2">  1       -1 0.96938003E-01 0.95889000E+03</pdfrwt>
<totfact> 0.98642056E+00</totfact>
</mgrwt>
</event>
<event>
 4    1  0.2514307E-008  0.8403409E+03  0.7818608E-02  0.9629538E-01
         -1   -1    0    0    0  501 -0.00000000000E+00  0.00000000000E+00  0.80342601444E+03  0.80342601446E+03  0.50400000000E-02 0.  1.
          1   -1    0    0  501    0  0.00000000000E+00 -0.00000000000E+00 -0.10756686686E+04  0.10756686686E+04  0.50400000000E-02 0. -1.
    8880023    1    1    2    0    0  0.49712367686E+03  0.15884140001E+03  0.46698167415E+03  0.96137642508E+03  0.65864270000E+03 0.  1.
    8880022    1    1    2    0    0 -0.49712367686E+03 -0.15884140001E+03 -0.73922432829E+03  0.91771825797E+03  0.15294330000E+03 0.  0.
<mgrwt>
<rscale>  0 0.75371641E+03</rscale>
<asrwt>0</asrwt>
<pdfrwt beam="1">  1        1 0.16548749E+00 0.84034085E+03</pdfrwt>
<pdfrwt beam="2">  1       -1 0.12360400E+00 0.84034085E+03</pdfrwt>
<totfact> 0.77784124E+00</totfact>
</mgrwt>
</event>
<event>
 4    1  0.2514307E-008  0.9049133E+03  0.7818608E-02  0.9518190E-01
          1   -1    0    0  501    0  0.00000000000E+00  0.00000000000E+00  0.16441959561E+04  0.16441959561E+04  0.50400000000E-02 0. -1.
         -1   -1    0    0    0  501 -0.00000000000E+00 -0.00000000000E+00 -0.91469585740E+03  0.91469585741E+03  0.50400000000E-02 0.  1.
    8880023    1    1    2    0    0  0.18174376413E+03  0.59331872952E+03 -0.59862453732E+03  0.10849974440E+04  0.65864270000E+03 0.  1.
    8880022    1    1    2    0    0 -0.18174376413E+03 -0.59331872952E+03  0.13281246360E+04  0.14738943695E+04  0.15294330000E+03 0.  0.
<mgrwt>
<rscale>  0 0.82955950E+03</rscale>
<asrwt>0</asrwt>
<pdfrwt beam="1">  1        1 0.25295322E+00 0.90491332E+03</pdfrwt>
<pdfrwt beam="2">  1       -1 0.14072244E+00 0.90491332E+03</pdfrwt>
<totfact> 0.21970211E+00</totfact>
</mgrwt>
</event>
<event>
 4    1  0.2514307E-008  0.1084361E+04  0.7818608E-02  0.9278672E-01
         -1   -1    0    0    0  501 -0.00000000000E+00  0.00000000000E+00  0.51566328104E+03  0.51566328106E+03  0.50400000000E-02 0.  1.
          1   -1    0    0  501    0  0.00000000000E+00 -0.00000000000E+00 -0.31455649333E+04  0.31455649333E+04  0.50400000000E-02 0. -1.
    8880023    1    1    2    0    0 -0.66436993157E+03 -0.54830665154E+03 -0.23226246754E+03  0.11089561083E+04  0.65864270000E+03 0.  0.
    8880022    1    1    2    0    0  0.66436993157E+03  0.54830665154E+03 -0.23976391847E+04  0.25522721060E+04  0.15294330000E+03 0.  0.
<mgrwt>
<rscale>  0 0.10277032E+04</rscale>
<asrwt>0</asrwt>
<pdfrwt beam="1">  1        1 0.48393306E+00 0.10843605E+04</pdfrwt>
<pdfrwt beam="2">  1       -1 0.79332814E-01 0.10843605E+04</pdfrwt>
<totfact> 0.75415133E-01</totfact>
</mgrwt>
</event>
<event>
 4    1  0.2514307E-008  0.1875020E+04  0.7818608E-02  0.8682135E-01
          1   -1    0    0  501    0  0.00000000000E+00  0.00000000000E+00  0.17046191857E+04  0.17046191857E+04  0.50400000000E-02 0. -1.
         -1   -1    0    0    0  501 -0.00000000000E+00 -0.00000000000E+00 -0.30882961714E+04  0.30882961714E+04  0.50400000000E-02 0.  1.
    8880023    1    1    2    0    0  0.15876201237E+04 -0.74923382194E+03  0.75539932049E+03  0.20214666252E+04  0.65864270000E+03 0.  0.
    8880022    1    1    2    0    0 -0.15876201237E+04  0.74923382194E+03 -0.21390763062E+04  0.27714487319E+04  0.15294330000E+03 0.  0.
<mgrwt>
<rscale>  0 0.18461501E+04</rscale>
<asrwt>0</asrwt>
<pdfrwt beam="1">  1        1 0.26224911E+00 0.18750198E+04</pdfrwt>
<pdfrwt beam="2">  1       -1 0.47512249E+00 0.18750198E+04</pdfrwt>
<totfact> 0.92488175E-03</totfact>
</mgrwt>
</event>
<event>
 4    1  0.2514307E-008  0.6722779E+03  0.7818608E-02  0.1014080E+00
          1   -1    0    0  501    0  0.00000000000E+00  0.00000000000E+00  0.20173358057E+04  0.20173358057E+04  0.50400000000E-02 0. -1.
         -1   -1    0    0    0  501 -0.00000000000E+00 -0.00000000000E+00 -0.81467337974E+03  0.81467337975E+03  0.50400000000E-02 0.  1.
    8880023    1    1    2    0    0  0.13267332472E+03  0.23348023869E+02 -0.66950194752E+03  0.94878364515E+03  0.65864270000E+03 0.  1.
    8880022    1    1    2    0    0 -0.13267332472E+03 -0.23348023869E+02  0.18721643735E+04  0.18832255403E+04  0.15294330000E+03 0.  0.
<mgrwt>
<rscale>  0 0.49884843E+03</rscale>
<asrwt>0</asrwt>
<pdfrwt beam="1">  1        1 0.31035935E+00 0.67227788E+03</pdfrwt>
<pdfrwt beam="2">  1       -1 0.12533437E+00 0.67227788E+03</pdfrwt>
<totfact> 0.17307683E+00</totfact>
</mgrwt>
</event>
<event>
 4    1  0.2514307E-008  0.7235175E+03  0.7818608E-02  0.9910859E-01
          1   -1    0    0  501    0  0.00000000000E+00  0.00000000000E+00  0.34974020680E+04  0.34974020680E+04  0.50400000000E-02 0. -1.
         -1   -1    0    0    0  501 -0.00000000000E+00 -0.00000000000E+00 -0.51049579985E+03  0.51049579987E+03  0.50400000000E-02 0.  1.
    8880023    1    1    2    0    0  0.19188244963E+03  0.22988806778E+03 -0.24094369001E+03  0.76258210457E+03  0.65864270000E+03 0.  1.
    8880022    1    1    2    0    0 -0.19188244963E+03 -0.22988806778E+03  0.32278499582E+04  0.32453157633E+04  0.15294330000E+03 0.  0.
<mgrwt>
<rscale>  0 0.59737901E+03</rscale>
<asrwt>0</asrwt>
<pdfrwt beam="1">  1        1 0.53806188E+00 0.72351752E+03</pdfrwt>
<pdfrwt beam="2">  1       -1 0.78537812E-01 0.72351752E+03</pdfrwt>
<totfact> 0.44952088E-01</totfact>
</mgrwt>
</event>
<event>
 4    1  0.2514307E-008  0.1058356E+04  0.7818608E-02  0.9308903E-01
         -1   -1    0    0    0  501 -0.00000000000E+00  0.00000000000E+00  0.10581090854E+04  0.10581090854E+04  0.50400000000E-02 0.  1.
          1   -1    0    0  501    0  0.00000000000E+00 -0.00000000000E+00 -0.18957080620E+04  0.18957080620E+04  0.50400000000E-02 0. -1.
    8880023    1    1    2    0    0  0.38450038989E+03 -0.73380302021E+03  0.65159220139E+03  0.12428555932E+04  0.65864270000E+03 0.  0.
    8880022    1    1    2    0    0 -0.38450038989E+03  0.73380302021E+03 -0.14891911780E+04  0.17109615542E+04  0.15294330000E+03 0.  0.
<mgrwt>
<rscale>  0 0.99967341E+03</rscale>
<asrwt>0</asrwt>
<pdfrwt beam="1">  1        1 0.29164739E+00 0.10583561E+04</pdfrwt>
<pdfrwt beam="2">  1       -1 0.16278601E+00 0.10583561E+04</pdfrwt>
<totfact> 0.97756677E-01</totfact>
</mgrwt>
</event>
<event>
 4    1  0.2514307E-008  0.7551484E+03  0.7818608E-02  0.9817834E-01
         -1   -1    0    0    0  501 -0.00000000000E+00  0.00000000000E+00  0.25799625966E+03  0.25799625971E+03  0.50400000000E-02 0.  1.
          1   -1    0    0  501    0  0.00000000000E+00 -0.00000000000E+00 -0.45124637340E+04  0.45124637340E+04  0.50400000000E-02 0. -1.
    8880023    1    1    2    0    0 -0.30256054136E+03 -0.21188674713E+03 -0.32735347634E+03  0.82304883180E+03  0.65864270000E+03 0.  1.
    8880022    1    1    2    0    0  0.30256054136E+03  0.21188674713E+03 -0.39271139980E+04  0.39474111619E+04  0.15294330000E+03 0.  0.
<mgrwt>
<rscale>  0 0.64414211E+03</rscale>
<asrwt>0</asrwt>
<pdfrwt beam="1">  1        1 0.69422513E+00 0.75514838E+03</pdfrwt>
<pdfrwt beam="2">  1       -1 0.39691735E-01 0.75514838E+03</pdfrwt>
<totfact> 0.21932049E-01</totfact>
</mgrwt>
</event>
<event>
 4    1  0.2514307E-008  0.7225425E+03  0.7818608E-02  0.9914075E-01
         -1   -1    0    0    0  501 -0.00000000000E+00  0.00000000000E+00  0.25156456082E+04  0.25156456082E+04  0.50400000000E-02 0.  1.
          1   -1    0    0  501    0  0.00000000000E+00 -0.00000000000E+00 -0.14096767496E+04  0.14096767497E+04  0.50400000000E-02 0. -1.
    8880023    1    1    2    0    0  0.17091663057E+03 -0.24299174567E+03  0.24427723883E+04  0.25473917308E+04  0.65864270000E+03 0.  1.
    8880022    1    1    2    0    0 -0.17091663057E+03  0.24299174567E+03 -0.13368035297E+04  0.13779306271E+04  0.15294330000E+03 0.  0.
<mgrwt>
<rscale>  0 0.59583976E+03</rscale>
<asrwt>0</asrwt>
<pdfrwt beam="1">  1        1 0.21687335E+00 0.72254252E+03</pdfrwt>
<pdfrwt beam="2">  1       -1 0.38702240E+00 0.72254252E+03</pdfrwt>
<totfact> 0.72774344E-02</totfact>
</mgrwt>
</event>
<event>
 4    1  0.2514307E-008  0.1228015E+04  0.7818608E-02  0.9130360E-01
         -1   -1    0    0    0  501 -0.00000000000E+00  0.00000000000E+00  0.13355944158E+04  0.13355944158E+04  0.50400000000E-02 0.  1.
          1   -1    0    0  501    0  0.00000000000E+00 -0.00000000000E+00 -0.11229956135E+04  0.11229956135E+04  0.50400000000E-02 0. -1.
    8880023    1    1    2    0    0 -0.68656924682E+03  0.77642268585E+03  0.56701669406E+03  0.13526003310E+04  0.65864270000E+03 0.  0.
    8880022    1    1    2    0    0  0.68656924682E+03 -0.77642268585E+03 -0.35441789182E+03  0.11059896983E+04  0.15294330000E+03 0.  0.
<mgrwt>
<rscale>  0 0.11802070E+04</rscale>
<asrwt>0</asrwt>
<pdfrwt beam="1">  1        1 0.17276856E+00 0.12280145E+04</pdfrwt>
<pdfrwt beam="2">  1       -1 0.20547606E+00 0.12280145E+04</pdfrwt>
<totfact> 0.16435684E+00</totfact>
</mgrwt>
</event>
<event>
 4    1  0.2514307E-008  0.7118125E+03  0.7818608E-02  0.9951331E-01
          1   -1    0    0  501    0  0.00000000000E+00  0.00000000000E+00  0.20490704913E+04  0.20490704913E+04  0.50400000000E-02 0. -1.
         -1   -1    0    0    0  501 -0.00000000000E+00 -0.00000000000E+00 -0.52060386479E+03  0.52060386482E+03  0.50400000000E-02 0.  1.
    8880023    1    1    2    0    0  0.22086807204E+03  0.15519082670E+03 -0.25750211809E+03  0.75695736011E+03  0.65864270000E+03 0.  1.
    8880022    1    1    2    0    0 -0.22086807204E+03 -0.15519082670E+03  0.17859687446E+04  0.18127169960E+04  0.15294330000E+03 0.  0.
<mgrwt>
<rscale>  0 0.57836785E+03</rscale>
<asrwt>0</asrwt>
<pdfrwt beam="1">  1        1 0.31524162E+00 0.71181255E+03</pdfrwt>
<pdfrwt beam="2">  1       -1 0.80092902E-01 0.71181255E+03</pdfrwt>
<totfact> 0.45461440E+00</totfact>
</mgrwt>
</event>
<event>
 4    1  0.2514307E-008  0.1035189E+04  0.7818608E-02  0.9336902E-01
          1   -1    0    0  501    0  0.00000000000E+00  0.00000000000E+00  0.19097912933E+04  0.19097912933E+04  0.50400000000E-02 0. -1.
         -1   -1    0    0    0  501 -0.00000000000E+00 -0.00000000000E+00 -0.93506110377E+03  0.93506110379E+03  0.50400000000E-02 0.  1.
    8880023    1    1    2    0    0  0.40709784496E+03 -0.68707842558E+03 -0.50851190398E+03  0.11533429590E+04  0.65864270000E+03 0.  1.
    8880022    1    1    2    0    0 -0.40709784496E+03  0.68707842558E+03  0.14832420935E+04  0.16915094381E+04  0.15294330000E+03 0.  0.
<mgrwt>
<rscale>  0 0.97455421E+03</rscale>
<asrwt>0</asrwt>
<pdfrwt beam="1">  1        1 0.29381404E+00 0.10351887E+04</pdfrwt>
<pdfrwt beam="2">  1       -1 0.14385556E+00 0.10351887E+04</pdfrwt>
<totfact> 0.13449611E+00</totfact>
</mgrwt>
</event>
<event>
 4    1  0.2514307E-008  0.7092504E+03  0.7818608E-02  0.9960795E-01
         -1   -1    0    0    0  501 -0.00000000000E+00  0.00000000000E+00  0.56171754919E+03  0.56171754921E+03  0.50400000000E-02 0.  1.
          1   -1    0    0  501    0  0.00000000000E+00 -0.00000000000E+00 -0.71078101871E+03  0.71078101872E+03  0.50400000000E-02 0. -1.
    8880023    1    1    2    0    0  0.22499840054E+03 -0.13638798427E+03  0.26628333065E+03  0.75759024607E+03  0.65864270000E+03 0.  0.
    8880022    1    1    2    0    0 -0.22499840054E+03  0.13638798427E+03 -0.41534680017E+03  0.51490832186E+03  0.15294330000E+03 0.  0.
<mgrwt>
<rscale>  0 0.57403240E+03</rscale>
<asrwt>0</asrwt>
<pdfrwt beam="1">  1        1 0.10935093E+00 0.70925043E+03</pdfrwt>
<pdfrwt beam="2">  1       -1 0.86418085E-01 0.70925043E+03</pdfrwt>
<totfact> 0.36143890E+01</totfact>
</mgrwt>
</event>
<event>
 4    1  0.2514307E-008  0.9797428E+03  0.7818608E-02  0.9408554E-01
         -1   -1    0    0    0  501 -0.00000000000E+00  0.00000000000E+00  0.11097071689E+04  0.11097071689E+04  0.50400000000E-02 0.  1.
          1   -1    0    0  501    0  0.00000000000E+00 -0.00000000000E+00 -0.10422497059E+04  0.10422497059E+04  0.50400000000E-02 0. -1.
    8880023    1    1    2    0    0 -0.58819128641E+03  0.42440159581E+03  0.67813493793E+03  0.11915380415E+04  0.65864270000E+03 0.  1.
    8880022    1    1    2    0    0  0.58819128641E+03 -0.42440159581E+03 -0.61067747500E+03  0.96041883333E+03  0.15294330000E+03 0.  0.
<mgrwt>
<rscale>  0 0.91375082E+03</rscale>
<asrwt>0</asrwt>
<pdfrwt beam="1">  1        1 0.16034611E+00 0.97974278E+03</pdfrwt>
<pdfrwt beam="2">  1       -1 0.17072418E+00 0.97974278E+03</pdfrwt>
<totfact> 0.34297093E+00</totfact>
</mgrwt>
</event>
<event>
 4    1  0.2514307E-008  0.1361673E+04  0.7818608E-02  0.9014051E-01
          1   -1    0    0  501    0  0.00000000000E+00  0.00000000000E+00  0.38526746693E+04  0.38526746693E+04  0.50400000000E-02 0. -1.
         -1   -1    0    0    0  501 -0.00000000000E+00 -0.00000000000E+00 -0.89704278054E+03  0.89704278056E+03  0.50400000000E-02 0.  1.
    8880023    1    1    2    0    0  0.25526251555E+02  0.11915079022E+04 -0.19702237774E+03  0.13758527152E+04  0.65864270000E+03 0.  0.
    8880022    1    1    2    0    0 -0.25526251555E+02 -0.11915079022E+04  0.31526542665E+04  0.33738647346E+04  0.15294330000E+03 0.  0.
<mgrwt>
<rscale>  0 0.13197464E+04</rscale>
<asrwt>0</asrwt>
<pdfrwt beam="1">  1        1 0.59271920E+00 0.13616728E+04</pdfrwt>
<pdfrwt beam="2">  1       -1 0.13800658E+00 0.13616728E+04</pdfrwt>
<totfact> 0.54967076E-02</totfact>
</mgrwt>
</event>
<event>
 4    1  0.2514307E-008  0.1274319E+04  0.7818608E-02  0.9088060E-01
          1   -1    0    0  501    0  0.00000000000E+00  0.00000000000E+00  0.27580492341E+04  0.27580492341E+04  0.50400000000E-02 0. -1.
         -1   -1    0    0    0  501 -0.00000000000E+00 -0.00000000000E+00 -0.15760522254E+04  0.15760522254E+04  0.50400000000E-02 0.  1.
    8880023    1    1    2    0    0  0.92073406170E+03 -0.58508801797E+03 -0.11743912133E+04  0.17329408903E+04  0.65864270000E+03 0.  0.
    8880022    1    1    2    0    0 -0.92073406170E+03  0.58508801797E+03  0.23563882220E+04  0.26011605692E+04  0.15294330000E+03 0.  0.
<mgrwt>
<rscale>  0 0.12287466E+04</rscale>
<asrwt>0</asrwt>
<pdfrwt beam="1">  1        1 0.42431526E+00 0.12743192E+04</pdfrwt>
<pdfrwt beam="2">  1       -1 0.24246958E+00 0.12743192E+04</pdfrwt>
<totfact> 0.68112039E-02</totfact>
</mgrwt>
</event>
<event>
 4    1  0.2514307E-008  0.8542028E+03  0.7818608E-02  0.9603960E-01
          1   -1    0    0  501    0  0.00000000000E+00  0.00000000000E+00  0.22689943088E+04  0.22689943088E+04  0.50400000000E-02 0. -1.
         -1   -1    0    0    0  501 -0.00000000000E+00 -0.00000000000E+00 -0.53596469415E+03  0.53596469418E+03  0.50400000000E-02 0.  1.
    8880023    1    1    2    0    0 -0.95665588740E+02 -0.53544403824E+03 -0.12465410992E+03  0.86325029762E+03  0.65864270000E+03 0.  0.
    8880022    1    1    2    0    0  0.95665588740E+02  0.53544403824E+03  0.18576837245E+04  0.19417087053E+04  0.15294330000E+03 0.  0.
<mgrwt>
<rscale>  0 0.77034642E+03</rscale>
<asrwt>0</asrwt>
<pdfrwt beam="1">  1        1 0.34907605E+00 0.85420280E+03</pdfrwt>
<pdfrwt beam="2">  1       -1 0.82456107E-01 0.85420280E+03</pdfrwt>
<totfact> 0.29658043E+00</totfact>
</mgrwt>
</event>
<event>
 4    1  0.2514307E-008  0.1137897E+04  0.7818608E-02  0.9219991E-01
          1   -1    0    0  501    0  0.00000000000E+00  0.00000000000E+00  0.14408059634E+04  0.14408059635E+04  0.50400000000E-02 0. -1.
         -1   -1    0    0    0  501 -0.00000000000E+00 -0.00000000000E+00 -0.83078116353E+03  0.83078116354E+03  0.50400000000E-02 0.  1.
    8880023    1    1    2    0    0 -0.83194259388E+03  0.41093912522E+03 -0.22706244327E+02  0.11381235539E+04  0.65864270000E+03 0. -1.
    8880022    1    1    2    0    0  0.83194259388E+03 -0.41093912522E+03  0.63273104424E+03  0.11334635731E+04  0.15294330000E+03 0.  0.
<mgrwt>
<rscale>  0 0.10849451E+04</rscale>
<asrwt>0</asrwt>
<pdfrwt beam="1">  1        1 0.22166246E+00 0.11378970E+04</pdfrwt>
<pdfrwt beam="2">  1       -1 0.12781249E+00 0.11378970E+04</pdfrwt>
<totfact> 0.37647108E+00</totfact>
</mgrwt>
</event>
<event>
 4    1  0.2514307E-008  0.7881432E+03  0.7818608E-02  0.9737045E-01
         -1   -1    0    0    0  501 -0.00000000000E+00  0.00000000000E+00  0.17306631508E+04  0.17306631509E+04  0.50400000000E-02 0.  1.
          1   -1    0    0  501    0  0.00000000000E+00 -0.00000000000E+00 -0.37141861014E+03  0.37141861017E+03  0.50400000000E-02 0. -1.
    8880023    1    1    2    0    0 -0.38728523658E+03 -0.19331217967E+03  0.14346205750E+04  0.16368585320E+04  0.65864270000E+03 0.  0.
    8880022    1    1    2    0    0  0.38728523658E+03  0.19331217967E+03 -0.75376034280E+02  0.46522322904E+03  0.15294330000E+03 0.  0.
<mgrwt>
<rscale>  0 0.68853349E+03</rscale>
<asrwt>0</asrwt>
<pdfrwt beam="1">  1        1 0.57141325E-01 0.78814317E+03</pdfrwt>
<pdfrwt beam="2">  1       -1 0.26625587E+00 0.78814317E+03</pdfrwt>
<totfact> 0.37535251E+00</totfact>
</mgrwt>
</event>
<event>
 4    1  0.2514307E-008  0.7662534E+03  0.7818608E-02  0.9789179E-01
          1   -1    0    0  501    0  0.00000000000E+00  0.00000000000E+00  0.42453499616E+04  0.42453499616E+04  0.50400000000E-02 0. -1.
         -1   -1    0    0    0  501 -0.00000000000E+00 -0.00000000000E+00 -0.33952236196E+03  0.33952236199E+03  0.50400000000E-02 0.  1.
    8880023    1    1    2    0    0  0.38658789806E+03  0.62320776098E+02  0.11978204140E+03  0.77555916974E+03  0.65864270000E+03 0.  1.
    8880022    1    1    2    0    0 -0.38658789806E+03 -0.62320776098E+02  0.37860455583E+04  0.38093131539E+04  0.15294330000E+03 0.  0.
<mgrwt>
<rscale>  0 0.65946506E+03</rscale>
<asrwt>0</asrwt>
<pdfrwt beam="1">  1        1 0.65313075E+00 0.76625341E+03</pdfrwt>
<pdfrwt beam="2">  1       -1 0.52234210E-01 0.76625341E+03</pdfrwt>
<totfact> 0.23724514E-01</totfact>
</mgrwt>
</event>
<event>
 4    1  0.2514307E-008  0.6657934E+03  0.7818608E-02  0.1018877E+00
          1   -1    0    0  501    0  0.00000000000E+00  0.00000000000E+00  0.76766862072E+03  0.76766862073E+03  0.50400000000E-02 0. -1.
         -1   -1    0    0    0  501 -0.00000000000E+00 -0.00000000000E+00 -0.67889610126E+03  0.67889610128E+03  0.50400000000E-02 0.  1.
    8880023    1    1    2    0    0  0.86840587130E+02 -0.43924465016E+02 -0.49863824459E+03  0.83181785953E+03  0.65864270000E+03 0.  1.
    8880022    1    1    2    0    0 -0.86840587130E+02  0.43924465016E+02  0.58741076405E+03  0.61474686248E+03  0.15294330000E+03 0.  0.
<mgrwt>
<rscale>  0 0.48094106E+03</rscale>
<asrwt>0</asrwt>
<pdfrwt beam="1">  1        1 0.11810287E+00 0.66579340E+03</pdfrwt>
<pdfrwt beam="2">  1       -1 0.10444555E+00 0.66579340E+03</pdfrwt>
<totfact> 0.21117777E+01</totfact>
</mgrwt>
</event>
<event>
 4    1  0.2514307E-008  0.1327418E+04  0.7818608E-02  0.9042237E-01
         -1   -1    0    0    0  501 -0.00000000000E+00  0.00000000000E+00  0.68753909030E+03  0.68753909032E+03  0.50400000000E-02 0.  1.
          1   -1    0    0  501    0  0.00000000000E+00 -0.00000000000E+00 -0.33718501498E+04  0.33718501498E+04  0.50400000000E-02 0. -1.
    8880023    1    1    2    0    0  0.96071137109E+03 -0.63660295380E+03 -0.23485783667E+03  0.13480348916E+04  0.65864270000E+03 0.  1.
    8880022    1    1    2    0    0 -0.96071137109E+03  0.63660295380E+03 -0.24494532229E+04  0.27113543485E+04  0.15294330000E+03 0.  0.
<mgrwt>
<rscale>  0 0.12841412E+04</rscale>
<asrwt>0</asrwt>
<pdfrwt beam="1">  1        1 0.51874617E+00 0.13274185E+04</pdfrwt>
<pdfrwt beam="2">  1       -1 0.10577525E+00 0.13274185E+04</pdfrwt>
<totfact> 0.25874404E-01</totfact>
</mgrwt>
</event>
<event>
 4    1  0.2514307E-008  0.9315810E+03  0.7818608E-02  0.9477125E-01
          1   -1    0    0  501    0  0.00000000000E+00  0.00000000000E+00  0.58812007734E+03  0.58812007736E+03  0.50400000000E-02 0. -1.
         -1   -1    0    0    0  501 -0.00000000000E+00 -0.00000000000E+00 -0.14230798443E+04  0.14230798444E+04  0.50400000000E-02 0.  1.
    8880023    1    1    2    0    0 -0.28446000213E+03  0.59423521242E+03 -0.94385018273E+03  0.13261584951E+04  0.65864270000E+03 0.  1.
    8880022    1    1    2    0    0  0.28446000213E+03 -0.59423521242E+03  0.10889041572E+03  0.68504142659E+03  0.15294330000E+03 0.  0.
<mgrwt>
<rscale>  0 0.85991478E+03</rscale>
<asrwt>0</asrwt>
<pdfrwt beam="1">  1        1 0.90480013E-01 0.93158101E+03</pdfrwt>
<pdfrwt beam="2">  1       -1 0.21893536E+00 0.93158101E+03</pdfrwt>
<totfact> 0.39973076E+00</totfact>
</mgrwt>
</event>
<event>
 4    1  0.2514307E-008  0.9821510E+03  0.7818608E-02  0.9405291E-01
          1   -1    0    0  501    0  0.00000000000E+00  0.00000000000E+00  0.14475431630E+04  0.14475431630E+04  0.50400000000E-02 0. -1.
         -1   -1    0    0    0  501 -0.00000000000E+00 -0.00000000000E+00 -0.12703258687E+04  0.12703258687E+04  0.50400000000E-02 0.  1.
    8880023    1    1    2    0    0 -0.53457640389E+03  0.49501367096E+03 -0.95038139131E+03  0.13666914287E+04  0.65864270000E+03 0.  1.
    8880022    1    1    2    0    0  0.53457640389E+03 -0.49501367096E+03  0.11275986856E+04  0.13511776030E+04  0.15294330000E+03 0.  0.
<mgrwt>
<rscale>  0 0.91641510E+03</rscale>
<asrwt>0</asrwt>
<pdfrwt beam="1">  1        1 0.22269895E+00 0.98215104E+03</pdfrwt>
<pdfrwt beam="2">  1       -1 0.19543475E+00 0.98215104E+03</pdfrwt>
<totfact> 0.11625433E+00</totfact>
</mgrwt>
</event>
<event>
 4    1  0.2514307E-008  0.8086416E+03  0.7818608E-02  0.9692413E-01
          1   -1    0    0  501    0  0.00000000000E+00  0.00000000000E+00  0.44675767873E+03  0.44675767876E+03  0.50400000000E-02 0. -1.
         -1   -1    0    0    0  501 -0.00000000000E+00 -0.00000000000E+00 -0.16994712323E+04  0.16994712323E+04  0.50400000000E-02 0.  1.
    8880023    1    1    2    0    0 -0.29280080752E+03  0.36654967554E+03 -0.14124748802E+04  0.16275707269E+04  0.65864270000E+03 0.  0.
    8880022    1    1    2    0    0  0.29280080752E+03 -0.36654967554E+03  0.15976132663E+03  0.51865818419E+03  0.15294330000E+03 0.  0.
<mgrwt>
<rscale>  0 0.71470290E+03</rscale>
<asrwt>0</asrwt>
<pdfrwt beam="1">  1        1 0.68731951E-01 0.80864157E+03</pdfrwt>
<pdfrwt beam="2">  1       -1 0.26145711E+00 0.80864157E+03</pdfrwt>
<totfact> 0.31415245E+00</totfact>
</mgrwt>
</event>
<event>
 4    1  0.2514307E-008  0.6900296E+03  0.7818608E-02  0.1004139E+00
         -1   -1    0    0    0  501 -0.00000000000E+00  0.00000000000E+00  0.25195913761E+04  0.25195913761E+04  0.50400000000E-02 0.  1.
          1   -1    0    0  501    0  0.00000000000E+00 -0.00000000000E+00 -0.17087950741E+04  0.17087950741E+04  0.50400000000E-02 0. -1.
    8880023    1    1    2    0    0  0.20073950720E+03  0.45102484920E+02  0.24622715609E+04  0.25571316019E+04  0.65864270000E+03 0.  1.
    8880022    1    1    2    0    0 -0.20073950720E+03 -0.45102484920E+02 -0.16514752589E+04  0.16712548482E+04  0.15294330000E+03 0.  0.
<mgrwt>
<rscale>  0 0.53872213E+03</rscale>
<asrwt>0</asrwt>
<pdfrwt beam="1">  1        1 0.26289155E+00 0.69002956E+03</pdfrwt>
<pdfrwt beam="2">  1       -1 0.38762944E+00 0.69002956E+03</pdfrwt>
<totfact> 0.45581951E-02</totfact>
</mgrwt>
</event>
<event>
 4    1  0.2514307E-008  0.7643490E+03  0.7818608E-02  0.9793976E-01
         -1   -1    0    0    0  501 -0.00000000000E+00  0.00000000000E+00  0.18063485426E+04  0.18063485426E+04  0.50400000000E-02 0.  1.
          1   -1    0    0  501    0  0.00000000000E+00 -0.00000000000E+00 -0.47321697732E+03  0.47321697735E+03  0.50400000000E-02 0. -1.
    8880023    1    1    2    0    0  0.37788787276E+03  0.87292543236E+02  0.16078506538E+04  0.17802845738E+04  0.65864270000E+03 0.  1.
    8880022    1    1    2    0    0 -0.37788787276E+03 -0.87292543236E+02 -0.27471908859E+03  0.49928094609E+03  0.15294330000E+03 0.  0.
<mgrwt>
<rscale>  0 0.65686846E+03</rscale>
<asrwt>0</asrwt>
<pdfrwt beam="1">  1        1 0.72802610E-01 0.76434903E+03</pdfrwt>
<pdfrwt beam="2">  1       -1 0.27789978E+00 0.76434903E+03</pdfrwt>
<totfact> 0.22954812E+00</totfact>
</mgrwt>
</event>
<event>
 4    1  0.2514307E-008  0.7165289E+03  0.7818608E-02  0.9934511E-01
         -1   -1    0    0    0  501 -0.00000000000E+00  0.00000000000E+00  0.46314766656E+03  0.46314766659E+03  0.50400000000E-02 0.  1.
          1   -1    0    0  501    0  0.00000000000E+00 -0.00000000000E+00 -0.94835937176E+03  0.94835937177E+03  0.50400000000E-02 0. -1.
    8880023    1    1    2    0    0  0.25190751440E+03  0.12706706770E+03  0.11996352951E+03  0.72650181705E+03  0.65864270000E+03 0.  1.
    8880022    1    1    2    0    0 -0.25190751440E+03 -0.12706706770E+03 -0.60517523471E+03  0.68500522131E+03  0.15294330000E+03 0.  0.
<mgrwt>
<rscale>  0 0.58617507E+03</rscale>
<asrwt>0</asrwt>
<pdfrwt beam="1">  1        1 0.14590144E+00 0.71652888E+03</pdfrwt>
<pdfrwt beam="2">  1       -1 0.71253487E-01 0.71652888E+03</pdfrwt>
<totfact> 0.34050571E+01</totfact>
</mgrwt>
</event>
<event>
 4    1  0.2558084E-008  0.1007216E+04  0.7818608E-02  0.9372177E-01
          1   -1    0    0  501    0  0.00000000000E+00  0.00000000000E+00  0.18531910754E+04  0.18531910754E+04  0.50400000000E-02 0. -1.
         -1   -1    0    0    0  501 -0.00000000000E+00 -0.00000000000E+00 -0.18430833976E+04  0.18430833976E+04  0.50400000000E-02 0.  1.
    8880023    1    1    2    0    0 -0.60027826328E+03 -0.46940354766E+03 -0.16101620596E+04  0.18992382021E+04  0.65864270000E+03 0.  1.
    8880022    1    1    2    0    0  0.60027826328E+03  0.46940354766E+03  0.16202697374E+04  0.17970362709E+04  0.15294330000E+03 0.  0.
<mgrwt>
<rscale>  0 0.94401180E+03</rscale>
<asrwt>0</asrwt>
<pdfrwt beam="1">  1        1 0.28510632E+00 0.10072159E+04</pdfrwt>
<pdfrwt beam="2">  1       -1 0.28355129E+00 0.10072159E+04</pdfrwt>
<totfact> 0.16097528E-01</totfact>
</mgrwt>
</event>
<event>
 4    1  0.2514307E-008  0.9579238E+03  0.7818608E-02  0.9438804E-01
          1   -1    0    0  501    0  0.00000000000E+00  0.00000000000E+00  0.10735667482E+04  0.10735667482E+04  0.50400000000E-02 0. -1.
         -1   -1    0    0    0  501 -0.00000000000E+00 -0.00000000000E+00 -0.27843070248E+04  0.27843070248E+04  0.50400000000E-02 0.  1.
    8880023    1    1    2    0    0 -0.35963759212E+03 -0.59537260135E+03 -0.25694851414E+04  0.27422384707E+04  0.65864270000E+03 0.  1.
    8880022    1    1    2    0    0  0.35963759212E+03  0.59537260135E+03  0.85874486473E+03  0.11156353023E+04  0.15294330000E+03 0.  0.
<mgrwt>
<rscale>  0 0.88949918E+03</rscale>
<asrwt>0</asrwt>
<pdfrwt beam="1">  1        1 0.16516412E+00 0.95792376E+03</pdfrwt>
<pdfrwt beam="2">  1       -1 0.42835493E+00 0.95792376E+03</pdfrwt>
<totfact> 0.62795523E-02</totfact>
</mgrwt>
</event>
<event>
 4    1  0.2514307E-008  0.1350352E+04  0.7818608E-02  0.9023253E-01
         -1   -1    0    0    0  501 -0.00000000000E+00  0.00000000000E+00  0.18887206721E+04  0.18887206721E+04  0.50400000000E-02 0.  1.
          1   -1    0    0  501    0  0.00000000000E+00 -0.00000000000E+00 -0.96272707523E+03  0.96272707524E+03  0.50400000000E-02 0. -1.
    8880023    1    1    2    0    0 -0.10419595459E+04  0.55132709702E+03  0.96885259382E+03  0.16619647463E+04  0.65864270000E+03 0.  1.
    8880022    1    1    2    0    0  0.10419595459E+04 -0.55132709702E+03 -0.42858996933E+02  0.11894830011E+04  0.15294330000E+03 0.  0.
<mgrwt>
<rscale>  0 0.13079898E+04</rscale>
<asrwt>0</asrwt>
<pdfrwt beam="1">  1        1 0.14811186E+00 0.13503524E+04</pdfrwt>
<pdfrwt beam="2">  1       -1 0.29057241E+00 0.13503524E+04</pdfrwt>
<totfact> 0.59543152E-01</totfact>
</mgrwt>
</event>
<event>
 4    1  0.2514307E-008  0.8954498E+03  0.7818608E-02  0.9533376E-01
         -1   -1    0    0    0  501 -0.00000000000E+00  0.00000000000E+00  0.85286409217E+03  0.85286409219E+03  0.50400000000E-02 0.  1.
          1   -1    0    0  501    0  0.00000000000E+00 -0.00000000000E+00 -0.15077991102E+04  0.15077991102E+04  0.50400000000E-02 0. -1.
    8880023    1    1    2    0    0 -0.59118427440E+03 -0.13609308479E+03  0.51570206609E+03  0.10333339253E+04  0.65864270000E+03 0.  1.
    8880022    1    1    2    0    0  0.59118427440E+03  0.13609308479E+03 -0.11706370841E+04  0.13273292771E+04  0.15294330000E+03 0.  0.
<mgrwt>
<rscale>  0 0.81867246E+03</rscale>
<asrwt>0</asrwt>
<pdfrwt beam="1">  1        1 0.23196909E+00 0.89544982E+03</pdfrwt>
<pdfrwt beam="2">  1       -1 0.13120986E+00 0.89544982E+03</pdfrwt>
<totfact> 0.32647007E+00</totfact>
</mgrwt>
</event>
<event>
 4    1  0.2514307E-008  0.8146188E+03  0.7818608E-02  0.9680035E-01
         -1   -1    0    0    0  501 -0.00000000000E+00  0.00000000000E+00  0.50694770249E+03  0.50694770252E+03  0.50400000000E-02 0.  1.
          1   -1    0    0  501    0  0.00000000000E+00 -0.00000000000E+00 -0.21773643559E+04  0.21773643559E+04  0.50400000000E-02 0. -1.
    8880023    1    1    2    0    0 -0.32187506895E+03 -0.35523227924E+03  0.12101300961E+03  0.82355806534E+03  0.65864270000E+03 0.  1.
    8880022    1    1    2    0    0  0.32187506895E+03  0.35523227924E+03 -0.17914296630E+04  0.18607539931E+04  0.15294330000E+03 0.  0.
<mgrwt>
<rscale>  0 0.72218023E+03</rscale>
<asrwt>0</asrwt>
<pdfrwt beam="1">  1        1 0.33497913E+00 0.81461877E+03</pdfrwt>
<pdfrwt beam="2">  1       -1 0.77991955E-01 0.81461877E+03</pdfrwt>
<totfact> 0.38745285E+00</totfact>
</mgrwt>
</event>
<event>
 4    1  0.2514307E-008  0.1333397E+04  0.7818608E-02  0.9037243E-01
         -1   -1    0    0    0  501 -0.00000000000E+00  0.00000000000E+00  0.64964576471E+03  0.64964576473E+03  0.50400000000E-02 0.  1.
          1   -1    0    0  501    0  0.00000000000E+00 -0.00000000000E+00 -0.43918696878E+04  0.43918696879E+04  0.50400000000E-02 0. -1.
    8880023    1    1    2    0    0 -0.10901979338E+04 -0.39446986251E+03 -0.24730052331E+03  0.13561363362E+04  0.65864270000E+03 0.  0.
    8880022    1    1    2    0    0  0.10901979338E+04  0.39446986251E+03 -0.34949233998E+04  0.36853791163E+04  0.15294330000E+03 0.  0.
<mgrwt>
<rscale>  0 0.12903626E+04</rscale>
<asrwt>0</asrwt>
<pdfrwt beam="1">  1        1 0.67567224E+00 0.13333972E+04</pdfrwt>
<pdfrwt beam="2">  1       -1 0.99945505E-01 0.13333972E+04</pdfrwt>
<totfact> 0.39592423E-02</totfact>
</mgrwt>
</event>
<event>
 4    1  0.2514307E-008  0.7795618E+03  0.7818608E-02  0.9756867E-01
          1   -1    0    0  501    0  0.00000000000E+00  0.00000000000E+00  0.26085289988E+04  0.26085289988E+04  0.50400000000E-02 0. -1.
         -1   -1    0    0    0  501 -0.00000000000E+00 -0.00000000000E+00 -0.24621062523E+03  0.24621062528E+03  0.50400000000E-02 0.  1.
    8880023    1    1    2    0    0  0.29737265886E+03 -0.29236257888E+03  0.46845997583E+03  0.90948959916E+03  0.65864270000E+03 0.  1.
    8880022    1    1    2    0    0 -0.29737265886E+03  0.29236257888E+03  0.18938583977E+04  0.19452500249E+04  0.15294330000E+03 0.  0.
<mgrwt>
<rscale>  0 0.67729559E+03</rscale>
<asrwt>0</asrwt>
<pdfrwt beam="1">  1        1 0.40131214E+00 0.77956179E+03</pdfrwt>
<pdfrwt beam="2">  1       -1 0.37878559E-01 0.77956179E+03</pdfrwt>
<totfact> 0.80532621E+00</totfact>
</mgrwt>
</event>
<event>
 4    1  0.2514307E-008  0.1216382E+04  0.7818608E-02  0.9141360E-01
          1   -1    0    0  501    0  0.00000000000E+00  0.00000000000E+00  0.11613327252E+04  0.11613327252E+04  0.50400000000E-02 0. -1.
         -1   -1    0    0    0  501 -0.00000000000E+00 -0.00000000000E+00 -0.13182784379E+04  0.13182784379E+04  0.50400000000E-02 0.  1.
    8880023    1    1    2    0    0  0.10222299590E+04 -0.28670490445E+02  0.43058214334E+03  0.12903438590E+04  0.65864270000E+03 0.  0.
    8880022    1    1    2    0    0 -0.10222299590E+04  0.28670490445E+02 -0.58752785602E+03  0.11892673041E+04  0.15294330000E+03 0.  0.
<mgrwt>
<rscale>  0 0.11679745E+04</rscale>
<asrwt>0</asrwt>
<pdfrwt beam="1">  1        1 0.17866657E+00 0.12163825E+04</pdfrwt>
<pdfrwt beam="2">  1       -1 0.20281207E+00 0.12163825E+04</pdfrwt>
<totfact> 0.16069322E+00</totfact>
</mgrwt>
</event>
<event>
 4    1  0.2514307E-008  0.9890477E+03  0.7818608E-02  0.9396029E-01
         -1   -1    0    0    0  501 -0.00000000000E+00  0.00000000000E+00  0.99173710022E+03  0.99173710023E+03  0.50400000000E-02 0.  1.
          1   -1    0    0  501    0  0.00000000000E+00 -0.00000000000E+00 -0.98457968727E+03  0.98457968728E+03  0.50400000000E-02 0. -1.
    8880023    1    1    2    0    0  0.31672253809E+03 -0.66640221727E+03  0.46679672275E+03  0.10936701824E+04  0.65864270000E+03 0.  1.
    8880022    1    1    2    0    0 -0.31672253809E+03  0.66640221727E+03 -0.45963930980E+03  0.88264660508E+03  0.15294330000E+03 0.  0.
<mgrwt>
<rscale>  0 0.92403204E+03</rscale>
<asrwt>0</asrwt>
<pdfrwt beam="1">  1        1 0.15147380E+00 0.98904767E+03</pdfrwt>
<pdfrwt beam="2">  1       -1 0.15257494E+00 0.98904767E+03</pdfrwt>
<totfact> 0.52037807E+00</totfact>
</mgrwt>
</event>
<event>
 4    1  0.2514307E-008  0.7073585E+03  0.7818608E-02  0.9967944E-01
         -1   -1    0    0    0  501 -0.00000000000E+00  0.00000000000E+00  0.17720899780E+04  0.17720899780E+04  0.50400000000E-02 0.  1.
          1   -1    0    0  501    0  0.00000000000E+00 -0.00000000000E+00 -0.74753469977E+03  0.74753469979E+03  0.50400000000E-02 0. -1.
    8880023    1    1    2    0    0  0.56688263743E+02  0.25165902141E+03  0.16668696806E+04  0.18107486189E+04  0.65864270000E+03 0.  1.
    8880022    1    1    2    0    0 -0.56688263743E+02 -0.25165902141E+03 -0.64231440242E+03  0.70887605890E+03  0.15294330000E+03 0.  0.
<mgrwt>
<rscale>  0 0.57078462E+03</rscale>
<asrwt>0</asrwt>
<pdfrwt beam="1">  1        1 0.11500534E+00 0.70735849E+03</pdfrwt>
<pdfrwt beam="2">  1       -1 0.27262923E+00 0.70735849E+03</pdfrwt>
<totfact> 0.12967617E+00</totfact>
</mgrwt>
</event>
<event>
 4    1  0.2514307E-008  0.7826539E+03  0.7818608E-02  0.9749639E-01
          1   -1    0    0  501    0  0.00000000000E+00  0.00000000000E+00  0.92680323256E+03  0.92680323257E+03  0.50400000000E-02 0. -1.
         -1   -1    0    0    0  501 -0.00000000000E+00 -0.00000000000E+00 -0.12035518734E+04  0.12035518735E+04  0.50400000000E-02 0.  1.
    8880023    1    1    2    0    0  0.37491446472E+03 -0.19538699209E+03 -0.10054287855E+04  0.12741405659E+04  0.65864270000E+03 0.  1.
    8880022    1    1    2    0    0 -0.37491446472E+03  0.19538699209E+03  0.72868014466E+03  0.85621454016E+03  0.15294330000E+03 0.  0.
<mgrwt>
<rscale>  0 0.68136651E+03</rscale>
<asrwt>0</asrwt>
<pdfrwt beam="1">  1        1 0.14258511E+00 0.78265391E+03</pdfrwt>
<pdfrwt beam="2">  1       -1 0.18516183E+00 0.78265391E+03</pdfrwt>
<totfact> 0.34193809E+00</totfact>
</mgrwt>
</event>
<event>
 4    1  0.2514307E-008  0.1381746E+04  0.7818608E-02  0.8997998E-01
          1   -1    0    0  501    0  0.00000000000E+00  0.00000000000E+00  0.34866796953E+04  0.34866796953E+04  0.50400000000E-02 0. -1.
         -1   -1    0    0    0  501 -0.00000000000E+00 -0.00000000000E+00 -0.81639674944E+03  0.81639674946E+03  0.50400000000E-02 0.  1.
    8880023    1    1    2    0    0 -0.10511401320E+04 -0.60869998444E+03  0.17984690710E+02  0.13818628382E+04  0.65864270000E+03 0.  0.
    8880022    1    1    2    0    0  0.10511401320E+04  0.60869998444E+03  0.26522982551E+04  0.29212136066E+04  0.15294330000E+03 0.  0.
<mgrwt>
<rscale>  0 0.13405690E+04</rscale>
<asrwt>0</asrwt>
<pdfrwt beam="1">  1        1 0.53641225E+00 0.13817458E+04</pdfrwt>
<pdfrwt beam="2">  1       -1 0.12559950E+00 0.13817458E+04</pdfrwt>
<totfact> 0.13798109E-01</totfact>
</mgrwt>
</event>
<event>
 4    1  0.2514307E-008  0.7901067E+03  0.7818608E-02  0.9732610E-01
          1   -1    0    0  501    0  0.00000000000E+00  0.00000000000E+00  0.17877492249E+04  0.17877492249E+04  0.50400000000E-02 0. -1.
         -1   -1    0    0    0  501 -0.00000000000E+00 -0.00000000000E+00 -0.34042629520E+03  0.34042629523E+03  0.50400000000E-02 0.  1.
    8880023    1    1    2    0    0  0.21717382836E+03  0.37854176997E+03  0.22533111881E+03  0.82160979954E+03  0.65864270000E+03 0.  1.
    8880022    1    1    2    0    0 -0.21717382836E+03 -0.37854176997E+03  0.12219918109E+04  0.13065657206E+04  0.15294330000E+03 0.  0.
<mgrwt>
<rscale>  0 0.69107941E+03</rscale>
<asrwt>0</asrwt>
<pdfrwt beam="1">  1        1 0.27503834E+00 0.79010667E+03</pdfrwt>
<pdfrwt beam="2">  1       -1 0.52373276E-01 0.79010667E+03</pdfrwt>
<totfact> 0.15771516E+01</totfact>
</mgrwt>
</event>
<event>
 4    1  0.2514307E-008  0.1306105E+04  0.7818608E-02  0.9060306E-01
         -1   -1    0    0    0  501 -0.00000000000E+00  0.00000000000E+00  0.19132510913E+04  0.19132510913E+04  0.50400000000E-02 0.  1.
          1   -1    0    0  501    0  0.00000000000E+00 -0.00000000000E+00 -0.15674424974E+04  0.15674424974E+04  0.50400000000E-02 0. -1.
    8880023    1    1    2    0    0 -0.10782551322E+04  0.33085664190E+03  0.14103601025E+04  0.19222450605E+04  0.65864270000E+03 0.  1.
    8880022    1    1    2    0    0  0.10782551322E+04 -0.33085664190E+03 -0.10645515085E+04  0.15584485282E+04  0.15294330000E+03 0.  0.
<mgrwt>
<rscale>  0 0.12619377E+04</rscale>
<asrwt>0</asrwt>
<pdfrwt beam="1">  1        1 0.24114500E+00 0.13061051E+04</pdfrwt>
<pdfrwt beam="2">  1       -1 0.29434632E+00 0.13061051E+04</pdfrwt>
<totfact> 0.20454533E-01</totfact>
</mgrwt>
</event>
<event>
 4    1  0.2514307E-008  0.8593656E+03  0.7818608E-02  0.9594693E-01
          1   -1    0    0  501    0  0.00000000000E+00  0.00000000000E+00  0.26140916554E+04  0.26140916554E+04  0.50400000000E-02 0. -1.
         -1   -1    0    0    0  501 -0.00000000000E+00 -0.00000000000E+00 -0.81475558234E+03  0.81475558235E+03  0.50400000000E-02 0.  1.
    8880023    1    1    2    0    0  0.48028259558E+02  0.54990208527E+03 -0.54363142170E+03  0.10168797107E+04  0.65864270000E+03 0.  0.
    8880022    1    1    2    0    0 -0.48028259558E+02 -0.54990208527E+03  0.23429674948E+04  0.24119675271E+04  0.15294330000E+03 0.  0.
<mgrwt>
<rscale>  0 0.77648435E+03</rscale>
<asrwt>0</asrwt>
<pdfrwt beam="1">  1        1 0.40216794E+00 0.85936559E+03</pdfrwt>
<pdfrwt beam="2">  1       -1 0.12534701E+00 0.85936559E+03</pdfrwt>
<totfact> 0.65639481E-01</totfact>
</mgrwt>
</event>
<event>
 4    1  0.2514307E-008  0.9013048E+03  0.7818608E-02  0.9523940E-01
          1   -1    0    0  501    0  0.00000000000E+00  0.00000000000E+00  0.27265031552E+04  0.27265031552E+04  0.50400000000E-02 0. -1.
         -1   -1    0    0    0  501 -0.00000000000E+00 -0.00000000000E+00 -0.11312020592E+04  0.11312020592E+04  0.50400000000E-02 0.  1.
    8880023    1    1    2    0    0  0.42687302199E+03 -0.44307955668E+03 -0.90561169521E+03  0.12776865105E+04  0.65864270000E+03 0.  0.
    8880022    1    1    2    0    0 -0.42687302199E+03  0.44307955668E+03  0.25009127912E+04  0.25800187039E+04  0.15294330000E+03 0.  0.
<mgrwt>
<rscale>  0 0.82541581E+03</rscale>
<asrwt>0</asrwt>
<pdfrwt beam="1">  1        1 0.41946202E+00 0.90130476E+03</pdfrwt>
<pdfrwt beam="2">  1       -1 0.17403109E+00 0.90130476E+03</pdfrwt>
<totfact> 0.22550049E-01</totfact>
</mgrwt>
</event>
<event>
 4    1  0.2514307E-008  0.7093158E+03  0.7818608E-02  0.9960550E-01
         -1   -1    0    0    0  501 -0.00000000000E+00  0.00000000000E+00  0.45510788357E+03  0.45510788360E+03  0.50400000000E-02 0.  1.
          1   -1    0    0  501    0  0.00000000000E+00 -0.00000000000E+00 -0.12441625965E+04  0.12441625965E+04  0.50400000000E-02 0. -1.
    8880023    1    1    2    0    0 -0.16041033258E+03 -0.20877551991E+03  0.13876922802E+03  0.72276261485E+03  0.65864270000E+03 0.  1.
    8880022    1    1    2    0    0  0.16041033258E+03  0.20877551991E+03 -0.92782394090E+03  0.97650786522E+03  0.15294330000E+03 0.  0.
<mgrwt>
<rscale>  0 0.57414389E+03</rscale>
<asrwt>0</asrwt>
<pdfrwt beam="1">  1        1 0.19140963E+00 0.70931580E+03</pdfrwt>
<pdfrwt beam="2">  1       -1 0.70016598E-01 0.70931580E+03</pdfrwt>
<totfact> 0.21214744E+01</totfact>
</mgrwt>
</event>
<event>
 4    1  0.2878856E-008  0.2037850E+04  0.7818608E-02  0.8601256E-01
         -1   -1    0    0    0  501 -0.00000000000E+00  0.00000000000E+00  0.32802683286E+04  0.32802683286E+04  0.50400000000E-02 0.  1.
          1   -1    0    0  501    0  0.00000000000E+00 -0.00000000000E+00 -0.22154704011E+04  0.22154704011E+04  0.50400000000E-02 0. -1.
    8880023    1    1    2    0    0 -0.58201388025E+03  0.18385542703E+04  0.23975213492E+04  0.31465760420E+04  0.65864270000E+03 0.  0.
    8880022    1    1    2    0    0  0.58201388025E+03 -0.18385542703E+04 -0.13327234216E+04  0.23491626877E+04  0.15294330000E+03 0.  0.
<mgrwt>
<rscale>  0 0.20115143E+04</rscale>
<asrwt>0</asrwt>
<pdfrwt beam="1">  1        1 0.34084160E+00 0.20378499E+04</pdfrwt>
<pdfrwt beam="2">  1       -1 0.50465667E+00 0.20378499E+04</pdfrwt>
<totfact> 0.25773697E-03</totfact>
</mgrwt>
</event>
<event>
 4    1  0.2514307E-008  0.1075581E+04  0.7818608E-02  0.9288744E-01
          1   -1    0    0  501    0  0.00000000000E+00  0.00000000000E+00  0.12093494625E+04  0.12093494625E+04  0.50400000000E-02 0. -1.
         -1   -1    0    0    0  501 -0.00000000000E+00 -0.00000000000E+00 -0.14606245269E+04  0.14606245269E+04  0.50400000000E-02 0.  1.
    8880023    1    1    2    0    0 -0.78053467042E+03 -0.33738617475E+03 -0.10428994583E+04  0.14981699800E+04  0.65864270000E+03 0.  0.
    8880022    1    1    2    0    0  0.78053467042E+03  0.33738617475E+03  0.79162439382E+03  0.11718040094E+04  0.15294330000E+03 0.  0.
<mgrwt>
<rscale>  0 0.10182578E+04</rscale>
<asrwt>0</asrwt>
<pdfrwt beam="1">  1        1 0.18605376E+00 0.10755808E+04</pdfrwt>
<pdfrwt beam="2">  1       -1 0.22471146E+00 0.10755808E+04</pdfrwt>
<totfact> 0.10724436E+00</totfact>
</mgrwt>
</event>
<event>
 4    1  0.2514307E-008  0.7162100E+03  0.7818608E-02  0.9935625E-01
          1   -1    0    0  501    0  0.00000000000E+00  0.00000000000E+00  0.23325934015E+03  0.23325934020E+03  0.50400000000E-02 0. -1.
         -1   -1    0    0    0  501 -0.00000000000E+00 -0.00000000000E+00 -0.19055584254E+04  0.19055584254E+04  0.50400000000E-02 0.  1.
    8880023    1    1    2    0    0  0.27117405748E+03 -0.74907858368E+02 -0.16716319955E+04  0.18186011909E+04  0.65864270000E+03 0.  1.
    8880022    1    1    2    0    0 -0.27117405748E+03  0.74907858368E+02 -0.66708968947E+00  0.32021657471E+03  0.15294330000E+03 0.  0.
<mgrwt>
<rscale>  0 0.58565385E+03</rscale>
<asrwt>0</asrwt>
<pdfrwt beam="1">  1        1 0.35886054E-01 0.71621000E+03</pdfrwt>
<pdfrwt beam="2">  1       -1 0.29316282E+00 0.71621000E+03</pdfrwt>
<totfact> 0.46725513E+00</totfact>
</mgrwt>
</event>
<event>
 4    1  0.2514307E-008  0.1043816E+04  0.7818608E-02  0.9326353E-01
         -1   -1    0    0    0  501 -0.00000000000E+00  0.00000000000E+00  0.81119275951E+03  0.81119275953E+03  0.50400000000E-02 0.  1.
          1   -1    0    0  501    0  0.00000000000E+00 -0.00000000000E+00 -0.20336721499E+04  0.20336721500E+04  0.50400000000E-02 0. -1.
    8880023    1    1    2    0    0 -0.80441711839E+03 -0.93030105818E+02  0.32363528058E+03  0.10928364480E+04  0.65864270000E+03 0.  1.
    8880022    1    1    2    0    0  0.80441711839E+03  0.93030105818E+02 -0.15461146710E+04  0.17520284615E+04  0.15294330000E+03 0.  0.
<mgrwt>
<rscale>  0 0.98392571E+03</rscale>
<asrwt>0</asrwt>
<pdfrwt beam="1">  1        1 0.31287264E+00 0.10438159E+04</pdfrwt>
<pdfrwt beam="2">  1       -1 0.12479889E+00 0.10438159E+04</pdfrwt>
<totfact> 0.15963249E+00</totfact>
</mgrwt>
</event>
<event>
 4    1  0.2514307E-008  0.7697502E+03  0.7818608E-02  0.9780489E-01
         -1   -1    0    0    0  501 -0.00000000000E+00  0.00000000000E+00  0.71636501415E+03  0.71636501417E+03  0.50400000000E-02 0.  1.
          1   -1    0    0  501    0  0.00000000000E+00 -0.00000000000E+00 -0.16543677619E+04  0.16543677619E+04  0.50400000000E-02 0. -1.
    8880023    1    1    2    0    0  0.32971185496E+03 -0.22359635714E+03  0.46836879024E+03  0.90104648502E+03  0.65864270000E+03 0.  1.
    8880022    1    1    2    0    0 -0.32971185496E+03  0.22359635714E+03 -0.14063715380E+04  0.14696862911E+04  0.15294330000E+03 0.  0.
<mgrwt>
<rscale>  0 0.66420202E+03</rscale>
<asrwt>0</asrwt>
<pdfrwt beam="1">  1        1 0.25451812E+00 0.76975025E+03</pdfrwt>
<pdfrwt beam="2">  1       -1 0.11021000E+00 0.76975025E+03</pdfrwt>
<totfact> 0.40529628E+00</totfact>
</mgrwt>
</event>
<event>
 4    1  0.2514307E-008  0.1091453E+04  0.7818608E-02  0.9270633E-01
          1   -1    0    0  501    0  0.00000000000E+00  0.00000000000E+00  0.33762503238E+04  0.33762503238E+04  0.50400000000E-02 0. -1.
         -1   -1    0    0    0  501 -0.00000000000E+00 -0.00000000000E+00 -0.46217118303E+03  0.46217118306E+03  0.50400000000E-02 0.  1.
    8880023    1    1    2    0    0  0.62860415146E+03  0.60192626776E+03  0.38165898091E+03  0.11562578411E+04  0.65864270000E+03 0.  1.
    8880022    1    1    2    0    0 -0.62860415146E+03 -0.60192626776E+03  0.25324201599E+04  0.26821636658E+04  0.15294330000E+03 0.  0.
<mgrwt>
<rscale>  0 0.10353200E+04</rscale>
<asrwt>0</asrwt>
<pdfrwt beam="1">  1        1 0.51942315E+00 0.10914525E+04</pdfrwt>
<pdfrwt beam="2">  1       -1 0.71103255E-01 0.10914525E+04</pdfrwt>
<totfact> 0.63676274E-01</totfact>
</mgrwt>
</event>
<event>
 4    1  0.2514307E-008  0.1203122E+04  0.7818608E-02  0.9154093E-01
         -1   -1    0    0    0  501 -0.00000000000E+00  0.00000000000E+00  0.43027174380E+03  0.43027174383E+03  0.50400000000E-02 0.  1.
          1   -1    0    0  501    0  0.00000000000E+00 -0.00000000000E+00 -0.40998549441E+04  0.40998549441E+04  0.50400000000E-02 0. -1.
    8880023    1    1    2    0    0 -0.39652076920E+03  0.92545379295E+03 -0.70263247701E+03  0.13932681175E+04  0.65864270000E+03 0.  0.
    8880022    1    1    2    0    0  0.39652076920E+03 -0.92545379295E+03 -0.29669507233E+04  0.31368585704E+04  0.15294330000E+03 0.  0.
<mgrwt>
<rscale>  0 0.11540089E+04</rscale>
<asrwt>0</asrwt>
<pdfrwt beam="1">  1        1 0.63074689E+00 0.12031225E+04</pdfrwt>
<pdfrwt beam="2">  1       -1 0.66195656E-01 0.12031225E+04</pdfrwt>
<totfact> 0.18439230E-01</totfact>
</mgrwt>
</event>
<event>
 4    1  0.2514307E-008  0.1304164E+04  0.7818608E-02  0.9061972E-01
          1   -1    0    0  501    0  0.00000000000E+00  0.00000000000E+00  0.18439149368E+04  0.18439149368E+04  0.50400000000E-02 0. -1.
         -1   -1    0    0    0  501 -0.00000000000E+00 -0.00000000000E+00 -0.17900638580E+04  0.17900638580E+04  0.50400000000E-02 0.  1.
    8880023    1    1    2    0    0 -0.10353341302E+04 -0.44172077762E+03 -0.13171081829E+04  0.18535420628E+04  0.65864270000E+03 0.  1.
    8880022    1    1    2    0    0  0.10353341302E+04  0.44172077762E+03  0.13709592617E+04  0.17804367320E+04  0.15294330000E+03 0.  0.
<mgrwt>
<rscale>  0 0.12599138E+04</rscale>
<asrwt>0</asrwt>
<pdfrwt beam="1">  1        1 0.28367922E+00 0.13041642E+04</pdfrwt>
<pdfrwt beam="2">  1       -1 0.27539444E+00 0.13041642E+04</pdfrwt>
<totfact> 0.17556097E-01</totfact>
</mgrwt>
</event>
<event>
 4    1  0.2514307E-008  0.7925159E+03  0.7818608E-02  0.9727218E-01
         -1   -1    0    0    0  501 -0.00000000000E+00  0.00000000000E+00  0.43772933269E+03  0.43772933272E+03  0.50400000000E-02 0.  1.
          1   -1    0    0  501    0  0.00000000000E+00 -0.00000000000E+00 -0.35030046887E+04  0.35030046887E+04  0.50400000000E-02 0. -1.
    8880023    1    1    2    0    0 -0.24854281854E+03  0.36400232650E+03  0.46786415128E+02  0.79389571182E+03  0.65864270000E+03 0.  1.
    8880022    1    1    2    0    0  0.24854281854E+03 -0.36400232650E+03 -0.31120617712E+04  0.31468383096E+04  0.15294330000E+03 0.  0.
<mgrwt>
<rscale>  0 0.69419108E+03</rscale>
<asrwt>0</asrwt>
<pdfrwt beam="1">  1        1 0.53892378E+00 0.79251589E+03</pdfrwt>
<pdfrwt beam="2">  1       -1 0.67342977E-01 0.79251589E+03</pdfrwt>
<totfact> 0.60167363E-01</totfact>
</mgrwt>
</event>
<event>
 4    1  0.2514307E-008  0.9392571E+03  0.7818608E-02  0.9465742E-01
          1   -1    0    0  501    0  0.00000000000E+00  0.00000000000E+00  0.18693840834E+04  0.18693840834E+04  0.50400000000E-02 0. -1.
         -1   -1    0    0    0  501 -0.00000000000E+00 -0.00000000000E+00 -0.95355174364E+03  0.95355174365E+03  0.50400000000E-02 0.  1.
    8880023    1    1    2    0    0 -0.38511959788E+03  0.54779248781E+03 -0.63027108931E+03  0.11311257961E+04  0.65864270000E+03 0.  1.
    8880022    1    1    2    0    0  0.38511959788E+03 -0.54779248781E+03  0.15461034291E+04  0.16918100309E+04  0.15294330000E+03 0.  0.
<mgrwt>
<rscale>  0 0.86857320E+03</rscale>
<asrwt>0</asrwt>
<pdfrwt beam="1">  1        1 0.28759755E+00 0.93925711E+03</pdfrwt>
<pdfrwt beam="2">  1       -1 0.14670027E+00 0.93925711E+03</pdfrwt>
<totfact> 0.13793945E+00</totfact>
</mgrwt>
</event>
<event>
 4    1  0.2514307E-008  0.9279564E+03  0.7818608E-02  0.9482566E-01
          1   -1    0    0  501    0  0.00000000000E+00  0.00000000000E+00  0.16098306766E+04  0.16098306766E+04  0.50400000000E-02 0. -1.
         -1   -1    0    0    0  501 -0.00000000000E+00 -0.00000000000E+00 -0.64401022101E+03  0.64401022103E+03  0.50400000000E-02 0.  1.
    8880023    1    1    2    0    0  0.55567778061E+03  0.34426029935E+03 -0.16136660215E+03  0.94188233667E+03  0.65864270000E+03 0.  1.
    8880022    1    1    2    0    0 -0.55567778061E+03 -0.34426029935E+03  0.11271870578E+04  0.13119585610E+04  0.15294330000E+03 0.  0.
<mgrwt>
<rscale>  0 0.85581478E+03</rscale>
<asrwt>0</asrwt>
<pdfrwt beam="1">  1        1 0.24766625E+00 0.92795644E+03</pdfrwt>
<pdfrwt beam="2">  1       -1 0.99078497E-01 0.92795644E+03</pdfrwt>
<totfact> 0.54336133E+00</totfact>
</mgrwt>
</event>
<event>
 4    1  0.2514307E-008  0.6807557E+03  0.7818608E-02  0.1008899E+00
          1   -1    0    0  501    0  0.00000000000E+00  0.00000000000E+00  0.22221667378E+04  0.22221667379E+04  0.50400000000E-02 0. -1.
         -1   -1    0    0    0  501 -0.00000000000E+00 -0.00000000000E+00 -0.66574943697E+03  0.66574943699E+03  0.50400000000E-02 0.  1.
    8880023    1    1    2    0    0 -0.86747783429E+02 -0.14863685757E+03 -0.48353911681E+03  0.83500801021E+03  0.65864270000E+03 0.  1.
    8880022    1    1    2    0    0  0.86747783429E+02  0.14863685757E+03  0.20399564177E+04  0.20529081646E+04  0.15294330000E+03 0.  0.
<mgrwt>
<rscale>  0 0.51914410E+03</rscale>
<asrwt>0</asrwt>
<pdfrwt beam="1">  1        1 0.34187180E+00 0.68075568E+03</pdfrwt>
<pdfrwt beam="2">  1       -1 0.10242299E+00 0.68075568E+03</pdfrwt>
<totfact> 0.20384328E+00</totfact>
</mgrwt>
</event>
<event>
 4    1  0.2514307E-008  0.1434360E+04  0.7818608E-02  0.8957434E-01
         -1   -1    0    0    0  501 -0.00000000000E+00  0.00000000000E+00  0.10969104278E+04  0.10969104278E+04  0.50400000000E-02 0.  1.
          1   -1    0    0  501    0  0.00000000000E+00 -0.00000000000E+00 -0.18915824711E+04  0.18915824711E+04  0.50400000000E-02 0. -1.
    8880023    1    1    2    0    0 -0.56245768077E+03 -0.11433371562E+04  0.78114752538E+02  0.14364855086E+04  0.65864270000E+03 0.  0.
    8880022    1    1    2    0    0  0.56245768077E+03  0.11433371562E+04 -0.87278679588E+03  0.15520073903E+04  0.15294330000E+03 0.  0.
<mgrwt>
<rscale>  0 0.13950165E+04</rscale>
<asrwt>0</asrwt>
<pdfrwt beam="1">  1        1 0.29101269E+00 0.14343600E+04</pdfrwt>
<pdfrwt beam="2">  1       -1 0.16875545E+00 0.14343600E+04</pdfrwt>
<totfact> 0.84710021E-01</totfact>
</mgrwt>
</event>
<event>
 4    1  0.2514307E-008  0.8176522E+03  0.7818608E-02  0.9673853E-01
         -1   -1    0    0    0  501 -0.00000000000E+00  0.00000000000E+00  0.61042116503E+03  0.61042116505E+03  0.50400000000E-02 0.  1.
          1   -1    0    0  501    0  0.00000000000E+00 -0.00000000000E+00 -0.18572235660E+04  0.18572235660E+04  0.50400000000E-02 0. -1.
    8880023    1    1    2    0    0  0.29817193668E+02  0.48358645793E+03 -0.16351264237E+04  0.18281667197E+04  0.65864270000E+03 0.  0.
    8880022    1    1    2    0    0 -0.29817193668E+02 -0.48358645793E+03  0.38832402273E+03  0.63947801133E+03  0.15294330000E+03 0.  0.
<mgrwt>
<rscale>  0 0.72595158E+03</rscale>
<asrwt>0</asrwt>
<pdfrwt beam="1">  1        1 0.28572670E+00 0.81765221E+03</pdfrwt>
<pdfrwt beam="2">  1       -1 0.93910949E-01 0.81765221E+03</pdfrwt>
<totfact> 0.42420801E+00</totfact>
</mgrwt>
</event>
<event>
 4    1  0.2514307E-008  0.8422503E+03  0.7818608E-02  0.9625952E-01
          1   -1    0    0  501    0  0.00000000000E+00  0.00000000000E+00  0.13547412050E+04  0.13547412050E+04  0.50400000000E-02 0. -1.
         -1   -1    0    0    0  501 -0.00000000000E+00 -0.00000000000E+00 -0.98558465290E+03  0.98558465292E+03  0.50400000000E-02 0.  1.
    8880023    1    1    2    0    0  0.50084368106E+03 -0.15726078749E+03 -0.72877555859E+03  0.11137770734E+04  0.65864270000E+03 0.  1.
    8880022    1    1    2    0    0 -0.50084368106E+03  0.15726078749E+03  0.10979321106E+04  0.12265487845E+04  0.15294330000E+03 0.  0.
<mgrwt>
<rscale>  0 0.75602087E+03</rscale>
<asrwt>0</asrwt>
<pdfrwt beam="1">  1        1 0.20842172E+00 0.84225029E+03</pdfrwt>
<pdfrwt beam="2">  1       -1 0.15162841E+00 0.84225029E+03</pdfrwt>
<totfact> 0.28783989E+00</totfact>
</mgrwt>
</event>
<event>
 4    1  0.2514307E-008  0.7023627E+03  0.7818608E-02  0.9987537E-01
         -1   -1    0    0    0  501 -0.00000000000E+00  0.00000000000E+00  0.28133229565E+03  0.28133229569E+03  0.50400000000E-02 0.  1.
          1   -1    0    0  501    0  0.00000000000E+00 -0.00000000000E+00 -0.22517387556E+04  0.22517387556E+04  0.50400000000E-02 0. -1.
    8880023    1    1    2    0    0  0.22735883831E+03 -0.88380869000E+02 -0.18735208124E+03  0.72692106035E+03  0.65864270000E+03 0.  1.
    8880022    1    1    2    0    0 -0.22735883831E+03  0.88380869000E+02 -0.17830543787E+04  0.18061499910E+04  0.15294330000E+03 0.  0.
<mgrwt>
<rscale>  0 0.56200096E+03</rscale>
<asrwt>0</asrwt>
<pdfrwt beam="1">  1        1 0.34642133E+00 0.70236275E+03</pdfrwt>
<pdfrwt beam="2">  1       -1 0.43281893E-01 0.70236275E+03</pdfrwt>
<totfact> 0.11179802E+01</totfact>
</mgrwt>
</event>
<event>
 4    1  0.2514307E-008  0.1151687E+04  0.7818608E-02  0.9205579E-01
         -1   -1    0    0    0  501 -0.00000000000E+00  0.00000000000E+00  0.81581981476E+03  0.81581981477E+03  0.50400000000E-02 0.  1.
          1   -1    0    0  501    0  0.00000000000E+00 -0.00000000000E+00 -0.19428716231E+04  0.19428716231E+04  0.50400000000E-02 0. -1.
    8880023    1    1    2    0    0 -0.41992656868E+03 -0.84630652508E+03  0.15150430931E+03  0.11616095813E+04  0.65864270000E+03 0.  0.
    8880022    1    1    2    0    0  0.41992656868E+03  0.84630652508E+03 -0.12785561177E+04  0.15970818566E+04  0.15294330000E+03 0.  0.
<mgrwt>
<rscale>  0 0.10996025E+04</rscale>
<asrwt>0</asrwt>
<pdfrwt beam="1">  1        1 0.29890332E+00 0.11516871E+04</pdfrwt>
<pdfrwt beam="2">  1       -1 0.12551074E+00 0.11516871E+04</pdfrwt>
<totfact> 0.17865487E+00</totfact>
</mgrwt>
</event>
<event>
 4    1  0.2514307E-008  0.7203082E+03  0.7818608E-02  0.9921544E-01
         -1   -1    0    0    0  501 -0.00000000000E+00  0.00000000000E+00  0.40474542228E+03  0.40474542231E+03  0.50400000000E-02 0.  1.
          1   -1    0    0  501    0  0.00000000000E+00 -0.00000000000E+00 -0.15358024656E+04  0.15358024657E+04  0.50400000000E-02 0. -1.
    8880023    1    1    2    0    0  0.28536863366E+03 -0.59987593410E+02  0.42607412900E+02  0.72156729855E+03  0.65864270000E+03 0.  0.
    8880022    1    1    2    0    0 -0.28536863366E+03  0.59987593410E+02 -0.11736644563E+04  0.12189805894E+04  0.15294330000E+03 0.  0.
<mgrwt>
<rscale>  0 0.59228425E+03</rscale>
<asrwt>0</asrwt>
<pdfrwt beam="1">  1        1 0.23627730E+00 0.72030825E+03</pdfrwt>
<pdfrwt beam="2">  1       -1 0.62268527E-01 0.72030825E+03</pdfrwt>
<totfact> 0.16815429E+01</totfact>
</mgrwt>
</event>
<event>
 4    1  0.2514307E-008  0.8634881E+03  0.7818608E-02  0.9587389E-01
         -1   -1    0    0    0  501 -0.00000000000E+00  0.00000000000E+00  0.21591474865E+04  0.21591474865E+04  0.50400000000E-02 0.  1.
          1   -1    0    0  501    0  0.00000000000E+00 -0.00000000000E+00 -0.44689524383E+03  0.44689524386E+03  0.50400000000E-02 0. -1.
    8880023    1    1    2    0    0 -0.49524036777E+03  0.25795056559E+03  0.18224733175E+04  0.20166855767E+04  0.65864270000E+03 0.  0.
    8880022    1    1    2    0    0  0.49524036777E+03 -0.25795056559E+03 -0.11022107484E+03  0.58935715361E+03  0.15294330000E+03 0.  0.
<mgrwt>
<rscale>  0 0.78136538E+03</rscale>
<asrwt>0</asrwt>
<pdfrwt beam="1">  1        1 0.68753117E-01 0.86348811E+03</pdfrwt>
<pdfrwt beam="2">  1       -1 0.33217653E+00 0.86348811E+03</pdfrwt>
<totfact> 0.10941448E+00</totfact>
</mgrwt>
</event>
<event>
 4    1  0.2514307E-008  0.1064947E+04  0.7818608E-02  0.9301125E-01
         -1   -1    0    0    0  501 -0.00000000000E+00  0.00000000000E+00  0.34638483886E+03  0.34638483890E+03  0.50400000000E-02 0.  1.
          1   -1    0    0  501    0  0.00000000000E+00 -0.00000000000E+00 -0.35543422240E+04  0.35543422240E+04  0.50400000000E-02 0. -1.
    8880023    1    1    2    0    0  0.40661222145E+03 -0.73141530360E+03 -0.75768932274E+03  0.13069832291E+04  0.65864270000E+03 0.  0.
    8880022    1    1    2    0    0 -0.40661222145E+03  0.73141530360E+03 -0.24502680624E+04  0.25937438338E+04  0.15294330000E+03 0.  0.
<mgrwt>
<rscale>  0 0.10067933E+04</rscale>
<asrwt>0</asrwt>
<pdfrwt beam="1">  1        1 0.54682186E+00 0.10649470E+04</pdfrwt>
<pdfrwt beam="2">  1       -1 0.53289978E-01 0.10649470E+04</pdfrwt>
<totfact> 0.82783425E-01</totfact>
</mgrwt>
</event>
<event>
 4    1  0.2514307E-008  0.8803647E+03  0.7818608E-02  0.9558317E-01
          1   -1    0    0  501    0  0.00000000000E+00  0.00000000000E+00  0.75989270099E+03  0.75989270101E+03  0.50400000000E-02 0. -1.
         -1   -1    0    0    0  501 -0.00000000000E+00 -0.00000000000E+00 -0.10082960637E+04  0.10082960637E+04  0.50400000000E-02 0.  1.
    8880023    1    1    2    0    0  0.58050979888E+03 -0.65116854667E+02 -0.60379664740E+03  0.10675263130E+04  0.65864270000E+03 0.  1.
    8880022    1    1    2    0    0 -0.58050979888E+03  0.65116854667E+02  0.35539328470E+03  0.70066245167E+03  0.15294330000E+03 0.  0.
<mgrwt>
<rscale>  0 0.80117530E+03</rscale>
<asrwt>0</asrwt>
<pdfrwt beam="1">  1        1 0.11690657E+00 0.88036472E+03</pdfrwt>
<pdfrwt beam="2">  1       -1 0.15512247E+00 0.88036472E+03</pdfrwt>
<totfact> 0.77594569E+00</totfact>
</mgrwt>
</event>
<event>
 4    1  0.2514307E-008  0.1387414E+04  0.7818608E-02  0.8993525E-01
          1   -1    0    0  501    0  0.00000000000E+00  0.00000000000E+00  0.22286419180E+04  0.22286419180E+04  0.50400000000E-02 0. -1.
         -1   -1    0    0    0  501 -0.00000000000E+00 -0.00000000000E+00 -0.97955389954E+03  0.97955389956E+03  0.50400000000E-02 0.  1.
    8880023    1    1    2    0    0  0.64479610772E+03 -0.10369885319E+04 -0.88962815909E+02  0.13902632214E+04  0.65864270000E+03 0.  0.
    8880022    1    1    2    0    0 -0.64479610772E+03  0.10369885319E+04  0.13380508344E+04  0.18179325962E+04  0.15294330000E+03 0.  0.
<mgrwt>
<rscale>  0 0.13464436E+04</rscale>
<asrwt>0</asrwt>
<pdfrwt beam="1">  1        1 0.34286799E+00 0.13874139E+04</pdfrwt>
<pdfrwt beam="2">  1       -1 0.15070060E+00 0.13874139E+04</pdfrwt>
<totfact> 0.68997309E-01</totfact>
</mgrwt>
</event>
<event>
 4    1  0.2514307E-008  0.8203176E+03  0.7818608E-02  0.9668473E-01
          1   -1    0    0  501    0  0.00000000000E+00  0.00000000000E+00  0.77933902331E+03  0.77933902332E+03  0.50400000000E-02 0. -1.
         -1   -1    0    0    0  501 -0.00000000000E+00 -0.00000000000E+00 -0.10752607888E+04  0.10752607888E+04  0.50400000000E-02 0.  1.
    8880023    1    1    2    0    0  0.48819179631E+03  0.27919679047E+02 -0.79285145845E+03  0.11408480968E+04  0.65864270000E+03 0.  0.
    8880022    1    1    2    0    0 -0.48819179631E+03 -0.27919679047E+02  0.49692969295E+03  0.71375171538E+03  0.15294330000E+03 0.  0.
<mgrwt>
<rscale>  0 0.72925292E+03</rscale>
<asrwt>0</asrwt>
<pdfrwt beam="1">  1        1 0.11989831E+00 0.82031759E+03</pdfrwt>
<pdfrwt beam="2">  1       -1 0.16542474E+00 0.82031759E+03</pdfrwt>
<totfact> 0.62811979E+00</totfact>
</mgrwt>
</event>
<event>
 4    1  0.2514307E-008  0.8123423E+03  0.7818608E-02  0.9684718E-01
          1   -1    0    0  501    0  0.00000000000E+00  0.00000000000E+00  0.25625158420E+04  0.25625158420E+04  0.50400000000E-02 0. -1.
         -1   -1    0    0    0  501 -0.00000000000E+00 -0.00000000000E+00 -0.21988886469E+03  0.21988886475E+03  0.50400000000E-02 0.  1.
    8880023    1    1    2    0    0  0.24373555856E+03  0.40826800592E+03  0.72292750169E+03  0.10874392701E+04  0.65864270000E+03 0.  0.
    8880022    1    1    2    0    0 -0.24373555856E+03 -0.40826800592E+03  0.16196994756E+04  0.16949654366E+04  0.15294330000E+03 0.  0.
<mgrwt>
<rscale>  0 0.71933978E+03</rscale>
<asrwt>0</asrwt>
<pdfrwt beam="1">  1        1 0.39423321E+00 0.81234229E+03</pdfrwt>
<pdfrwt beam="2">  1       -1 0.33829056E-01 0.81234229E+03</pdfrwt>
<totfact> 0.10550385E+01</totfact>
</mgrwt>
</event>
<event>
 4    1  0.2514307E-008  0.8388180E+03  0.7818608E-02  0.9632413E-01
         -1   -1    0    0    0  501 -0.00000000000E+00  0.00000000000E+00  0.11679493320E+04  0.11679493320E+04  0.50400000000E-02 0.  1.
          1   -1    0    0  501    0  0.00000000000E+00 -0.00000000000E+00 -0.12297341177E+04  0.12297341177E+04  0.50400000000E-02 0. -1.
    8880023    1    1    2    0    0  0.99546146282E+02  0.50979990137E+03  0.93943285700E+03  0.12594243422E+04  0.65864270000E+03 0.  0.
    8880022    1    1    2    0    0 -0.99546146282E+02 -0.50979990137E+03 -0.10012176427E+04  0.11382591075E+04  0.15294330000E+03 0.  0.
<mgrwt>
<rscale>  0 0.75187516E+03</rscale>
<asrwt>0</asrwt>
<pdfrwt beam="1">  1        1 0.18918986E+00 0.83881797E+03</pdfrwt>
<pdfrwt beam="2">  1       -1 0.17968451E+00 0.83881797E+03</pdfrwt>
<totfact> 0.21867858E+00</totfact>
</mgrwt>
</event>
<event>
 4    1  0.2514307E-008  0.8529393E+03  0.7818608E-02  0.9606249E-01
         -1   -1    0    0    0  501 -0.00000000000E+00  0.00000000000E+00  0.64421600049E+03  0.64421600051E+03  0.50400000000E-02 0.  1.
          1   -1    0    0  501    0  0.00000000000E+00 -0.00000000000E+00 -0.29391037054E+04  0.29391037054E+04  0.50400000000E-02 0. -1.
    8880023    1    1    2    0    0  0.17840364086E+03 -0.51172975725E+03  0.31811479298E+03  0.91033094603E+03  0.65864270000E+03 0.  1.
    8880022    1    1    2    0    0 -0.17840364086E+03  0.51172975725E+03 -0.26130024979E+04  0.26729887599E+04  0.15294330000E+03 0.  0.
<mgrwt>
<rscale>  0 0.76883981E+03</rscale>
<asrwt>0</asrwt>
<pdfrwt beam="1">  1        1 0.45216979E+00 0.85293928E+03</pdfrwt>
<pdfrwt beam="2">  1       -1 0.99110155E-01 0.85293928E+03</pdfrwt>
<totfact> 0.67949989E-01</totfact>
</mgrwt>
</event>
<event>
 4    1  0.2514307E-008  0.7816348E+03  0.7818608E-02  0.9752011E-01
          1   -1    0    0  501    0  0.00000000000E+00  0.00000000000E+00  0.16460514682E+04  0.16460514682E+04  0.50400000000E-02 0. -1.
         -1   -1    0    0    0  501 -0.00000000000E+00 -0.00000000000E+00 -0.50954150359E+03  0.50954150362E+03  0.50400000000E-02 0.  1.
    8880023    1    1    2    0    0 -0.39764393894E+03 -0.13792051787E+03 -0.14776900932E+03  0.79548014293E+03  0.65864270000E+03 0.  0.
    8880022    1    1    2    0    0  0.39764393894E+03  0.13792051787E+03  0.12842789739E+04  0.13601128289E+04  0.15294330000E+03 0.  0.
<mgrwt>
<rscale>  0 0.68002760E+03</rscale>
<asrwt>0</asrwt>
<pdfrwt beam="1">  1        1 0.25323869E+00 0.78163481E+03</pdfrwt>
<pdfrwt beam="2">  1       -1 0.78391000E-01 0.78163481E+03</pdfrwt>
<totfact> 0.87573700E+00</totfact>
</mgrwt>
</event>
<event>
 4    1  0.2514307E-008  0.7707147E+03  0.7818608E-02  0.9778118E-01
         -1   -1    0    0    0  501 -0.00000000000E+00  0.00000000000E+00  0.15729925772E+04  0.15729925773E+04  0.50400000000E-02 0.  1.
          1   -1    0    0  501    0  0.00000000000E+00 -0.00000000000E+00 -0.85153524484E+03  0.85153524485E+03  0.50400000000E-02 0. -1.
    8880023    1    1    2    0    0  0.64438329350E+02  0.39501731186E+03  0.14138584491E+04  0.16102785148E+04  0.65864270000E+03 0.  1.
    8880022    1    1    2    0    0 -0.64438329350E+02 -0.39501731186E+03 -0.69240111671E+03  0.81424930727E+03  0.15294330000E+03 0.  0.
<mgrwt>
<rscale>  0 0.66550173E+03</rscale>
<asrwt>0</asrwt>
<pdfrwt beam="1">  1        1 0.13100542E+00 0.77071472E+03</pdfrwt>
<pdfrwt beam="2">  1       -1 0.24199886E+00 0.77071472E+03</pdfrwt>
<totfact> 0.16387221E+00</totfact>
</mgrwt>
</event>
<event>
 4    1  0.2514307E-008  0.8468563E+03  0.7818608E-02  0.9617385E-01
         -1   -1    0    0    0  501 -0.00000000000E+00  0.00000000000E+00  0.28272224472E+03  0.28272224476E+03  0.50400000000E-02 0.  1.
          1   -1    0    0  501    0  0.00000000000E+00 -0.00000000000E+00 -0.24178064732E+04  0.24178064733E+04  0.50400000000E-02 0. -1.
    8880023    1    1    2    0    0  0.53091560999E+03 -0.38522433015E+02 -0.52152396418E+03  0.99456161913E+03  0.65864270000E+03 0. -1.
    8880022    1    1    2    0    0 -0.53091560999E+03  0.38522433015E+02 -0.16135602643E+04  0.17059670989E+04  0.15294330000E+03 0.  0.
<mgrwt>
<rscale>  0 0.76156124E+03</rscale>
<asrwt>0</asrwt>
<pdfrwt beam="1">  1        1 0.37197021E+00 0.84685629E+03</pdfrwt>
<pdfrwt beam="2">  1       -1 0.43495732E-01 0.84685629E+03</pdfrwt>
<totfact> 0.83623798E+00</totfact>
</mgrwt>
</event>
<event>
 4    1  0.2514307E-008  0.8699500E+03  0.7818608E-02  0.9576104E-01
          1   -1    0    0  501    0  0.00000000000E+00  0.00000000000E+00  0.21479063807E+04  0.21479063807E+04  0.50400000000E-02 0. -1.
         -1   -1    0    0    0  501 -0.00000000000E+00 -0.00000000000E+00 -0.69497233263E+03  0.69497233265E+03  0.50400000000E-02 0.  1.
    8880023    1    1    2    0    0  0.52064787288E+03  0.22787846580E+03 -0.35647698438E+03  0.94015363073E+03  0.65864270000E+03 0.  0.
    8880022    1    1    2    0    0 -0.52064787288E+03 -0.22787846580E+03  0.18094110325E+04  0.19027250826E+04  0.15294330000E+03 0.  0.
<mgrwt>
<rscale>  0 0.78898199E+03</rscale>
<asrwt>0</asrwt>
<pdfrwt beam="1">  1        1 0.33044713E+00 0.86995000E+03</pdfrwt>
<pdfrwt beam="2">  1       -1 0.10691882E+00 0.86995000E+03</pdfrwt>
<totfact> 0.19948456E+00</totfact>
</mgrwt>
</event>
<event>
 4    1  0.2514307E-008  0.9343025E+03  0.7818608E-02  0.9473068E-01
         -1   -1    0    0    0  501 -0.00000000000E+00  0.00000000000E+00  0.69847667016E+03  0.69847667018E+03  0.50400000000E-02 0.  1.
          1   -1    0    0  501    0  0.00000000000E+00 -0.00000000000E+00 -0.22868616272E+04  0.22868616272E+04  0.50400000000E-02 0. -1.
    8880023    1    1    2    0    0  0.23248739270E+03 -0.62053242568E+03  0.29754324417E+03  0.98053713213E+03  0.65864270000E+03 0.  1.
    8880022    1    1    2    0    0 -0.23248739270E+03  0.62053242568E+03 -0.18859282012E+04  0.20048011653E+04  0.15294330000E+03 0.  0.
<mgrwt>
<rscale>  0 0.86298825E+03</rscale>
<asrwt>0</asrwt>
<pdfrwt beam="1">  1        1 0.35182486E+00 0.93430246E+03</pdfrwt>
<pdfrwt beam="2">  1       -1 0.10745795E+00 0.93430246E+03</pdfrwt>
<totfact> 0.15717871E+00</totfact>
</mgrwt>
</event>
<event>
 4    1  0.2514307E-008  0.1556251E+04  0.7818608E-02  0.8870903E-01
          1   -1    0    0  501    0  0.00000000000E+00  0.00000000000E+00  0.28223243963E+04  0.28223243964E+04  0.50400000000E-02 0. -1.
         -1   -1    0    0    0  501 -0.00000000000E+00 -0.00000000000E+00 -0.82446509468E+03  0.82446509470E+03  0.50400000000E-02 0.  1.
    8880023    1    1    2    0    0 -0.13883415338E+04  0.24620217998E+03  0.63810549032E+03  0.16819918403E+04  0.65864270000E+03 0.  0.
    8880022    1    1    2    0    0  0.13883415338E+04 -0.24620217998E+03  0.13597538113E+04  0.19647976507E+04  0.15294330000E+03 0.  0.
<mgrwt>
<rscale>  0 0.15205467E+04</rscale>
<asrwt>0</asrwt>
<pdfrwt beam="1">  1        1 0.43420376E+00 0.15562512E+04</pdfrwt>
<pdfrwt beam="2">  1       -1 0.12684078E+00 0.15562512E+04</pdfrwt>
<totfact> 0.41087798E-01</totfact>
</mgrwt>
</event>
<event>
 4    1  0.2514307E-008  0.7266362E+03  0.7818608E-02  0.9900739E-01
         -1   -1    0    0    0  501 -0.00000000000E+00  0.00000000000E+00  0.39354850893E+03  0.39354850896E+03  0.50400000000E-02 0.  1.
          1   -1    0    0  501    0  0.00000000000E+00 -0.00000000000E+00 -0.11329752876E+04  0.11329752876E+04  0.50400000000E-02 0. -1.
    8880023    1    1    2    0    0  0.28355423607E+02 -0.30559122931E+03 -0.16985855562E+02  0.72683475084E+03  0.65864270000E+03 0.  0.
    8880022    1    1    2    0    0 -0.28355423607E+02  0.30559122931E+03 -0.72244092310E+03  0.79968904573E+03  0.15294330000E+03 0.  0.
<mgrwt>
<rscale>  0 0.60225478E+03</rscale>
<asrwt>0</asrwt>
<pdfrwt beam="1">  1        1 0.17430389E+00 0.72663625E+03</pdfrwt>
<pdfrwt beam="2">  1       -1 0.60545925E-01 0.72663625E+03</pdfrwt>
<totfact> 0.34131470E+01</totfact>
</mgrwt>
</event>
<event>
 4    1  0.2514307E-008  0.7336827E+03  0.7818608E-02  0.9878746E-01
          1   -1    0    0  501    0  0.00000000000E+00  0.00000000000E+00  0.10887751568E+04  0.10887751568E+04  0.50400000000E-02 0. -1.
         -1   -1    0    0    0  501 -0.00000000000E+00 -0.00000000000E+00 -0.81031739059E+03  0.81031739060E+03  0.50400000000E-02 0.  1.
    8880023    1    1    2    0    0 -0.55677695889E+02  0.31840234946E+03 -0.60183306845E+03  0.94894325990E+03  0.65864270000E+03 0.  1.
    8880022    1    1    2    0    0  0.55677695889E+02 -0.31840234946E+03  0.88029083466E+03  0.95014928751E+03  0.15294330000E+03 0.  0.
<mgrwt>
<rscale>  0 0.61302475E+03</rscale>
<asrwt>0</asrwt>
<pdfrwt beam="1">  1        1 0.16750387E+00 0.73368268E+03</pdfrwt>
<pdfrwt beam="2">  1       -1 0.12466421E+00 0.73368268E+03</pdfrwt>
<totfact> 0.75563812E+00</totfact>
</mgrwt>
</event>
<event>
 4    1  0.2514307E-008  0.1065343E+04  0.7818608E-02  0.9300661E-01
         -1   -1    0    0    0  501 -0.00000000000E+00  0.00000000000E+00  0.11833332406E+04  0.11833332406E+04  0.50400000000E-02 0.  1.
          1   -1    0    0  501    0  0.00000000000E+00 -0.00000000000E+00 -0.10761989617E+04  0.10761989617E+04  0.50400000000E-02 0. -1.
    8880023    1    1    2    0    0 -0.81800402466E+02  0.83333889285E+03  0.65186612684E+03  0.12489534298E+04  0.65864270000E+03 0.  1.
    8880022    1    1    2    0    0  0.81800402466E+02 -0.83333889285E+03 -0.54473184795E+03  0.10105787725E+04  0.15294330000E+03 0.  0.
<mgrwt>
<rscale>  0 0.10072205E+04</rscale>
<asrwt>0</asrwt>
<pdfrwt beam="1">  1        1 0.16556907E+00 0.10653428E+04</pdfrwt>
<pdfrwt beam="2">  1       -1 0.18205127E+00 0.10653428E+04</pdfrwt>
<totfact> 0.26471250E+00</totfact>
</mgrwt>
</event>
<event>
 4    1  0.2514307E-008  0.6588750E+03  0.7818608E-02  0.1025340E+00
         -1   -1    0    0    0  501 -0.00000000000E+00  0.00000000000E+00  0.21078916657E+03  0.21078916663E+03  0.50400000000E-02 0.  1.
          1   -1    0    0  501    0  0.00000000000E+00 -0.00000000000E+00 -0.11894995414E+04  0.11894995414E+04  0.50400000000E-02 0. -1.
    8880023    1    1    2    0    0  0.15254186540E+02  0.85636045168E+01 -0.33639205118E+03  0.73978094318E+03  0.65864270000E+03 0.  1.
    8880022    1    1    2    0    0 -0.15254186540E+02 -0.85636045168E+01 -0.64231832367E+03  0.66050776488E+03  0.15294330000E+03 0.  0.
<mgrwt>
<rscale>  0 0.45807911E+03</rscale>
<asrwt>0</asrwt>
<pdfrwt beam="1">  1        1 0.18299993E+00 0.65887497E+03</pdfrwt>
<pdfrwt beam="2">  1       -1 0.32429103E-01 0.65887497E+03</pdfrwt>
<totfact> 0.99490005E+01</totfact>
</mgrwt>
</event>
<event>
 4    1  0.2514307E-008  0.7986551E+03  0.7818608E-02  0.9713712E-01
         -1   -1    0    0    0  501 -0.00000000000E+00  0.00000000000E+00  0.11007982712E+04  0.11007982712E+04  0.50400000000E-02 0.  1.
          1   -1    0    0  501    0  0.00000000000E+00 -0.00000000000E+00 -0.65292351212E+03  0.65292351214E+03  0.50400000000E-02 0. -1.
    8880023    1    1    2    0    0  0.44280638016E+03  0.89231423068E+02  0.82311627071E+03  0.11468959580E+04  0.65864270000E+03 0.  0.
    8880022    1    1    2    0    0 -0.44280638016E+03 -0.89231423068E+02 -0.37524151165E+03  0.60682582530E+03  0.15294330000E+03 0.  0.
<mgrwt>
<rscale>  0 0.70206245E+03</rscale>
<asrwt>0</asrwt>
<pdfrwt beam="1">  1        1 0.10044977E+00 0.79865508E+03</pdfrwt>
<pdfrwt beam="2">  1       -1 0.16935358E+00 0.79865508E+03</pdfrwt>
<totfact> 0.77211520E+00</totfact>
</mgrwt>
</event>
<event>
 4    1  0.2514307E-008  0.7647414E+03  0.7818608E-02  0.9792984E-01
          1   -1    0    0  501    0  0.00000000000E+00  0.00000000000E+00  0.13672136848E+04  0.13672136848E+04  0.50400000000E-02 0. -1.
         -1   -1    0    0    0  501 -0.00000000000E+00 -0.00000000000E+00 -0.38059044886E+03  0.38059044889E+03  0.50400000000E-02 0.  1.
    8880023    1    1    2    0    0  0.27956218782E+03 -0.26993353972E+03  0.10454142664E+03  0.77185377428E+03  0.65864270000E+03 0.  1.
    8880022    1    1    2    0    0 -0.27956218782E+03  0.26993353972E+03  0.88208180926E+03  0.97595035938E+03  0.15294330000E+03 0.  0.
<mgrwt>
<rscale>  0 0.65740439E+03</rscale>
<asrwt>0</asrwt>
<pdfrwt beam="1">  1        1 0.21034056E+00 0.76474135E+03</pdfrwt>
<pdfrwt beam="2">  1       -1 0.58552378E-01 0.76474135E+03</pdfrwt>
<totfact> 0.24666848E+01</totfact>
</mgrwt>
</event>
<event>
 4    1  0.2514307E-008  0.7075951E+03  0.7818608E-02  0.9967042E-01
         -1   -1    0    0    0  501 -0.00000000000E+00  0.00000000000E+00  0.93031980536E+03  0.93031980537E+03  0.50400000000E-02 0.  1.
          1   -1    0    0  501    0  0.00000000000E+00 -0.00000000000E+00 -0.81023004976E+03  0.81023004977E+03  0.50400000000E-02 0. -1.
    8880023    1    1    2    0    0 -0.22211204306E+03  0.13246471784E+03  0.75707023191E+03  0.10362655082E+04  0.65864270000E+03 0.  1.
    8880022    1    1    2    0    0  0.22211204306E+03 -0.13246471784E+03 -0.63698047632E+03  0.70428434696E+03  0.15294330000E+03 0.  0.
<mgrwt>
<rscale>  0 0.57119309E+03</rscale>
<asrwt>0</asrwt>
<pdfrwt beam="1">  1        1 0.12465078E+00 0.70759513E+03</pdfrwt>
<pdfrwt beam="2">  1       -1 0.14312612E+00 0.70759513E+03</pdfrwt>
<totfact> 0.88929560E+00</totfact>
</mgrwt>
</event>
<event>
 4    1  0.2514307E-008  0.1173088E+04  0.7818608E-02  0.9183737E-01
          1   -1    0    0  501    0  0.00000000000E+00  0.00000000000E+00  0.79641569110E+03  0.79641569112E+03  0.50400000000E-02 0. -1.
         -1   -1    0    0    0  501 -0.00000000000E+00 -0.00000000000E+00 -0.14934158335E+04  0.14934158335E+04  0.50400000000E-02 0.  1.
    8880023    1    1    2    0    0  0.78186508362E+03 -0.57533669692E+03 -0.20509033141E+03  0.11908810075E+04  0.65864270000E+03 0. -1.
    8880022    1    1    2    0    0 -0.78186508362E+03  0.57533669692E+03 -0.49190981095E+03  0.10989505171E+04  0.15294330000E+03 0.  1.
<mgrwt>
<rscale>  0 0.11222877E+04</rscale>
<asrwt>0</asrwt>
<pdfrwt beam="1">  1        1 0.12252549E+00 0.11730880E+04</pdfrwt>
<pdfrwt beam="2">  1       -1 0.22975628E+00 0.11730880E+04</pdfrwt>
<totfact> 0.20803716E+00</totfact>
</mgrwt>
</event>
<event>
 4    1  0.2514307E-008  0.6899502E+03  0.7818608E-02  0.1004176E+00
         -1   -1    0    0    0  501 -0.00000000000E+00  0.00000000000E+00  0.67782681693E+03  0.67782681694E+03  0.50400000000E-02 0.  1.
          1   -1    0    0  501    0  0.00000000000E+00 -0.00000000000E+00 -0.15401436351E+04  0.15401436351E+04  0.50400000000E-02 0. -1.
    8880023    1    1    2    0    0  0.20337960272E+03 -0.29288518533E+02  0.48702799323E+03  0.84452800579E+03  0.65864270000E+03 0.  1.
    8880022    1    1    2    0    0 -0.20337960272E+03  0.29288518533E+02 -0.13493448114E+04  0.13734424463E+04  0.15294330000E+03 0.  0.
<mgrwt>
<rscale>  0 0.53856339E+03</rscale>
<asrwt>0</asrwt>
<pdfrwt beam="1">  1        1 0.23694517E+00 0.68995021E+03</pdfrwt>
<pdfrwt beam="2">  1       -1 0.10428105E+00 0.68995021E+03</pdfrwt>
<totfact> 0.55887768E+00</totfact>
</mgrwt>
</event>
<event>
 4    1  0.2514307E-008  0.9760523E+03  0.7818608E-02  0.9413582E-01
          1   -1    0    0  501    0  0.00000000000E+00  0.00000000000E+00  0.14540650896E+04  0.14540650896E+04  0.50400000000E-02 0. -1.
         -1   -1    0    0    0  501 -0.00000000000E+00 -0.00000000000E+00 -0.69141630524E+03  0.69141630525E+03  0.50400000000E-02 0.  1.
    8880023    1    1    2    0    0  0.70272067383E+03  0.15827673130E+03 -0.13399840841E+03  0.98520741411E+03  0.65864270000E+03 0.  0.
    8880022    1    1    2    0    0 -0.70272067383E+03 -0.15827673130E+03  0.89664719280E+03  0.11602739808E+04  0.15294330000E+03 0.  0.
<mgrwt>
<rscale>  0 0.90966338E+03</rscale>
<asrwt>0</asrwt>
<pdfrwt beam="1">  1        1 0.22370232E+00 0.97605229E+03</pdfrwt>
<pdfrwt beam="2">  1       -1 0.10637174E+00 0.97605229E+03</pdfrwt>
<totfact> 0.58625494E+00</totfact>
</mgrwt>
</event>
<event>
 4    1  0.2514307E-008  0.1071651E+04  0.7818608E-02  0.9293296E-01
          1   -1    0    0  501    0  0.00000000000E+00  0.00000000000E+00  0.18317902067E+04  0.18317902068E+04  0.50400000000E-02 0. -1.
         -1   -1    0    0    0  501 -0.00000000000E+00 -0.00000000000E+00 -0.76359596380E+03  0.76359596381E+03  0.50400000000E-02 0.  1.
    8880023    1    1    2    0    0 -0.82765245064E+03  0.17209483422E+03 -0.17337135768E+03  0.10855841952E+04  0.65864270000E+03 0. -1.
    8880022    1    1    2    0    0  0.82765245064E+03 -0.17209483422E+03  0.12415656006E+04  0.15098019753E+04  0.15294330000E+03 0.  0.
<mgrwt>
<rscale>  0 0.10140240E+04</rscale>
<asrwt>0</asrwt>
<pdfrwt beam="1">  1        1 0.28181388E+00 0.10716508E+04</pdfrwt>
<pdfrwt beam="2">  1       -1 0.11747630E+00 0.10716508E+04</pdfrwt>
<totfact> 0.25255749E+00</totfact>
</mgrwt>
</event>
<event>
 4    1  0.2514307E-008  0.7518390E+03  0.7818608E-02  0.9826713E-01
          1   -1    0    0  501    0  0.00000000000E+00  0.00000000000E+00  0.10736522942E+04  0.10736522943E+04  0.50400000000E-02 0. -1.
         -1   -1    0    0    0  501 -0.00000000000E+00 -0.00000000000E+00 -0.49405216352E+03  0.49405216355E+03  0.50400000000E-02 0.  1.
    8880023    1    1    2    0    0  0.34545581746E+03 -0.11005449808E+03 -0.12356224874E+03  0.76192489783E+03  0.65864270000E+03 0.  1.
    8880022    1    1    2    0    0 -0.34545581746E+03  0.11005449808E+03  0.70316237947E+03  0.80577955998E+03  0.15294330000E+03 0.  0.
<mgrwt>
<rscale>  0 0.63948480E+03</rscale>
<asrwt>0</asrwt>
<pdfrwt beam="1">  1        1 0.16517727E+00 0.75183903E+03</pdfrwt>
<pdfrwt beam="2">  1       -1 0.76008026E-01 0.75183903E+03</pdfrwt>
<totfact> 0.23741595E+01</totfact>
</mgrwt>
</event>
<event>
 4    1  0.2514307E-008  0.6587545E+03  0.7818608E-02  0.1025470E+00
          1   -1    0    0  501    0  0.00000000000E+00  0.00000000000E+00  0.30479078830E+03  0.30479078834E+03  0.50400000000E-02 0. -1.
         -1   -1    0    0    0  501 -0.00000000000E+00 -0.00000000000E+00 -0.54521600765E+03  0.54521600768E+03  0.50400000000E-02 0.  1.
    8880023    1    1    2    0    0 -0.11978392832E+02 -0.19371107720E+01 -0.22357546849E+03  0.69566042770E+03  0.65864270000E+03 0.  1.
    8880022    1    1    2    0    0  0.11978392832E+02  0.19371107720E+01 -0.16849750861E+02  0.15434636831E+03  0.15294330000E+03 0.  1.
<mgrwt>
<rscale>  0 0.45763151E+03</rscale>
<asrwt>0</asrwt>
<pdfrwt beam="1">  1        1 0.46890891E-01 0.65875446E+03</pdfrwt>
<pdfrwt beam="2">  1       -1 0.83879386E-01 0.65875446E+03</pdfrwt>
<totfact> 0.12355920E+02</totfact>
</mgrwt>
</event>
<event>
 4    1  0.2514307E-008  0.7472299E+03  0.7818608E-02  0.9839366E-01
         -1   -1    0    0    0  501 -0.00000000000E+00  0.00000000000E+00  0.57002198834E+03  0.57002198836E+03  0.50400000000E-02 0.  1.
          1   -1    0    0  501    0  0.00000000000E+00 -0.00000000000E+00 -0.10076091448E+04  0.10076091448E+04  0.50400000000E-02 0. -1.
    8880023    1    1    2    0    0  0.34346825372E+03 -0.81066884391E+02  0.25154279506E+03  0.78843279046E+03  0.65864270000E+03 0.  0.
    8880022    1    1    2    0    0 -0.34346825372E+03  0.81066884391E+02 -0.68912995152E+03  0.78919834272E+03  0.15294330000E+03 0.  0.
<mgrwt>
<rscale>  0 0.63292048E+03</rscale>
<asrwt>0</asrwt>
<pdfrwt beam="1">  1        1 0.15501679E+00 0.74722988E+03</pdfrwt>
<pdfrwt beam="2">  1       -1 0.87695691E-01 0.74722988E+03</pdfrwt>
<totfact> 0.19653986E+01</totfact>
</mgrwt>
</event>
<event>
 4    1  0.2514307E-008  0.1408500E+04  0.7818608E-02  0.8977106E-01
         -1   -1    0    0    0  501 -0.00000000000E+00  0.00000000000E+00  0.18418930191E+04  0.18418930191E+04  0.50400000000E-02 0.  1.
          1   -1    0    0  501    0  0.00000000000E+00 -0.00000000000E+00 -0.15283117856E+04  0.15283117856E+04  0.50400000000E-02 0. -1.
    8880023    1    1    2    0    0  0.20290344628E+03 -0.12283694647E+04  0.11867844599E+04  0.18418276007E+04  0.65864270000E+03 0.  0.
    8880022    1    1    2    0    0 -0.20290344628E+03  0.12283694647E+04 -0.87320322636E+03  0.15283772040E+04  0.15294330000E+03 0.  0.
<mgrwt>
<rscale>  0 0.13682779E+04</rscale>
<asrwt>0</asrwt>
<pdfrwt beam="1">  1        1 0.23512489E+00 0.14084998E+04</pdfrwt>
<pdfrwt beam="2">  1       -1 0.28336816E+00 0.14084998E+04</pdfrwt>
<totfact> 0.25296428E-01</totfact>
</mgrwt>
</event>
<event>
 4    1  0.2514307E-008  0.6648051E+03  0.7818608E-02  0.1019698E+00
          1   -1    0    0  501    0  0.00000000000E+00  0.00000000000E+00  0.12073342525E+04  0.12073342525E+04  0.50400000000E-02 0. -1.
         -1   -1    0    0    0  501 -0.00000000000E+00 -0.00000000000E+00 -0.26128038388E+03  0.26128038393E+03  0.50400000000E-02 0.  1.
    8880023    1    1    2    0    0 -0.71741501968E+02 -0.54852094990E+02  0.18920655772E+03  0.69120541316E+03  0.65864270000E+03 0.  1.
    8880022    1    1    2    0    0  0.71741501968E+02  0.54852094990E+02  0.75684731093E+03  0.77740922332E+03  0.15294330000E+03 0.  0.
<mgrwt>
<rscale>  0 0.47795932E+03</rscale>
<asrwt>0</asrwt>
<pdfrwt beam="1">  1        1 0.18574373E+00 0.66480509E+03</pdfrwt>
<pdfrwt beam="2">  1       -1 0.40196981E-01 0.66480509E+03</pdfrwt>
<totfact> 0.65782256E+01</totfact>
</mgrwt>
</event>
<event>
 4    1  0.2514307E-008  0.9490423E+03  0.7818608E-02  0.9451493E-01
          1   -1    0    0  501    0  0.00000000000E+00  0.00000000000E+00  0.33741731557E+04  0.33741731557E+04  0.50400000000E-02 0. -1.
         -1   -1    0    0    0  501 -0.00000000000E+00 -0.00000000000E+00 -0.80143796938E+03  0.80143796940E+03  0.50400000000E-02 0.  1.
    8880023    1    1    2    0    0 -0.65428128039E+03  0.19694414996E+03 -0.46598029015E+03  0.10572695158E+04  0.65864270000E+03 0.  0.
    8880022    1    1    2    0    0  0.65428128039E+03 -0.19694414996E+03  0.30387154765E+04  0.31183416093E+04  0.15294330000E+03 0.  0.
<mgrwt>
<rscale>  0 0.87956464E+03</rscale>
<asrwt>0</asrwt>
<pdfrwt beam="1">  1        1 0.51910356E+00 0.94904225E+03</pdfrwt>
<pdfrwt beam="2">  1       -1 0.12329815E+00 0.94904225E+03</pdfrwt>
<totfact> 0.18992573E-01</totfact>
</mgrwt>
</event>
<event>
 4    1  0.2514307E-008  0.1157888E+04  0.7818608E-02  0.9199187E-01
         -1   -1    0    0    0  501 -0.00000000000E+00  0.00000000000E+00  0.11660919013E+04  0.11660919013E+04  0.50400000000E-02 0.  1.
          1   -1    0    0  501    0  0.00000000000E+00 -0.00000000000E+00 -0.13893434793E+04  0.13893434793E+04  0.50400000000E-02 0. -1.
    8880023    1    1    2    0    0 -0.41188655945E+03  0.85862853359E+03  0.58478395748E+03  0.12971800105E+04  0.65864270000E+03 0.  1.
    8880022    1    1    2    0    0  0.41188655945E+03 -0.85862853359E+03 -0.80803553548E+03  0.12582553700E+04  0.15294330000E+03 0.  0.
<mgrwt>
<rscale>  0 0.11061826E+04</rscale>
<asrwt>0</asrwt>
<pdfrwt beam="1">  1        1 0.21374515E+00 0.11578876E+04</pdfrwt>
<pdfrwt beam="2">  1       -1 0.17939875E+00 0.11578876E+04</pdfrwt>
<totfact> 0.16182884E+00</totfact>
</mgrwt>
</event>
<event>
 4    1  0.2514307E-008  0.1329192E+04  0.7818608E-02  0.9040752E-01
         -1   -1    0    0    0  501 -0.00000000000E+00  0.00000000000E+00  0.80866320205E+03  0.80866320206E+03  0.50400000000E-02 0.  1.
          1   -1    0    0  501    0  0.00000000000E+00 -0.00000000000E+00 -0.22331612084E+04  0.22331612084E+04  0.50400000000E-02 0. -1.
    8880023    1    1    2    0    0  0.89493258448E+03 -0.72940850543E+03 -0.18664480975E+03  0.13422323159E+04  0.65864270000E+03 0.  1.
    8880022    1    1    2    0    0 -0.89493258448E+03  0.72940850543E+03 -0.12378531966E+04  0.16995920945E+04  0.15294330000E+03 0.  0.
<mgrwt>
<rscale>  0 0.12859870E+04</rscale>
<asrwt>0</asrwt>
<pdfrwt beam="1">  1        1 0.34356326E+00 0.13291920E+04</pdfrwt>
<pdfrwt beam="2">  1       -1 0.12440972E+00 0.13291920E+04</pdfrwt>
<totfact> 0.11365394E+00</totfact>
</mgrwt>
</event>
<event>
 4    1  0.2514307E-008  0.8099662E+03  0.7818608E-02  0.9689647E-01
         -1   -1    0    0    0  501 -0.00000000000E+00  0.00000000000E+00  0.98991513558E+03  0.98991513559E+03  0.50400000000E-02 0.  1.
          1   -1    0    0  501    0  0.00000000000E+00 -0.00000000000E+00 -0.13508482805E+04  0.13508482805E+04  0.50400000000E-02 0. -1.
    8880023    1    1    2    0    0 -0.41890250938E+03 -0.21623076290E+03  0.76278702646E+03  0.11126047408E+04  0.65864270000E+03 0.  0.
    8880022    1    1    2    0    0  0.41890250938E+03  0.21623076290E+03 -0.11237201714E+04  0.12281586753E+04  0.15294330000E+03 0.  0.
<mgrwt>
<rscale>  0 0.71636544E+03</rscale>
<asrwt>0</asrwt>
<pdfrwt beam="1">  1        1 0.20782281E+00 0.80996621E+03</pdfrwt>
<pdfrwt beam="2">  1       -1 0.15229464E+00 0.80996621E+03</pdfrwt>
<totfact> 0.28773158E+00</totfact>
</mgrwt>
</event>
<event>
 4    1  0.2514307E-008  0.1144875E+04  0.7818608E-02  0.9212665E-01
         -1   -1    0    0    0  501 -0.00000000000E+00  0.00000000000E+00  0.15935978404E+04  0.15935978404E+04  0.50400000000E-02 0.  1.
          1   -1    0    0  501    0  0.00000000000E+00 -0.00000000000E+00 -0.12537064960E+04  0.12537064960E+04  0.50400000000E-02 0. -1.
    8880023    1    1    2    0    0  0.86374655538E+03 -0.36175938964E+03  0.11329379167E+04  0.16106788933E+04  0.65864270000E+03 0.  1.
    8880022    1    1    2    0    0 -0.86374655538E+03  0.36175938964E+03 -0.79304657222E+03  0.12366254432E+04  0.15294330000E+03 0.  0.
<mgrwt>
<rscale>  0 0.10923657E+04</rscale>
<asrwt>0</asrwt>
<pdfrwt beam="1">  1        1 0.19287792E+00 0.11448747E+04</pdfrwt>
<pdfrwt beam="2">  1       -1 0.24516890E+00 0.11448747E+04</pdfrwt>
<totfact> 0.72358969E-01</totfact>
</mgrwt>
</event>
<event>
 4    1  0.2514307E-008  0.9431466E+03  0.7818608E-02  0.9460044E-01
         -1   -1    0    0    0  501 -0.00000000000E+00  0.00000000000E+00  0.15782168357E+04  0.15782168357E+04  0.50400000000E-02 0.  1.
          1   -1    0    0  501    0  0.00000000000E+00 -0.00000000000E+00 -0.10896329082E+04  0.10896329082E+04  0.50400000000E-02 0. -1.
    8880023    1    1    2    0    0  0.59772789845E+03  0.31374605719E+03  0.12969551803E+04  0.16036265697E+04  0.65864270000E+03 0.  1.
    8880022    1    1    2    0    0 -0.59772789845E+03 -0.31374605719E+03 -0.80837125283E+03  0.10642231742E+04  0.15294330000E+03 0.  0.
<mgrwt>
<rscale>  0 0.87294813E+03</rscale>
<asrwt>0</asrwt>
<pdfrwt beam="1">  1        1 0.16763583E+00 0.94314656E+03</pdfrwt>
<pdfrwt beam="2">  1       -1 0.24280259E+00 0.94314656E+03</pdfrwt>
<totfact> 0.10198107E+00</totfact>
</mgrwt>
</event>
<event>
 4    1  0.2514307E-008  0.8213163E+03  0.7818608E-02  0.9666470E-01
         -1   -1    0    0    0  501 -0.00000000000E+00  0.00000000000E+00  0.10361802546E+04  0.10361802546E+04  0.50400000000E-02 0.  1.
          1   -1    0    0  501    0  0.00000000000E+00 -0.00000000000E+00 -0.66763821257E+03  0.66763821259E+03  0.50400000000E-02 0. -1.
    8880023    1    1    2    0    0  0.29241401791E+03 -0.39401053379E+03  0.71092666157E+03  0.10862675467E+04  0.65864270000E+03 0.  1.
    8880022    1    1    2    0    0 -0.29241401791E+03  0.39401053379E+03 -0.34238461958E+03  0.61755092046E+03  0.15294330000E+03 0.  1.
<mgrwt>
<rscale>  0 0.73048701E+03</rscale>
<asrwt>0</asrwt>
<pdfrwt beam="1">  1        1 0.10271357E+00 0.82131630E+03</pdfrwt>
<pdfrwt beam="2">  1       -1 0.15941235E+00 0.82131630E+03</pdfrwt>
<totfact> 0.88323392E+00</totfact>
</mgrwt>
</event>
<event>
 4    1  0.2514307E-008  0.6692956E+03  0.7818608E-02  0.1016173E+00
          1   -1    0    0  501    0  0.00000000000E+00  0.00000000000E+00  0.91410870327E+03  0.91410870328E+03  0.50400000000E-02 0. -1.
         -1   -1    0    0    0  501 -0.00000000000E+00 -0.00000000000E+00 -0.39284677804E+03  0.39284677807E+03  0.50400000000E-02 0.  1.
    8880023    1    1    2    0    0 -0.40071637673E+02 -0.11198498686E+03 -0.81109363303E+02  0.67419233792E+03  0.65864270000E+03 0.  1.
    8880022    1    1    2    0    0  0.40071637673E+02  0.11198498686E+03  0.60237128853E+03  0.63276314344E+03  0.15294330000E+03 0.  0.
<mgrwt>
<rscale>  0 0.49093320E+03</rscale>
<asrwt>0</asrwt>
<pdfrwt beam="1">  1        1 0.14063211E+00 0.66929558E+03</pdfrwt>
<pdfrwt beam="2">  1       -1 0.60437967E-01 0.66929558E+03</pdfrwt>
<totfact> 0.50760011E+01</totfact>
</mgrwt>
</event>
<event>
 4    1  0.2514307E-008  0.7382252E+03  0.7818608E-02  0.9865148E-01
          1   -1    0    0  501    0  0.00000000000E+00  0.00000000000E+00  0.75852769933E+03  0.75852769935E+03  0.50400000000E-02 0. -1.
         -1   -1    0    0    0  501 -0.00000000000E+00 -0.00000000000E+00 -0.33963867109E+04  0.33963867109E+04  0.50400000000E-02 0.  1.
    8880023    1    1    2    0    0  0.18671021225E+03  0.27623446099E+03 -0.33088498001E+04  0.33902010835E+04  0.65864270000E+03 0.  0.
    8880022    1    1    2    0    0 -0.18671021225E+03 -0.27623446099E+03  0.67099078852E+03  0.76471332674E+03  0.15294330000E+03 0.  0.
<mgrwt>
<rscale>  0 0.61980526E+03</rscale>
<asrwt>0</asrwt>
<pdfrwt beam="1">  1        1 0.11669657E+00 0.73822516E+03</pdfrwt>
<pdfrwt beam="2">  1       -1 0.52252102E+00 0.73822516E+03</pdfrwt>
<totfact> 0.27666637E-02</totfact>
</mgrwt>
</event>
<event>
 4    1  0.2514307E-008  0.1234071E+04  0.7818608E-02  0.9124694E-01
          1   -1    0    0  501    0  0.00000000000E+00  0.00000000000E+00  0.94441621523E+03  0.94441621525E+03  0.50400000000E-02 0. -1.
         -1   -1    0    0    0  501 -0.00000000000E+00 -0.00000000000E+00 -0.15658395078E+04  0.15658395078E+04  0.50400000000E-02 0.  1.
    8880023    1    1    2    0    0 -0.93357780732E+03  0.46642692309E+03 -0.75556830027E+03  0.14470021629E+04  0.65864270000E+03 0.  1.
    8880022    1    1    2    0    0  0.93357780732E+03 -0.46642692309E+03  0.13414500774E+03  0.10632535601E+04  0.15294330000E+03 0. -1.
<mgrwt>
<rscale>  0 0.11865699E+04</rscale>
<asrwt>0</asrwt>
<pdfrwt beam="1">  1        1 0.14529480E+00 0.12340712E+04</pdfrwt>
<pdfrwt beam="2">  1       -1 0.24089839E+00 0.12340712E+04</pdfrwt>
<totfact> 0.13105290E+00</totfact>
</mgrwt>
</event>
<event>
 4    1  0.2514307E-008  0.6634914E+03  0.7818608E-02  0.1020834E+00
          1   -1    0    0  501    0  0.00000000000E+00  0.00000000000E+00  0.61760259794E+03  0.61760259796E+03  0.50400000000E-02 0. -1.
         -1   -1    0    0    0  501 -0.00000000000E+00 -0.00000000000E+00 -0.30570611322E+03  0.30570611326E+03  0.50400000000E-02 0.  1.
    8880023    1    1    2    0    0 -0.48804758188E+02  0.63472618508E+02  0.13685333419E+03  0.67745827847E+03  0.65864270000E+03 0.  1.
    8880022    1    1    2    0    0  0.48804758188E+02 -0.63472618508E+02  0.17504315053E+03  0.24585043275E+03  0.15294330000E+03 0.  0.
<mgrwt>
<rscale>  0 0.47386842E+03</rscale>
<asrwt>0</asrwt>
<pdfrwt beam="1">  1        1 0.95015782E-01 0.66349143E+03</pdfrwt>
<pdfrwt beam="2">  1       -1 0.47031711E-01 0.66349143E+03</pdfrwt>
<totfact> 0.15113479E+02</totfact>
</mgrwt>
</event>
<event>
 4    1  0.2514307E-008  0.1716067E+04  0.7818608E-02  0.8770443E-01
         -1   -1    0    0    0  501 -0.00000000000E+00  0.00000000000E+00  0.23435785512E+04  0.23435785512E+04  0.50400000000E-02 0.  1.
          1   -1    0    0  501    0  0.00000000000E+00 -0.00000000000E+00 -0.17468779155E+04  0.17468779155E+04  0.50400000000E-02 0. -1.
    8880023    1    1    2    0    0 -0.15591031284E+04 -0.28332574035E+03  0.14832577185E+04  0.22682459535E+04  0.65864270000E+03 0.  0.
    8880022    1    1    2    0    0  0.15591031284E+04  0.28332574035E+03 -0.88655708283E+03  0.18222105131E+04  0.15294330000E+03 0.  0.
<mgrwt>
<rscale>  0 0.16841724E+04</rscale>
<asrwt>0</asrwt>
<pdfrwt beam="1">  1        1 0.26875045E+00 0.17160671E+04</pdfrwt>
<pdfrwt beam="2">  1       -1 0.36055054E+00 0.17160671E+04</pdfrwt>
<totfact> 0.53845919E-02</totfact>
</mgrwt>
</event>
<event>
 4    1  0.2514307E-008  0.6678201E+03  0.7818608E-02  0.1017276E+00
          1   -1    0    0  501    0  0.00000000000E+00  0.00000000000E+00  0.17372287856E+04  0.17372287856E+04  0.50400000000E-02 0. -1.
         -1   -1    0    0    0  501 -0.00000000000E+00 -0.00000000000E+00 -0.29068379179E+03  0.29068379183E+03  0.50400000000E-02 0.  1.
    8880023    1    1    2    0    0 -0.23105153438E+02 -0.10788718269E+03  0.10842007357E+03  0.67656382620E+03  0.65864270000E+03 0.  1.
    8880022    1    1    2    0    0  0.23105153438E+02  0.10788718269E+03  0.13381249203E+04  0.13513487513E+04  0.15294330000E+03 0.  0.
<mgrwt>
<rscale>  0 0.48682480E+03</rscale>
<asrwt>0</asrwt>
<pdfrwt beam="1">  1        1 0.26726597E+00 0.66782011E+03</pdfrwt>
<pdfrwt beam="2">  1       -1 0.44720583E-01 0.66782011E+03</pdfrwt>
<totfact> 0.23354581E+01</totfact>
</mgrwt>
</event>
<event>
 4    1  0.2514307E-008  0.8327323E+03  0.7818608E-02  0.9644039E-01
          1   -1    0    0  501    0  0.00000000000E+00  0.00000000000E+00  0.88623139961E+03  0.88623139962E+03  0.50400000000E-02 0. -1.
         -1   -1    0    0    0  501 -0.00000000000E+00 -0.00000000000E+00 -0.76685752935E+03  0.76685752937E+03  0.50400000000E-02 0.  1.
    8880023    1    1    2    0    0  0.22638193968E+03 -0.45649104268E+03 -0.38732221051E+03  0.91840163092E+03  0.65864270000E+03 0.  1.
    8880022    1    1    2    0    0 -0.22638193968E+03  0.45649104268E+03  0.50669608077E+03  0.73468729807E+03  0.15294330000E+03 0.  0.
<mgrwt>
<rscale>  0 0.74448690E+03</rscale>
<asrwt>0</asrwt>
<pdfrwt beam="1">  1        1 0.13634329E+00 0.83273229E+03</pdfrwt>
<pdfrwt beam="2">  1       -1 0.11797808E+00 0.83273229E+03</pdfrwt>
<totfact> 0.12296408E+01</totfact>
</mgrwt>
</event>
<event>
 4    1  0.2514307E-008  0.9222006E+03  0.7818608E-02  0.9491293E-01
         -1   -1    0    0    0  501 -0.00000000000E+00  0.00000000000E+00  0.12182276470E+04  0.12182276470E+04  0.50400000000E-02 0.  1.
          1   -1    0    0  501    0  0.00000000000E+00 -0.00000000000E+00 -0.10458289924E+04  0.10458289924E+04  0.50400000000E-02 0. -1.
    8880023    1    1    2    0    0 -0.63267510356E+03  0.12792981117E+03  0.89363588649E+03  0.12841491841E+04  0.65864270000E+03 0.  0.
    8880022    1    1    2    0    0  0.63267510356E+03 -0.12792981117E+03 -0.72123723186E+03  0.97990745527E+03  0.15294330000E+03 0.  0.
<mgrwt>
<rscale>  0 0.84928808E+03</rscale>
<asrwt>0</asrwt>
<pdfrwt beam="1">  1        1 0.16089677E+00 0.92220064E+03</pdfrwt>
<pdfrwt beam="2">  1       -1 0.18741964E+00 0.92220064E+03</pdfrwt>
<totfact> 0.26053879E+00</totfact>
</mgrwt>
</event>
<event>
 4    1  0.2514307E-008  0.1488485E+04  0.7818608E-02  0.8917810E-01
         -1   -1    0    0    0  501 -0.00000000000E+00  0.00000000000E+00  0.15706421174E+04  0.15706421174E+04  0.50400000000E-02 0.  1.
          1   -1    0    0  501    0  0.00000000000E+00 -0.00000000000E+00 -0.23215047631E+04  0.23215047631E+04  0.50400000000E-02 0. -1.
    8880023    1    1    2    0    0  0.12654976101E+04  0.42460843338E+03  0.91865374198E+03  0.17491459135E+04  0.65864270000E+03 0.  0.
    8880022    1    1    2    0    0 -0.12654976101E+04 -0.42460843338E+03 -0.16695163877E+04  0.21430009670E+04  0.15294330000E+03 0.  0.
<mgrwt>
<rscale>  0 0.14508516E+04</rscale>
<asrwt>0</asrwt>
<pdfrwt beam="1">  1        1 0.35715458E+00 0.14884847E+04</pdfrwt>
<pdfrwt beam="2">  1       -1 0.24163725E+00 0.14884847E+04</pdfrwt>
<totfact> 0.13443555E-01</totfact>
</mgrwt>
</event>
<event>
 4    1  0.2514307E-008  0.6665002E+03  0.7818608E-02  0.1018307E+00
         -1   -1    0    0    0  501 -0.00000000000E+00  0.00000000000E+00  0.14276813931E+03  0.14276813940E+03  0.50400000000E-02 0.  1.
          1   -1    0    0  501    0  0.00000000000E+00 -0.00000000000E+00 -0.21973336551E+04  0.21973336551E+04  0.50400000000E-02 0. -1.
    8880023    1    1    2    0    0 -0.54082294378E+02 -0.86529740981E+02 -0.67594619827E+03  0.94927644017E+03  0.65864270000E+03 0.  1.
    8880022    1    1    2    0    0  0.54082294378E+02  0.86529740981E+02 -0.13786193175E+04  0.13908253544E+04  0.15294330000E+03 0.  0.
<mgrwt>
<rscale>  0 0.48302669E+03</rscale>
<asrwt>0</asrwt>
<pdfrwt beam="1">  1        1 0.33805131E+00 0.66650019E+03</pdfrwt>
<pdfrwt beam="2">  1       -1 0.21964331E-01 0.66650019E+03</pdfrwt>
<totfact> 0.40106857E+01</totfact>
</mgrwt>
</event>
<event>
 4    1  0.2514307E-008  0.7584758E+03  0.7818608E-02  0.9809070E-01
          1   -1    0    0  501    0  0.00000000000E+00  0.00000000000E+00  0.28081362794E+03  0.28081362799E+03  0.50400000000E-02 0. -1.
         -1   -1    0    0    0  501 -0.00000000000E+00 -0.00000000000E+00 -0.20779412709E+04  0.20779412709E+04  0.50400000000E-02 0.  1.
    8880023    1    1    2    0    0  0.23981906360E+03  0.28976220243E+03 -0.17993867504E+04  0.19527104755E+04  0.65864270000E+03 0.  1.
    8880022    1    1    2    0    0 -0.23981906360E+03 -0.28976220243E+03  0.22591074314E+01  0.40604442344E+03  0.15294330000E+03 0.  0.
<mgrwt>
<rscale>  0 0.64878082E+03</rscale>
<asrwt>0</asrwt>
<pdfrwt beam="1">  1        1 0.43202098E-01 0.75847579E+03</pdfrwt>
<pdfrwt beam="2">  1       -1 0.31968326E+00 0.75847579E+03</pdfrwt>
<totfact> 0.24699243E+00</totfact>
</mgrwt>
</event>
<event>
 4    1  0.2514307E-008  0.8992151E+03  0.7818608E-02  0.9527293E-01
          1   -1    0    0  501    0  0.00000000000E+00  0.00000000000E+00  0.20944537698E+04  0.20944537698E+04  0.50400000000E-02 0. -1.
         -1   -1    0    0    0  501 -0.00000000000E+00 -0.00000000000E+00 -0.77900042351E+03  0.77900042353E+03  0.50400000000E-02 0.  1.
    8880023    1    1    2    0    0 -0.56154181600E+03  0.24382022971E+03 -0.44502087667E+03  0.10033101726E+04  0.65864270000E+03 0.  0.
    8880022    1    1    2    0    0  0.56154181600E+03 -0.24382022971E+03  0.17604742230E+04  0.18701440207E+04  0.15294330000E+03 0.  0.
<mgrwt>
<rscale>  0 0.82301193E+03</rscale>
<asrwt>0</asrwt>
<pdfrwt beam="1">  1        1 0.32222365E+00 0.89921506E+03</pdfrwt>
<pdfrwt beam="2">  1       -1 0.11984622E+00 0.89921506E+03</pdfrwt>
<totfact> 0.16419094E+00</totfact>
</mgrwt>
</event>
<event>
 4    1  0.2514307E-008  0.9541073E+03  0.7818608E-02  0.9444229E-01
         -1   -1    0    0    0  501 -0.00000000000E+00  0.00000000000E+00  0.60199725776E+03  0.60199725778E+03  0.50400000000E-02 0.  1.
          1   -1    0    0  501    0  0.00000000000E+00 -0.00000000000E+00 -0.16672506820E+04  0.16672506820E+04  0.50400000000E-02 0. -1.
    8880023    1    1    2    0    0 -0.58209224475E+03  0.37105134510E+03  0.42537548828E+02  0.95505504104E+03  0.65864270000E+03 0.  0.
    8880022    1    1    2    0    0  0.58209224475E+03 -0.37105134510E+03 -0.11077909731E+04  0.13141928987E+04  0.15294330000E+03 0.  0.
<mgrwt>
<rscale>  0 0.88523490E+03</rscale>
<asrwt>0</asrwt>
<pdfrwt beam="1">  1        1 0.25650010E+00 0.95410727E+03</pdfrwt>
<pdfrwt beam="2">  1       -1 0.92614963E-01 0.95410727E+03</pdfrwt>
<totfact> 0.57626361E+00</totfact>
</mgrwt>
</event>
<event>
 4    1  0.2514307E-008  0.8583955E+03  0.7818608E-02  0.9596424E-01
          1   -1    0    0  501    0  0.00000000000E+00  0.00000000000E+00  0.25936610124E+04  0.25936610124E+04  0.50400000000E-02 0. -1.
         -1   -1    0    0    0  501 -0.00000000000E+00 -0.00000000000E+00 -0.26951327382E+03  0.26951327386E+03  0.50400000000E-02 0.  1.
    8880023    1    1    2    0    0 -0.48731104511E+03 -0.25604796101E+03  0.60125963699E+03  0.10480247947E+04  0.65864270000E+03 0.  1.
    8880022    1    1    2    0    0  0.48731104511E+03  0.25604796101E+03  0.17228881016E+04  0.18151494916E+04  0.15294330000E+03 0.  0.
<mgrwt>
<rscale>  0 0.77533319E+03</rscale>
<asrwt>0</asrwt>
<pdfrwt beam="1">  1        1 0.39902480E+00 0.85839549E+03</pdfrwt>
<pdfrwt beam="2">  1       -1 0.41463578E-01 0.85839549E+03</pdfrwt>
<totfact> 0.69085818E+00</totfact>
</mgrwt>
</event>
<event>
 4    1  0.2514307E-008  0.7087104E+03  0.7818608E-02  0.9962821E-01
         -1   -1    0    0    0  501 -0.00000000000E+00  0.00000000000E+00  0.16103055832E+03  0.16103055840E+03  0.50400000000E-02 0.  1.
          1   -1    0    0  501    0  0.00000000000E+00 -0.00000000000E+00 -0.18524946000E+04  0.18524946000E+04  0.50400000000E-02 0. -1.
    8880023    1    1    2    0    0 -0.12327112283E+03  0.23079087476E+03 -0.78427948792E+03  0.10570547380E+04  0.65864270000E+03 0.  0.
    8880022    1    1    2    0    0  0.12327112283E+03 -0.23079087476E+03 -0.90718455375E+03  0.95647042043E+03  0.15294330000E+03 0.  0.
<mgrwt>
<rscale>  0 0.57310947E+03</rscale>
<asrwt>0</asrwt>
<pdfrwt beam="1">  1        1 0.28499915E+00 0.70871038E+03</pdfrwt>
<pdfrwt beam="2">  1       -1 0.24773933E-01 0.70871038E+03</pdfrwt>
<totfact> 0.55296119E+01</totfact>
</mgrwt>
</event>
<event>
 4    1  0.2514307E-008  0.1450258E+04  0.7818608E-02  0.8945584E-01
          1   -1    0    0  501    0  0.00000000000E+00  0.00000000000E+00  0.10893372152E+04  0.10893372152E+04  0.50400000000E-02 0. -1.
         -1   -1    0    0    0  501 -0.00000000000E+00 -0.00000000000E+00 -0.25989085035E+04  0.25989085035E+04  0.50400000000E-02 0.  1.
    8880023    1    1    2    0    0 -0.12552255038E+04  0.30634229909E+03  0.27864924399E+03  0.14767844382E+04  0.65864270000E+03 0.  0.
    8880022    1    1    2    0    0  0.12552255038E+04 -0.30634229909E+03 -0.17882205323E+04  0.22114612804E+04  0.15294330000E+03 0.  0.
<mgrwt>
<rscale>  0 0.14114336E+04</rscale>
<asrwt>0</asrwt>
<pdfrwt beam="1">  1        1 0.16759034E+00 0.14502575E+04</pdfrwt>
<pdfrwt beam="2">  1       -1 0.39983208E+00 0.14502575E+04</pdfrwt>
<totfact> 0.88690431E-02</totfact>
</mgrwt>
</event>
<event>
 4    1  0.2514307E-008  0.9100637E+03  0.7818608E-02  0.9510065E-01
          1   -1    0    0  501    0  0.00000000000E+00  0.00000000000E+00  0.15446577486E+04  0.15446577486E+04  0.50400000000E-02 0. -1.
         -1   -1    0    0    0  501 -0.00000000000E+00 -0.00000000000E+00 -0.46186908238E+03  0.46186908241E+03  0.50400000000E-02 0.  1.
    8880023    1    1    2    0    0 -0.17286830511E+03  0.60375677270E+03  0.23404045637E+03  0.93967591912E+03  0.65864270000E+03 0.  0.
    8880022    1    1    2    0    0  0.17286830511E+03 -0.60375677270E+03  0.84874820987E+03  0.10668509119E+04  0.15294330000E+03 0.  0.
<mgrwt>
<rscale>  0 0.83545785E+03</rscale>
<asrwt>0</asrwt>
<pdfrwt beam="1">  1        1 0.23763965E+00 0.91006368E+03</pdfrwt>
<pdfrwt beam="2">  1       -1 0.71056783E-01 0.91006368E+03</pdfrwt>
<totfact> 0.12387790E+01</totfact>
</mgrwt>
</event>
<event>
 4    1  0.2514307E-008  0.9772512E+03  0.7818608E-02  0.9411944E-01
         -1   -1    0    0    0  501 -0.00000000000E+00  0.00000000000E+00  0.13040032790E+04  0.13040032790E+04  0.50400000000E-02 0.  1.
          1   -1    0    0  501    0  0.00000000000E+00 -0.00000000000E+00 -0.10443936538E+04  0.10443936538E+04  0.50400000000E-02 0. -1.
    8880023    1    1    2    0    0  0.16868376922E+03 -0.70196545689E+03  0.93172100661E+03  0.13502310754E+04  0.65864270000E+03 0.  0.
    8880022    1    1    2    0    0 -0.16868376922E+03  0.70196545689E+03 -0.67211138148E+03  0.99816585736E+03  0.15294330000E+03 0.  0.
<mgrwt>
<rscale>  0 0.91099187E+03</rscale>
<asrwt>0</asrwt>
<pdfrwt beam="1">  1        1 0.16067595E+00 0.97725121E+03</pdfrwt>
<pdfrwt beam="2">  1       -1 0.20061589E+00 0.97725121E+03</pdfrwt>
<totfact> 0.20987984E+00</totfact>
</mgrwt>
</event>
<event>
 4    1  0.2514307E-008  0.7865989E+03  0.7818608E-02  0.9740558E-01
          1   -1    0    0  501    0  0.00000000000E+00  0.00000000000E+00  0.17073383557E+04  0.17073383557E+04  0.50400000000E-02 0. -1.
         -1   -1    0    0    0  501 -0.00000000000E+00 -0.00000000000E+00 -0.65874216406E+03  0.65874216408E+03  0.50400000000E-02 0.  1.
    8880023    1    1    2    0    0 -0.28804777933E+03  0.31930569266E+03 -0.37477782792E+03  0.87131869893E+03  0.65864270000E+03 0.  1.
    8880022    1    1    2    0    0  0.28804777933E+03 -0.31930569266E+03  0.14233740196E+04  0.14947618209E+04  0.15294330000E+03 0.  0.
<mgrwt>
<rscale>  0 0.68652475E+03</rscale>
<asrwt>0</asrwt>
<pdfrwt beam="1">  1        1 0.26266744E+00 0.78659892E+03</pdfrwt>
<pdfrwt beam="2">  1       -1 0.10134495E+00 0.78659892E+03</pdfrwt>
<totfact> 0.45248559E+00</totfact>
</mgrwt>
</event>
<event>
 4    1  0.2514307E-008  0.1208713E+04  0.7818608E-02  0.9148699E-01
         -1   -1    0    0    0  501 -0.00000000000E+00  0.00000000000E+00  0.59499151618E+03  0.59499151621E+03  0.50400000000E-02 0.  1.
          1   -1    0    0  501    0  0.00000000000E+00 -0.00000000000E+00 -0.30848935561E+04  0.30848935561E+04  0.50400000000E-02 0. -1.
    8880023    1    1    2    0    0 -0.19390838563E+03  0.99477499219E+03 -0.27541203997E+03  0.12396934077E+04  0.65864270000E+03 0.  0.
    8880022    1    1    2    0    0  0.19390838563E+03 -0.99477499219E+03 -0.22144899999E+04  0.24401916646E+04  0.15294330000E+03 0.  0.
<mgrwt>
<rscale>  0 0.11599001E+04</rscale>
<asrwt>0</asrwt>
<pdfrwt beam="1">  1        1 0.47459900E+00 0.12087133E+04</pdfrwt>
<pdfrwt beam="2">  1       -1 0.91537158E-01 0.12087133E+04</pdfrwt>
<totfact> 0.60054846E-01</totfact>
</mgrwt>
</event>
<event>
 4    1  0.2514307E-008  0.7046085E+03  0.7818608E-02  0.9978595E-01
          1   -1    0    0  501    0  0.00000000000E+00  0.00000000000E+00  0.74461082181E+03  0.74461082183E+03  0.50400000000E-02 0. -1.
         -1   -1    0    0    0  501 -0.00000000000E+00 -0.00000000000E+00 -0.34250213592E+03  0.34250213596E+03  0.50400000000E-02 0.  1.
    8880023    1    1    2    0    0  0.23390176231E+03  0.89178717683E+02  0.20547650696E+03  0.73395754596E+03  0.65864270000E+03 0.  1.
    8880022    1    1    2    0    0 -0.23390176231E+03 -0.89178717683E+02  0.19663217893E+03  0.35315541183E+03  0.15294330000E+03 0. -1.
<mgrwt>
<rscale>  0 0.56598850E+03</rscale>
<asrwt>0</asrwt>
<pdfrwt beam="1">  1        1 0.11455551E+00 0.70460846E+03</pdfrwt>
<pdfrwt beam="2">  1       -1 0.52692636E-01 0.70460846E+03</pdfrwt>
<totfact> 0.91946600E+01</totfact>
</mgrwt>
</event>
<event>
 4    1  0.2514307E-008  0.1374709E+04  0.7818608E-02  0.9003588E-01
         -1   -1    0    0    0  501 -0.00000000000E+00  0.00000000000E+00  0.15872801365E+04  0.15872801365E+04  0.50400000000E-02 0.  1.
          1   -1    0    0  501    0  0.00000000000E+00 -0.00000000000E+00 -0.14663858505E+04  0.14663858505E+04  0.50400000000E-02 0. -1.
    8880023    1    1    2    0    0  0.12057597182E+04 -0.46444962512E+02  0.86840059393E+03  0.16260207349E+04  0.65864270000E+03 0.  1.
    8880022    1    1    2    0    0 -0.12057597182E+04  0.46444962512E+02 -0.74750630787E+03  0.14276452521E+04  0.15294330000E+03 0.  0.
<mgrwt>
<rscale>  0 0.13332724E+04</rscale>
<asrwt>0</asrwt>
<pdfrwt beam="1">  1        1 0.22559782E+00 0.13747086E+04</pdfrwt>
<pdfrwt beam="2">  1       -1 0.24419694E+00 0.13747086E+04</pdfrwt>
<totfact> 0.50402415E-01</totfact>
</mgrwt>
</event>
<event>
 4    1  0.2514307E-008  0.1131405E+04  0.7818608E-02  0.9226870E-01
         -1   -1    0    0    0  501 -0.00000000000E+00  0.00000000000E+00  0.16442069744E+04  0.16442069744E+04  0.50400000000E-02 0.  1.
          1   -1    0    0  501    0  0.00000000000E+00 -0.00000000000E+00 -0.67271912493E+03  0.67271912495E+03  0.50400000000E-02 0. -1.
    8880023    1    1    2    0    0 -0.18407479335E+03  0.90132372894E+03  0.30847751140E+03  0.11727048116E+04  0.65864270000E+03 0.  0.
    8880022    1    1    2    0    0  0.18407479335E+03 -0.90132372894E+03  0.66301033808E+03  0.11442212877E+04  0.15294330000E+03 0.  0.
<mgrwt>
<rscale>  0 0.10780337E+04</rscale>
<asrwt>0</asrwt>
<pdfrwt beam="1">  1        1 0.10349525E+00 0.11314054E+04</pdfrwt>
<pdfrwt beam="2">  1       -1 0.25295492E+00 0.11314054E+04</pdfrwt>
<totfact> 0.19155742E+00</totfact>
</mgrwt>
</event>
<event>
 4    1  0.2514307E-008  0.9835713E+03  0.7818608E-02  0.9403374E-01
          1   -1    0    0  501    0  0.00000000000E+00  0.00000000000E+00  0.34077484114E+04  0.34077484114E+04  0.50400000000E-02 0. -1.
         -1   -1    0    0    0  501 -0.00000000000E+00 -0.00000000000E+00 -0.25404839204E+03  0.25404839209E+03  0.50400000000E-02 0.  1.
    8880023    1    1    2    0    0  0.60932733068E+03 -0.40289261076E+03  0.24330343705E+04  0.26243225233E+04  0.65864270000E+03 0.  0.
    8880022    1    1    2    0    0 -0.60932733068E+03  0.40289261076E+03  0.72066564886E+03  0.10374742803E+04  0.15294330000E+03 0.  0.
<mgrwt>
<rscale>  0 0.91798521E+03</rscale>
<asrwt>0</asrwt>
<pdfrwt beam="1">  1        1 0.52426898E+00 0.98357128E+03</pdfrwt>
<pdfrwt beam="2">  1       -1 0.39084368E-01 0.98357128E+03</pdfrwt>
<totfact> 0.19480833E+00</totfact>
</mgrwt>
</event>
<event>
 4    1  0.2514307E-008  0.6970115E+03  0.7818608E-02  0.1000983E+00
         -1   -1    0    0    0  501 -0.00000000000E+00  0.00000000000E+00  0.26164553766E+03  0.26164553771E+03  0.50400000000E-02 0.  1.
          1   -1    0    0  501    0  0.00000000000E+00 -0.00000000000E+00 -0.15679440687E+04  0.15679440687E+04  0.50400000000E-02 0. -1.
    8880023    1    1    2    0    0  0.10478849427E+03 -0.20256906267E+03 -0.25367710683E+03  0.74173926314E+03  0.65864270000E+03 0.  0.
    8880022    1    1    2    0    0 -0.10478849427E+03  0.20256906267E+03 -0.10526214242E+04  0.10878503433E+04  0.15294330000E+03 0. -1.
<mgrwt>
<rscale>  0 0.55221229E+03</rscale>
<asrwt>0</asrwt>
<pdfrwt beam="1">  1        1 0.24122216E+00 0.69701152E+03</pdfrwt>
<pdfrwt beam="2">  1       -1 0.40253161E-01 0.69701152E+03</pdfrwt>
<totfact> 0.36685681E+01</totfact>
</mgrwt>
</event>
<event>
 4    1  0.2514307E-008  0.1602259E+04  0.7818608E-02  0.8840611E-01
         -1   -1    0    0    0  501 -0.00000000000E+00  0.00000000000E+00  0.11612037848E+04  0.11612037848E+04  0.50400000000E-02 0.  1.
          1   -1    0    0  501    0  0.00000000000E+00 -0.00000000000E+00 -0.38024197064E+04  0.38024197064E+04  0.50400000000E-02 0. -1.
    8880023    1    1    2    0    0 -0.10902284339E+04  0.97202088019E+03  0.34214137992E+03  0.16383813841E+04  0.65864270000E+03 0.  0.
    8880022    1    1    2    0    0  0.10902284339E+04 -0.97202088019E+03 -0.29833573015E+04  0.33252421072E+04  0.15294330000E+03 0.  0.
<mgrwt>
<rscale>  0 0.15677473E+04</rscale>
<asrwt>0</asrwt>
<pdfrwt beam="1">  1        1 0.58498764E+00 0.16022587E+04</pdfrwt>
<pdfrwt beam="2">  1       -1 0.17864674E+00 0.16022587E+04</pdfrwt>
<totfact> 0.28469763E-02</totfact>
</mgrwt>
</event>
<event>
 4    1  0.2514307E-008  0.6658787E+03  0.7818608E-02  0.1018807E+00
         -1   -1    0    0    0  501 -0.00000000000E+00  0.00000000000E+00  0.80598199068E+03  0.80598199070E+03  0.50400000000E-02 0.  1.
          1   -1    0    0  501    0  0.00000000000E+00 -0.00000000000E+00 -0.10973335595E+04  0.10973335595E+04  0.50400000000E-02 0. -1.
    8880023    1    1    2    0    0  0.56559538984E+02  0.79907495501E+02  0.65836333315E+03  0.93639557559E+03  0.65864270000E+03 0.  1.
    8880022    1    1    2    0    0 -0.56559538984E+02 -0.79907495501E+02 -0.94971490195E+03  0.96691997460E+03  0.15294330000E+03 0.  0.
<mgrwt>
<rscale>  0 0.48119467E+03</rscale>
<asrwt>0</asrwt>
<pdfrwt beam="1">  1        1 0.16882055E+00 0.66587866E+03</pdfrwt>
<pdfrwt beam="2">  1       -1 0.12399723E+00 0.66587866E+03</pdfrwt>
<totfact> 0.76272817E+00</totfact>
</mgrwt>
</event>
<event>
 4    1  0.2514307E-008  0.1022215E+04  0.7818608E-02  0.9353054E-01
         -1   -1    0    0    0  501 -0.00000000000E+00  0.00000000000E+00  0.44090792066E+03  0.44090792069E+03  0.50400000000E-02 0.  1.
          1   -1    0    0  501    0  0.00000000000E+00 -0.00000000000E+00 -0.23727572655E+04  0.23727572655E+04  0.50400000000E-02 0. -1.
    8880023    1    1    2    0    0  0.61366665814E+03 -0.48427842806E+03 -0.42064736037E+03  0.11053808263E+04  0.65864270000E+03 0.  1.
    8880022    1    1    2    0    0 -0.61366665814E+03  0.48427842806E+03 -0.15112019844E+04  0.17082843598E+04  0.15294330000E+03 0.  0.
<mgrwt>
<rscale>  0 0.96041921E+03</rscale>
<asrwt>0</asrwt>
<pdfrwt beam="1">  1        1 0.36503957E+00 0.10222145E+04</pdfrwt>
<pdfrwt beam="2">  1       -1 0.67831989E-01 0.10222145E+04</pdfrwt>
<totfact> 0.37006310E+00</totfact>
</mgrwt>
</event>
<event>
 4    1  0.2514307E-008  0.1313217E+04  0.7818608E-02  0.9054229E-01
          1   -1    0    0  501    0  0.00000000000E+00  0.00000000000E+00  0.17776358627E+04  0.17776358627E+04  0.50400000000E-02 0. -1.
         -1   -1    0    0    0  501 -0.00000000000E+00 -0.00000000000E+00 -0.15075359771E+04  0.15075359771E+04  0.50400000000E-02 0.  1.
    8880023    1    1    2    0    0 -0.97922523733E+02  0.11318743881E+04 -0.94254159268E+03  0.16164539311E+04  0.65864270000E+03 0. -1.
    8880022    1    1    2    0    0  0.97922523733E+02 -0.11318743881E+04  0.12126414783E+04  0.16687179088E+04  0.15294330000E+03 0.  0.
<mgrwt>
<rscale>  0 0.12693510E+04</rscale>
<asrwt>0</asrwt>
<pdfrwt beam="1">  1        1 0.27348244E+00 0.13132169E+04</pdfrwt>
<pdfrwt beam="2">  1       -1 0.23192861E+00 0.13132169E+04</pdfrwt>
<totfact> 0.37359781E-01</totfact>
</mgrwt>
</event>
<event>
 4    1  0.2514307E-008  0.9504637E+03  0.7818608E-02  0.9449447E-01
         -1   -1    0    0    0  501 -0.00000000000E+00  0.00000000000E+00  0.11589228360E+04  0.11589228360E+04  0.50400000000E-02 0.  1.
          1   -1    0    0  501    0  0.00000000000E+00 -0.00000000000E+00 -0.99099930564E+03  0.99099930566E+03  0.50400000000E-02 0. -1.
    8880023    1    1    2    0    0 -0.43015535733E+03 -0.53342047000E+03  0.77139418693E+03  0.12241038466E+04  0.65864270000E+03 0.  0.
    8880022    1    1    2    0    0  0.43015535733E+03  0.53342047000E+03 -0.60347065655E+03  0.92581829513E+03  0.15294330000E+03 0.  0.
<mgrwt>
<rscale>  0 0.88115722E+03</rscale>
<asrwt>0</asrwt>
<pdfrwt beam="1">  1        1 0.15246143E+00 0.95046370E+03</pdfrwt>
<pdfrwt beam="2">  1       -1 0.17829582E+00 0.95046370E+03</pdfrwt>
<totfact> 0.33236575E+00</totfact>
</mgrwt>
</event>
<event>
 4    1  0.2514307E-008  0.7473989E+03  0.7818608E-02  0.9838896E-01
          1   -1    0    0  501    0  0.00000000000E+00  0.00000000000E+00  0.13556408404E+04  0.13556408404E+04  0.50400000000E-02 0. -1.
         -1   -1    0    0    0  501 -0.00000000000E+00 -0.00000000000E+00 -0.11960010458E+04  0.11960010458E+04  0.50400000000E-02 0.  1.
    8880023    1    1    2    0    0  0.25764877903E+03 -0.24168581771E+03 -0.10462579980E+04  0.12857919476E+04  0.65864270000E+03 0.  1.
    8880022    1    1    2    0    0 -0.25764877903E+03  0.24168581771E+03  0.12058977926E+04  0.12658499386E+04  0.15294330000E+03 0.  0.
<mgrwt>
<rscale>  0 0.63316289E+03</rscale>
<asrwt>0</asrwt>
<pdfrwt beam="1">  1        1 0.20856013E+00 0.74739891E+03</pdfrwt>
<pdfrwt beam="2">  1       -1 0.18400016E+00 0.74739891E+03</pdfrwt>
<totfact> 0.16856554E+00</totfact>
</mgrwt>
</event>
<event>
 4    1  0.2514307E-008  0.1007225E+04  0.7818608E-02  0.9372166E-01
          1   -1    0    0  501    0  0.00000000000E+00  0.00000000000E+00  0.21263905051E+04  0.21263905051E+04  0.50400000000E-02 0. -1.
         -1   -1    0    0    0  501 -0.00000000000E+00 -0.00000000000E+00 -0.71568961904E+03  0.71568961906E+03  0.50400000000E-02 0.  1.
    8880023    1    1    2    0    0  0.71780843893E+03  0.25581660928E+03 -0.22416482514E+03  0.10318678053E+04  0.65864270000E+03 0.  1.
    8880022    1    1    2    0    0 -0.71780843893E+03 -0.25581660928E+03  0.16348657112E+04  0.18102123189E+04  0.15294330000E+03 0.  0.
<mgrwt>
<rscale>  0 0.94402127E+03</rscale>
<asrwt>0</asrwt>
<pdfrwt beam="1">  1        1 0.32713699E+00 0.10072246E+04</pdfrwt>
<pdfrwt beam="2">  1       -1 0.11010610E+00 0.10072246E+04</pdfrwt>
<totfact> 0.18836900E+00</totfact>
</mgrwt>
</event>
<event>
 4    1  0.2514307E-008  0.1442836E+04  0.7818608E-02  0.8951093E-01
          1   -1    0    0  501    0  0.00000000000E+00  0.00000000000E+00  0.18573571096E+04  0.18573571096E+04  0.50400000000E-02 0. -1.
         -1   -1    0    0    0  501 -0.00000000000E+00 -0.00000000000E+00 -0.12132322331E+04  0.12132322331E+04  0.50400000000E-02 0.  1.
    8880023    1    1    2    0    0  0.10316350107E+04 -0.76399942559E+03  0.96844801810E+03  0.17377191050E+04  0.65864270000E+03 0.  0.
    8880022    1    1    2    0    0 -0.10316350107E+04  0.76399942559E+03 -0.32432314158E+03  0.13328702378E+04  0.15294330000E+03 0.  0.
<mgrwt>
<rscale>  0 0.14037715E+04</rscale>
<asrwt>0</asrwt>
<pdfrwt beam="1">  1        1 0.28574725E+00 0.14428361E+04</pdfrwt>
<pdfrwt beam="2">  1       -1 0.18665111E+00 0.14428361E+04</pdfrwt>
<totfact> 0.66195186E-01</totfact>
</mgrwt>
</event>
<event>
 4    1  0.2514307E-008  0.1904522E+04  0.7818608E-02  0.8666821E-01
          1   -1    0    0  501    0  0.00000000000E+00  0.00000000000E+00  0.21201405990E+04  0.21201405990E+04  0.50400000000E-02 0. -1.
         -1   -1    0    0    0  501 -0.00000000000E+00 -0.00000000000E+00 -0.17622590380E+04  0.17622590380E+04  0.50400000000E-02 0.  1.
    8880023    1    1    2    0    0 -0.25958354504E+02  0.17868182880E+04 -0.38163389783E+03  0.19423820604E+04  0.65864270000E+03 0.  0.
    8880022    1    1    2    0    0  0.25958354504E+02 -0.17868182880E+04  0.73951545881E+03  0.19400175765E+04  0.15294330000E+03 0.  0.
<mgrwt>
<rscale>  0 0.18761486E+04</rscale>
<asrwt>0</asrwt>
<pdfrwt beam="1">  1        1 0.32617548E+00 0.19045219E+04</pdfrwt>
<pdfrwt beam="2">  1       -1 0.27111678E+00 0.19045219E+04</pdfrwt>
<totfact> 0.11307752E-01</totfact>
</mgrwt>
</event>
<event>
 4    1  0.2514307E-008  0.1150523E+04  0.7818608E-02  0.9206785E-01
         -1   -1    0    0    0  501 -0.00000000000E+00  0.00000000000E+00  0.76302779652E+03  0.76302779654E+03  0.50400000000E-02 0.  1.
          1   -1    0    0  501    0  0.00000000000E+00 -0.00000000000E+00 -0.25456670673E+04  0.25456670673E+04  0.50400000000E-02 0. -1.
    8880023    1    1    2    0    0 -0.48894539994E+03  0.80673797541E+03  0.14258886021E+03  0.11593254739E+04  0.65864270000E+03 0. -1.
    8880022    1    1    2    0    0  0.48894539994E+03 -0.80673797541E+03 -0.19252281310E+04  0.21493693899E+04  0.15294330000E+03 0.  0.
<mgrwt>
<rscale>  0 0.10983668E+04</rscale>
<asrwt>0</asrwt>
<pdfrwt beam="1">  1        1 0.39164108E+00 0.11505233E+04</pdfrwt>
<pdfrwt beam="2">  1       -1 0.11738889E+00 0.11505233E+04</pdfrwt>
<totfact> 0.81930342E-01</totfact>
</mgrwt>
</event>
<event>
 4    1  0.2514307E-008  0.6635248E+03  0.7818608E-02  0.1020805E+00
          1   -1    0    0  501    0  0.00000000000E+00  0.00000000000E+00  0.21889294239E+04  0.21889294239E+04  0.50400000000E-02 0. -1.
         -1   -1    0    0    0  501 -0.00000000000E+00 -0.00000000000E+00 -0.16172170001E+03  0.16172170009E+03  0.50400000000E-02 0.  1.
    8880023    1    1    2    0    0  0.80300280143E+02 -0.25993696853E+01  0.54568902410E+03  0.85909348094E+03  0.65864270000E+03 0.  1.
    8880022    1    1    2    0    0 -0.80300280143E+02  0.25993696853E+01  0.14815186998E+04  0.14915576430E+04  0.15294330000E+03 0.  0.
<mgrwt>
<rscale>  0 0.47397409E+03</rscale>
<asrwt>0</asrwt>
<pdfrwt beam="1">  1        1 0.33675836E+00 0.66352475E+03</pdfrwt>
<pdfrwt beam="2">  1       -1 0.24880263E-01 0.66352475E+03</pdfrwt>
<totfact> 0.32929844E+01</totfact>
</mgrwt>
</event>
<event>
 4    1  0.2514307E-008  0.9443380E+03  0.7818608E-02  0.9458308E-01
         -1   -1    0    0    0  501 -0.00000000000E+00  0.00000000000E+00  0.64015525472E+03  0.64015525474E+03  0.50400000000E-02 0.  1.
          1   -1    0    0  501    0  0.00000000000E+00 -0.00000000000E+00 -0.19028398383E+04  0.19028398383E+04  0.50400000000E-02 0. -1.
    8880023    1    1    2    0    0 -0.19282786266E+03 -0.64867670658E+03 -0.15312523988E+04  0.17990297856E+04  0.65864270000E+03 0. -1.
    8880022    1    1    2    0    0  0.19282786266E+03  0.64867670658E+03  0.26856781526E+03  0.74396530745E+03  0.15294330000E+03 0.  0.
<mgrwt>
<rscale>  0 0.87428669E+03</rscale>
<asrwt>0</asrwt>
<pdfrwt beam="1">  1        1 0.29274459E+00 0.94433800E+03</pdfrwt>
<pdfrwt beam="2">  1       -1 0.98485424E-01 0.94433800E+03</pdfrwt>
<totfact> 0.34839569E+00</totfact>
</mgrwt>
</event>
<event>
 4    1  0.2514307E-008  0.8641659E+03  0.7818608E-02  0.9586196E-01
         -1   -1    0    0    0  501 -0.00000000000E+00  0.00000000000E+00  0.78808538826E+03  0.78808538828E+03  0.50400000000E-02 0.  1.
          1   -1    0    0  501    0  0.00000000000E+00 -0.00000000000E+00 -0.35811392570E+04  0.35811392570E+04  0.50400000000E-02 0. -1.
    8880023    1    1    2    0    0 -0.35478678514E+03  0.43254918432E+03  0.51815700823E+03  0.10076057519E+04  0.65864270000E+03 0.  1.
    8880022    1    1    2    0    0  0.35478678514E+03 -0.43254918432E+03 -0.33112108770E+04  0.33616188934E+04  0.15294330000E+03 0.  0.
<mgrwt>
<rscale>  0 0.78216620E+03</rscale>
<asrwt>0</asrwt>
<pdfrwt beam="1">  1        1 0.55094449E+00 0.86416588E+03</pdfrwt>
<pdfrwt beam="2">  1       -1 0.12124391E+00 0.86416588E+03</pdfrwt>
<totfact> 0.13949704E-01</totfact>
</mgrwt>
</event>
<event>
 4    1  0.2514307E-008  0.1459416E+04  0.7818608E-02  0.8938838E-01
         -1   -1    0    0    0  501 -0.00000000000E+00  0.00000000000E+00  0.83561901271E+03  0.83561901273E+03  0.50400000000E-02 0.  1.
          1   -1    0    0  501    0  0.00000000000E+00 -0.00000000000E+00 -0.34027260952E+04  0.34027260952E+04  0.50400000000E-02 0. -1.
    8880023    1    1    2    0    0  0.20004495040E+02  0.13021845517E+04 -0.12286856613E+03  0.14645790103E+04  0.65864270000E+03 0.  0.
    8880022    1    1    2    0    0 -0.20004495040E+02 -0.13021845517E+04 -0.24442385163E+04  0.27737660976E+04  0.15294330000E+03 0.  0.
<mgrwt>
<rscale>  0 0.14208847E+04</rscale>
<asrwt>0</asrwt>
<pdfrwt beam="1">  1        1 0.52349632E+00 0.14594160E+04</pdfrwt>
<pdfrwt beam="2">  1       -1 0.12855677E+00 0.14594160E+04</pdfrwt>
<totfact> 0.14956261E-01</totfact>
</mgrwt>
</event>
<event>
 4    1  0.2514307E-008  0.7049887E+03  0.7818608E-02  0.9977103E-01
          1   -1    0    0  501    0  0.00000000000E+00  0.00000000000E+00  0.30583969082E+03  0.30583969086E+03  0.50400000000E-02 0. -1.
         -1   -1    0    0    0  501 -0.00000000000E+00 -0.00000000000E+00 -0.24595199552E+04  0.24595199552E+04  0.50400000000E-02 0.  1.
    8880023    1    1    2    0    0 -0.61321399707E+02 -0.24380014099E+03 -0.23217902600E+04  0.24264622479E+04  0.65864270000E+03 0.  1.
    8880022    1    1    2    0    0  0.61321399707E+02  0.24380014099E+03  0.16810999566E+03  0.33889739813E+03  0.15294330000E+03 0.  0.
<mgrwt>
<rscale>  0 0.56665715E+03</rscale>
<asrwt>0</asrwt>
<pdfrwt beam="1">  1        1 0.47052262E-01 0.70498867E+03</pdfrwt>
<pdfrwt beam="2">  1       -1 0.37838767E+00 0.70498867E+03</pdfrwt>
<totfact> 0.92154042E-01</totfact>
</mgrwt>
</event>
<event>
 4    1  0.2514307E-008  0.9282107E+03  0.7818608E-02  0.9482183E-01
         -1   -1    0    0    0  501 -0.00000000000E+00  0.00000000000E+00  0.96287125948E+03  0.96287125950E+03  0.50400000000E-02 0.  1.
          1   -1    0    0  501    0  0.00000000000E+00 -0.00000000000E+00 -0.73842217829E+03  0.73842217831E+03  0.50400000000E-02 0. -1.
    8880023    1    1    2    0    0 -0.43897493665E+03 -0.48483597261E+03  0.39427024101E+03  0.10084761497E+04  0.65864270000E+03 0.  1.
    8880022    1    1    2    0    0  0.43897493665E+03  0.48483597261E+03 -0.16982115981E+03  0.69281728809E+03  0.15294330000E+03 0. -1.
<mgrwt>
<rscale>  0 0.85610265E+03</rscale>
<asrwt>0</asrwt>
<pdfrwt beam="1">  1        1 0.11360341E+00 0.92821071E+03</pdfrwt>
<pdfrwt beam="2">  1       -1 0.14813404E+00 0.92821071E+03</pdfrwt>
<totfact> 0.91436246E+00</totfact>
</mgrwt>
</event>
<event>
 4    1  0.2514307E-008  0.1659039E+04  0.7818608E-02  0.8804800E-01
         -1   -1    0    0    0  501 -0.00000000000E+00  0.00000000000E+00  0.17138085563E+04  0.17138085563E+04  0.50400000000E-02 0.  1.
          1   -1    0    0  501    0  0.00000000000E+00 -0.00000000000E+00 -0.29049447296E+04  0.29049447296E+04  0.50400000000E-02 0. -1.
    8880023    1    1    2    0    0 -0.11400928370E+04 -0.10093506633E+04  0.10067180630E+04  0.19405906068E+04  0.65864270000E+03 0.  1.
    8880022    1    1    2    0    0  0.11400928370E+04  0.10093506633E+04 -0.21978542363E+04  0.26781626791E+04  0.15294330000E+03 0.  0.
<mgrwt>
<rscale>  0 0.16258880E+04</rscale>
<asrwt>0</asrwt>
<pdfrwt beam="1">  1        1 0.44691457E+00 0.16590391E+04</pdfrwt>
<pdfrwt beam="2">  1       -1 0.26366285E+00 0.16590391E+04</pdfrwt>
<totfact> 0.36802045E-02</totfact>
</mgrwt>
</event>
<event>
 4    1  0.2514307E-008  0.7888619E+03  0.7818608E-02  0.9735417E-01
         -1   -1    0    0    0  501 -0.00000000000E+00  0.00000000000E+00  0.77922812880E+03  0.77922812882E+03  0.50400000000E-02 0.  1.
          1   -1    0    0  501    0  0.00000000000E+00 -0.00000000000E+00 -0.72880875310E+03  0.72880875312E+03  0.50400000000E-02 0. -1.
    8880023    1    1    2    0    0  0.40226483942E+03 -0.16332778820E+03  0.44151864395E+03  0.90401431772E+03  0.65864270000E+03 0.  0.
    8880022    1    1    2    0    0 -0.40226483942E+03  0.16332778820E+03 -0.39109926826E+03  0.60402256421E+03  0.15294330000E+03 0.  0.
<mgrwt>
<rscale>  0 0.68946653E+03</rscale>
<asrwt>0</asrwt>
<pdfrwt beam="1">  1        1 0.11212442E+00 0.78886195E+03</pdfrwt>
<pdfrwt beam="2">  1       -1 0.11988125E+00 0.78886195E+03</pdfrwt>
<totfact> 0.16266044E+01</totfact>
</mgrwt>
</event>
<event>
 4    1  0.2514307E-008  0.7337519E+03  0.7818608E-02  0.9878536E-01
          1   -1    0    0  501    0  0.00000000000E+00  0.00000000000E+00  0.12104462830E+04  0.12104462830E+04  0.50400000000E-02 0. -1.
         -1   -1    0    0    0  501 -0.00000000000E+00 -0.00000000000E+00 -0.74674056598E+03  0.74674056600E+03  0.50400000000E-02 0.  1.
    8880023    1    1    2    0    0  0.30155258099E+03  0.11682330906E+03 -0.52731391949E+03  0.90357723554E+03  0.65864270000E+03 0.  1.
    8880022    1    1    2    0    0 -0.30155258099E+03 -0.11682330906E+03  0.99101963652E+03  0.10536096135E+04  0.15294330000E+03 0.  0.
<mgrwt>
<rscale>  0 0.61312899E+03</rscale>
<asrwt>0</asrwt>
<pdfrwt beam="1">  1        1 0.18622250E+00 0.73375190E+03</pdfrwt>
<pdfrwt beam="2">  1       -1 0.11488316E+00 0.73375190E+03</pdfrwt>
<totfact> 0.75043741E+00</totfact>
</mgrwt>
</event>
<event>
 4    1  0.2514307E-008  0.7452418E+03  0.7818608E-02  0.9844933E-01
         -1   -1    0    0    0  501 -0.00000000000E+00  0.00000000000E+00  0.10725834946E+04  0.10725834946E+04  0.50400000000E-02 0.  1.
          1   -1    0    0  501    0  0.00000000000E+00 -0.00000000000E+00 -0.83451197357E+03  0.83451197359E+03  0.50400000000E-02 0. -1.
    8880023    1    1    2    0    0  0.23873886040E+02 -0.34785797107E+03  0.88466616039E+03  0.11567279508E+04  0.65864270000E+03 0.  1.
    8880022    1    1    2    0    0 -0.23873886040E+02  0.34785797107E+03 -0.64659463940E+03  0.75036751741E+03  0.15294330000E+03 0.  0.
<mgrwt>
<rscale>  0 0.63005936E+03</rscale>
<asrwt>0</asrwt>
<pdfrwt beam="1">  1        1 0.12838646E+00 0.74524180E+03</pdfrwt>
<pdfrwt beam="2">  1       -1 0.16501285E+00 0.74524180E+03</pdfrwt>
<totfact> 0.57280648E+00</totfact>
</mgrwt>
</event>
<event>
 4    1  0.2514307E-008  0.6749877E+03  0.7818608E-02  0.1012314E+00
         -1   -1    0    0    0  501 -0.00000000000E+00  0.00000000000E+00  0.21836652992E+03  0.21836652998E+03  0.50400000000E-02 0.  1.
          1   -1    0    0  501    0  0.00000000000E+00 -0.00000000000E+00 -0.18587656662E+04  0.18587656662E+04  0.50400000000E-02 0. -1.
    8880023    1    1    2    0    0 -0.11781544793E+03  0.88981292518E+02 -0.33317761730E+03  0.75273878678E+03  0.65864270000E+03 0.  1.
    8880022    1    1    2    0    0  0.11781544793E+03 -0.88981292518E+02 -0.13072215190E+04  0.13243934094E+04  0.15294330000E+03 0.  0.
<mgrwt>
<rscale>  0 0.50565224E+03</rscale>
<asrwt>0</asrwt>
<pdfrwt beam="1">  1        1 0.28596394E+00 0.67498767E+03</pdfrwt>
<pdfrwt beam="2">  1       -1 0.33594852E-01 0.67498767E+03</pdfrwt>
<totfact> 0.32448075E+01</totfact>
</mgrwt>
</event>
<event>
 4    1  0.2514307E-008  0.1123988E+04  0.7818608E-02  0.9234807E-01
          1   -1    0    0  501    0  0.00000000000E+00  0.00000000000E+00  0.16735991273E+04  0.16735991273E+04  0.50400000000E-02 0. -1.
         -1   -1    0    0    0  501 -0.00000000000E+00 -0.00000000000E+00 -0.88584523047E+03  0.88584523048E+03  0.50400000000E-02 0.  1.
    8880023    1    1    2    0    0  0.85410035100E+03 -0.31631021993E+03 -0.26927290574E+03  0.11557930908E+04  0.65864270000E+03 0.  1.
    8880022    1    1    2    0    0 -0.85410035100E+03  0.31631021993E+03  0.10570268026E+04  0.14036512669E+04  0.15294330000E+03 0.  0.
<mgrwt>
<rscale>  0 0.10701277E+04</rscale>
<asrwt>0</asrwt>
<pdfrwt beam="1">  1        1 0.25747679E+00 0.11239883E+04</pdfrwt>
<pdfrwt beam="2">  1       -1 0.13628388E+00 0.11239883E+04</pdfrwt>
<totfact> 0.22133076E+00</totfact>
</mgrwt>
</event>
<event>
 4    1  0.2514307E-008  0.1235109E+04  0.7818608E-02  0.9123727E-01
          1   -1    0    0  501    0  0.00000000000E+00  0.00000000000E+00  0.22565818602E+04  0.22565818602E+04  0.50400000000E-02 0. -1.
         -1   -1    0    0    0  501 -0.00000000000E+00 -0.00000000000E+00 -0.10006577194E+04  0.10006577194E+04  0.50400000000E-02 0.  1.
    8880023    1    1    2    0    0 -0.93322324444E+03 -0.46987122104E+03  0.17086491215E+04  0.21083113184E+04  0.65864270000E+03 0.  0.
    8880022    1    1    2    0    0  0.93322324444E+03  0.46987122104E+03 -0.45272498079E+03  0.11489282613E+04  0.15294330000E+03 0.  0.
<mgrwt>
<rscale>  0 0.11876599E+04</rscale>
<asrwt>0</asrwt>
<pdfrwt beam="1">  1        1 0.34716644E+00 0.12351092E+04</pdfrwt>
<pdfrwt beam="2">  1       -1 0.15394734E+00 0.12351092E+04</pdfrwt>
<totfact> 0.63490496E-01</totfact>
</mgrwt>
</event>
<event>
 4    1  0.2514307E-008  0.7233148E+03  0.7818608E-02  0.9911525E-01
          1   -1    0    0  501    0  0.00000000000E+00  0.00000000000E+00  0.47964044278E+03  0.47964044281E+03  0.50400000000E-02 0. -1.
         -1   -1    0    0    0  501 -0.00000000000E+00 -0.00000000000E+00 -0.11093877690E+04  0.11093877690E+04  0.50400000000E-02 0.  1.
    8880023    1    1    2    0    0  0.22232767098E+03  0.19986110651E+03 -0.90237444730E+03  0.11564877451E+04  0.65864270000E+03 0.  1.
    8880022    1    1    2    0    0 -0.22232767098E+03 -0.19986110651E+03  0.27262712108E+03  0.43254046671E+03  0.15294330000E+03 0.  0.
<mgrwt>
<rscale>  0 0.59705953E+03</rscale>
<asrwt>0</asrwt>
<pdfrwt beam="1">  1        1 0.73790837E-01 0.72331477E+03</pdfrwt>
<pdfrwt beam="2">  1       -1 0.17067504E+00 0.72331477E+03</pdfrwt>
<totfact> 0.11792978E+01</totfact>
</mgrwt>
</event>
<event>
 4    1  0.2514307E-008  0.9330087E+03  0.7818608E-02  0.9474994E-01
         -1   -1    0    0    0  501 -0.00000000000E+00  0.00000000000E+00  0.65845665646E+03  0.65845665648E+03  0.50400000000E-02 0.  1.
          1   -1    0    0  501    0  0.00000000000E+00 -0.00000000000E+00 -0.13414847146E+04  0.13414847146E+04  0.50400000000E-02 0. -1.
    8880023    1    1    2    0    0  0.17571184425E+03  0.63704038581E+03  0.12900424731E+03  0.94188502879E+03  0.65864270000E+03 0.  0.
    8880022    1    1    2    0    0 -0.17571184425E+03 -0.63704038581E+03 -0.81203230546E+03  0.10580563423E+04  0.15294330000E+03 0.  0.
<mgrwt>
<rscale>  0 0.86152771E+03</rscale>
<asrwt>0</asrwt>
<pdfrwt beam="1">  1        1 0.20638226E+00 0.93300874E+03</pdfrwt>
<pdfrwt beam="2">  1       -1 0.10130102E+00 0.93300874E+03</pdfrwt>
<totfact> 0.79134340E+00</totfact>
</mgrwt>
</event>
<event>
 4    1  0.2514307E-008  0.8436172E+03  0.7818608E-02  0.9623397E-01
         -1   -1    0    0    0  501 -0.00000000000E+00  0.00000000000E+00  0.51810627616E+03  0.51810627618E+03  0.50400000000E-02 0.  1.
          1   -1    0    0  501    0  0.00000000000E+00 -0.00000000000E+00 -0.27005764211E+04  0.27005764211E+04  0.50400000000E-02 0. -1.
    8880023    1    1    2    0    0 -0.34453857623E+02  0.52601581009E+03  0.11962628885E+03  0.85205654508E+03  0.65864270000E+03 0.  0.
    8880022    1    1    2    0    0  0.34453857623E+02 -0.52601581009E+03 -0.23020964337E+04  0.23666261522E+04  0.15294330000E+03 0.  0.
<mgrwt>
<rscale>  0 0.75766772E+03</rscale>
<asrwt>0</asrwt>
<pdfrwt beam="1">  1        1 0.41547329E+00 0.84361716E+03</pdfrwt>
<pdfrwt beam="2">  1       -1 0.79708660E-01 0.84361716E+03</pdfrwt>
<totfact> 0.16179637E+00</totfact>
</mgrwt>
</event>
<event>
 4    1  0.2514307E-008  0.1729056E+04  0.7818608E-02  0.8762829E-01
         -1   -1    0    0    0  501 -0.00000000000E+00  0.00000000000E+00  0.15237755736E+04  0.15237755736E+04  0.50400000000E-02 0.  1.
          1   -1    0    0  501    0  0.00000000000E+00 -0.00000000000E+00 -0.21291581455E+04  0.21291581456E+04  0.50400000000E-02 0. -1.
    8880023    1    1    2    0    0  0.18981552482E+03 -0.15873865397E+04  0.37785007503E+03  0.17698606853E+04  0.65864270000E+03 0.  0.
    8880022    1    1    2    0    0 -0.18981552482E+03  0.15873865397E+04 -0.98323264695E+03  0.18830730339E+04  0.15294330000E+03 0.  0.
<mgrwt>
<rscale>  0 0.16974339E+04</rscale>
<asrwt>0</asrwt>
<pdfrwt beam="1">  1        1 0.32756279E+00 0.17290564E+04</pdfrwt>
<pdfrwt beam="2">  1       -1 0.23442701E+00 0.17290564E+04</pdfrwt>
<totfact> 0.19757945E-01</totfact>
</mgrwt>
</event>
<event>
 4    1  0.2514307E-008  0.7276331E+03  0.7818608E-02  0.9897557E-01
          1   -1    0    0  501    0  0.00000000000E+00  0.00000000000E+00  0.16833391901E+04  0.16833391901E+04  0.50400000000E-02 0. -1.
         -1   -1    0    0    0  501 -0.00000000000E+00 -0.00000000000E+00 -0.10116213459E+04  0.10116213459E+04  0.50400000000E-02 0.  1.
    8880023    1    1    2    0    0 -0.30921475361E+03 -0.50904887260E+01 -0.85904919473E+03  0.11257954531E+04  0.65864270000E+03 0.  1.
    8880022    1    1    2    0    0  0.30921475361E+03  0.50904887260E+01  0.15307670389E+04  0.15691650829E+04  0.15294330000E+03 0.  0.
<mgrwt>
<rscale>  0 0.60379843E+03</rscale>
<asrwt>0</asrwt>
<pdfrwt beam="1">  1        1 0.25897526E+00 0.72763307E+03</pdfrwt>
<pdfrwt beam="2">  1       -1 0.15563405E+00 0.72763307E+03</pdfrwt>
<totfact> 0.16297659E+00</totfact>
</mgrwt>
</event>
<event>
 4    1  0.2514307E-008  0.1473196E+04  0.7818608E-02  0.8928798E-01
          1   -1    0    0  501    0  0.00000000000E+00  0.00000000000E+00  0.17663685933E+04  0.17663685933E+04  0.50400000000E-02 0. -1.
         -1   -1    0    0    0  501 -0.00000000000E+00 -0.00000000000E+00 -0.12445296576E+04  0.12445296576E+04  0.50400000000E-02 0.  1.
    8880023    1    1    2    0    0  0.13681361383E+03 -0.13106407489E+04 -0.22223981927E+03  0.14898650546E+04  0.65864270000E+03 0.  1.
    8880022    1    1    2    0    0 -0.13681361383E+03  0.13106407489E+04  0.74407875505E+03  0.15210331963E+04  0.15294330000E+03 0. -1.
<mgrwt>
<rscale>  0 0.14350965E+04</rscale>
<asrwt>0</asrwt>
<pdfrwt beam="1">  1        1 0.27174901E+00 0.14731963E+04</pdfrwt>
<pdfrwt beam="2">  1       -1 0.19146610E+00 0.14731963E+04</pdfrwt>
<totfact> 0.70360855E-01</totfact>
</mgrwt>
</event>
<event>
 4    1  0.2514307E-008  0.1038159E+04  0.7818608E-02  0.9333253E-01
          1   -1    0    0  501    0  0.00000000000E+00  0.00000000000E+00  0.13622286782E+04  0.13622286782E+04  0.50400000000E-02 0. -1.
         -1   -1    0    0    0  501 -0.00000000000E+00 -0.00000000000E+00 -0.97382774639E+03  0.97382774641E+03  0.50400000000E-02 0.  1.
    8880023    1    1    2    0    0  0.12608250932E+03 -0.79250733183E+03  0.89848100593E+03  0.13729686793E+04  0.65864270000E+03 0.  0.
    8880022    1    1    2    0    0 -0.12608250932E+03  0.79250733183E+03 -0.51008007410E+03  0.96308774531E+03  0.15294330000E+03 0.  0.
<mgrwt>
<rscale>  0 0.97778359E+03</rscale>
<asrwt>0</asrwt>
<pdfrwt beam="1">  1        1 0.20957364E+00 0.10381594E+04</pdfrwt>
<pdfrwt beam="2">  1       -1 0.14981965E+00 0.10381594E+04</pdfrwt>
<totfact> 0.28580404E+00</totfact>
</mgrwt>
</event>
<event>
 4    1  0.2514307E-008  0.1735442E+04  0.7818608E-02  0.8759114E-01
         -1   -1    0    0    0  501 -0.00000000000E+00  0.00000000000E+00  0.23890421588E+04  0.23890421588E+04  0.50400000000E-02 0.  1.
          1   -1    0    0  501    0  0.00000000000E+00 -0.00000000000E+00 -0.18439946568E+04  0.18439946568E+04  0.50400000000E-02 0. -1.
    8880023    1    1    2    0    0  0.15346383430E+04  0.47205230771E+03  0.15548867655E+04  0.23301140068E+04  0.65864270000E+03 0.  1.
    8880022    1    1    2    0    0 -0.15346383430E+04 -0.47205230771E+03 -0.10098392635E+04  0.19029228088E+04  0.15294330000E+03 0.  0.
<mgrwt>
<rscale>  0 0.17039513E+04</rscale>
<asrwt>0</asrwt>
<pdfrwt beam="1">  1        1 0.28369149E+00 0.17354419E+04</pdfrwt>
<pdfrwt beam="2">  1       -1 0.36754495E+00 0.17354419E+04</pdfrwt>
<totfact> 0.41383749E-02</totfact>
</mgrwt>
</event>
<event>
 4    1  0.2514307E-008  0.9412576E+03  0.7818608E-02  0.9462806E-01
          1   -1    0    0  501    0  0.00000000000E+00  0.00000000000E+00  0.35550384108E+03  0.35550384112E+03  0.50400000000E-02 0. -1.
         -1   -1    0    0    0  501 -0.00000000000E+00 -0.00000000000E+00 -0.45780104781E+04  0.45780104781E+04  0.50400000000E-02 0.  1.
    8880023    1    1    2    0    0  0.98521869634E+02 -0.66516847959E+03 -0.41321762926E+04  0.42380239245E+04  0.65864270000E+03 0.  0.
    8880022    1    1    2    0    0 -0.98521869634E+02  0.66516847959E+03 -0.90330344403E+02  0.69549039474E+03  0.15294330000E+03 0.  0.
<mgrwt>
<rscale>  0 0.87082440E+03</rscale>
<asrwt>0</asrwt>
<pdfrwt beam="1">  1        1 0.54692902E-01 0.94125760E+03</pdfrwt>
<pdfrwt beam="2">  1       -1 0.70430926E+00 0.94125760E+03</pdfrwt>
<totfact> 0.13903003E-02</totfact>
</mgrwt>
</event>
<event>
 4    1  0.2514307E-008  0.9951976E+03  0.7818608E-02  0.9387868E-01
          1   -1    0    0  501    0  0.00000000000E+00  0.00000000000E+00  0.21307579771E+04  0.21307579771E+04  0.50400000000E-02 0. -1.
         -1   -1    0    0    0  501 -0.00000000000E+00 -0.00000000000E+00 -0.16542488628E+04  0.16542488628E+04  0.50400000000E-02 0.  1.
    8880023    1    1    2    0    0 -0.28795688452E+03 -0.68825054210E+03 -0.14241660998E+04  0.17374312251E+04  0.65864270000E+03 0.  1.
    8880022    1    1    2    0    0  0.28795688452E+03  0.68825054210E+03  0.19006752140E+04  0.20475756148E+04  0.15294330000E+03 0.  0.
<mgrwt>
<rscale>  0 0.93080872E+03</rscale>
<asrwt>0</asrwt>
<pdfrwt beam="1">  1        1 0.32780892E+00 0.99519756E+03</pdfrwt>
<pdfrwt beam="2">  1       -1 0.25449983E+00 0.99519756E+03</pdfrwt>
<totfact> 0.16140358E-01</totfact>
</mgrwt>
</event>
<event>
 4    1  0.2514307E-008  0.1167622E+04  0.7818608E-02  0.9189257E-01
          1   -1    0    0  501    0  0.00000000000E+00  0.00000000000E+00  0.13192668592E+04  0.13192668592E+04  0.50400000000E-02 0. -1.
         -1   -1    0    0    0  501 -0.00000000000E+00 -0.00000000000E+00 -0.10792962138E+04  0.10792962138E+04  0.50400000000E-02 0.  1.
    8880023    1    1    2    0    0 -0.28102989651E+03  0.92225499521E+03 -0.39663233683E+03  0.12331502325E+04  0.65864270000E+03 0.  0.
    8880022    1    1    2    0    0  0.28102989651E+03 -0.92225499521E+03  0.63660298224E+03  0.11654128406E+04  0.15294330000E+03 0.  0.
<mgrwt>
<rscale>  0 0.11165010E+04</rscale>
<asrwt>0</asrwt>
<pdfrwt beam="1">  1        1 0.20296413E+00 0.11676225E+04</pdfrwt>
<pdfrwt beam="2">  1       -1 0.16604557E+00 0.11676225E+04</pdfrwt>
<totfact> 0.22698179E+00</totfact>
</mgrwt>
</event>
<event>
 4    1  0.2514307E-008  0.7274815E+03  0.7818608E-02  0.9898039E-01
          1   -1    0    0  501    0  0.00000000000E+00  0.00000000000E+00  0.28880028416E+04  0.28880028416E+04  0.50400000000E-02 0. -1.
         -1   -1    0    0    0  501 -0.00000000000E+00 -0.00000000000E+00 -0.28064962484E+03  0.28064962489E+03  0.50400000000E-02 0.  1.
    8880023    1    1    2    0    0  0.20833663411E+03  0.22806798253E+03  0.22498399650E+03  0.76147696138E+03  0.65864270000E+03 0.  1.
    8880022    1    1    2    0    0 -0.20833663411E+03 -0.22806798253E+03  0.23823692202E+04  0.24071755051E+04  0.15294330000E+03 0.  0.
<mgrwt>
<rscale>  0 0.60356420E+03</rscale>
<asrwt>0</asrwt>
<pdfrwt beam="1">  1        1 0.44430813E+00 0.72748152E+03</pdfrwt>
<pdfrwt beam="2">  1       -1 0.43176865E-01 0.72748152E+03</pdfrwt>
<totfact> 0.40864112E+00</totfact>
</mgrwt>
</event>
<event>
 4    1  0.2514307E-008  0.1485745E+04  0.7818608E-02  0.8919768E-01
         -1   -1    0    0    0  501 -0.00000000000E+00  0.00000000000E+00  0.18628661192E+04  0.18628661192E+04  0.50400000000E-02 0.  1.
          1   -1    0    0  501    0  0.00000000000E+00 -0.00000000000E+00 -0.26945788853E+04  0.26945788853E+04  0.50400000000E-02 0. -1.
    8880023    1    1    2    0    0  0.13073850894E+04  0.25371634341E+03  0.13429961756E+04  0.20027672578E+04  0.65864270000E+03 0.  0.
    8880022    1    1    2    0    0 -0.13073850894E+04 -0.25371634341E+03 -0.21747089418E+04  0.25546777467E+04  0.15294330000E+03 0.  0.
<mgrwt>
<rscale>  0 0.14480291E+04</rscale>
<asrwt>0</asrwt>
<pdfrwt beam="1">  1        1 0.41455059E+00 0.14857449E+04</pdfrwt>
<pdfrwt beam="2">  1       -1 0.28659479E+00 0.14857449E+04</pdfrwt>
<totfact> 0.37775288E-02</totfact>
</mgrwt>
</event>
<event>
 4    1  0.2514307E-008  0.7583962E+03  0.7818608E-02  0.9809277E-01
          1   -1    0    0  501    0  0.00000000000E+00  0.00000000000E+00  0.10130428581E+04  0.10130428581E+04  0.50400000000E-02 0. -1.
         -1   -1    0    0    0  501 -0.00000000000E+00 -0.00000000000E+00 -0.12197887837E+04  0.12197887837E+04  0.50400000000E-02 0.  1.
    8880023    1    1    2    0    0 -0.35789210256E+03 -0.11518638388E+03 -0.10510105812E+04  0.12960663981E+04  0.65864270000E+03 0.  1.
    8880022    1    1    2    0    0  0.35789210256E+03  0.11518638388E+03  0.84426465566E+03  0.93676524376E+03  0.15294330000E+03 0.  0.
<mgrwt>
<rscale>  0 0.64867042E+03</rscale>
<asrwt>0</asrwt>
<pdfrwt beam="1">  1        1 0.15585275E+00 0.75839625E+03</pdfrwt>
<pdfrwt beam="2">  1       -1 0.18765981E+00 0.75839625E+03</pdfrwt>
<totfact> 0.28199941E+00</totfact>
</mgrwt>
</event>
<event>
 4    1  0.2514307E-008  0.9456892E+03  0.7818608E-02  0.9456344E-01
          1   -1    0    0  501    0  0.00000000000E+00  0.00000000000E+00  0.16324854777E+04  0.16324854777E+04  0.50400000000E-02 0. -1.
         -1   -1    0    0    0  501 -0.00000000000E+00 -0.00000000000E+00 -0.92841605857E+03  0.92841605858E+03  0.50400000000E-02 0.  1.
    8880023    1    1    2    0    0  0.19763816152E+03  0.64919719548E+03 -0.57366063623E+03  0.11060807264E+04  0.65864270000E+03 0.  1.
    8880022    1    1    2    0    0 -0.19763816152E+03 -0.64919719548E+03  0.12777300554E+04  0.14548208099E+04  0.15294330000E+03 0.  0.
<mgrwt>
<rscale>  0 0.87580382E+03</rscale>
<asrwt>0</asrwt>
<pdfrwt beam="1">  1        1 0.25115161E+00 0.94568919E+03</pdfrwt>
<pdfrwt beam="2">  1       -1 0.14283324E+00 0.94568919E+03</pdfrwt>
<totfact> 0.21386017E+00</totfact>
</mgrwt>
</event>
<event>
 4    1  0.2514307E-008  0.8462786E+03  0.7818608E-02  0.9618453E-01
         -1   -1    0    0    0  501 -0.00000000000E+00  0.00000000000E+00  0.10651685872E+04  0.10651685872E+04  0.50400000000E-02 0.  1.
          1   -1    0    0  501    0  0.00000000000E+00 -0.00000000000E+00 -0.81027271212E+03  0.81027271214E+03  0.50400000000E-02 0. -1.
    8880023    1    1    2    0    0 -0.47078226170E+03 -0.24645753011E+03  0.75182231928E+03  0.11320001140E+04  0.65864270000E+03 0.  1.
    8880022    1    1    2    0    0  0.47078226170E+03  0.24645753011E+03 -0.49692644422E+03  0.74344118534E+03  0.15294330000E+03 0.  0.
<mgrwt>
<rscale>  0 0.76086776E+03</rscale>
<asrwt>0</asrwt>
<pdfrwt beam="1">  1        1 0.12465734E+00 0.84627859E+03</pdfrwt>
<pdfrwt beam="2">  1       -1 0.16387209E+00 0.84627859E+03</pdfrwt>
<totfact> 0.60414684E+00</totfact>
</mgrwt>
</event>
<event>
 4    1  0.2514307E-008  0.1747322E+04  0.7818608E-02  0.8752249E-01
          1   -1    0    0  501    0  0.00000000000E+00  0.00000000000E+00  0.26935239916E+04  0.26935239916E+04  0.50400000000E-02 0. -1.
         -1   -1    0    0    0  501 -0.00000000000E+00 -0.00000000000E+00 -0.16084956861E+04  0.16084956861E+04  0.50400000000E-02 0.  1.
    8880023    1    1    2    0    0 -0.13559772465E+04  0.88354400352E+03 -0.70481426002E+03  0.18841172062E+04  0.65864270000E+03 0.  0.
    8880022    1    1    2    0    0  0.13559772465E+04 -0.88354400352E+03  0.17898425655E+04  0.24179024715E+04  0.15294330000E+03 0.  0.
<mgrwt>
<rscale>  0 0.17160741E+04</rscale>
<asrwt>0</asrwt>
<pdfrwt beam="1">  1        1 0.41438830E+00 0.17473221E+04</pdfrwt>
<pdfrwt beam="2">  1       -1 0.24746088E+00 0.17473221E+04</pdfrwt>
<totfact> 0.65757342E-02</totfact>
</mgrwt>
</event>
<event>
 4    1  0.2514307E-008  0.6622933E+03  0.7818608E-02  0.1021921E+00
         -1   -1    0    0    0  501 -0.00000000000E+00  0.00000000000E+00  0.17316847849E+04  0.17316847850E+04  0.50400000000E-02 0.  1.
          1   -1    0    0  501    0  0.00000000000E+00 -0.00000000000E+00 -0.41137862626E+03  0.41137862630E+03  0.50400000000E-02 0. -1.
    8880023    1    1    2    0    0  0.67579867075E+02  0.15972444214E+02  0.16472995496E+04  0.17754515397E+04  0.65864270000E+03 0.  1.
    8880022    1    1    2    0    0 -0.67579867075E+02 -0.15972444214E+02 -0.32699339091E+03  0.36761187157E+03  0.15294330000E+03 0.  0.
<mgrwt>
<rscale>  0 0.46999742E+03</rscale>
<asrwt>0</asrwt>
<pdfrwt beam="1">  1        1 0.63289019E-01 0.66229326E+03</pdfrwt>
<pdfrwt beam="2">  1       -1 0.26641305E+00 0.66229326E+03</pdfrwt>
<totfact> 0.33370057E+00</totfact>
</mgrwt>
</event>
<event>
 4    1  0.2514307E-008  0.1550624E+04  0.7818608E-02  0.8874692E-01
         -1   -1    0    0    0  501 -0.00000000000E+00  0.00000000000E+00  0.18338720322E+04  0.18338720322E+04  0.50400000000E-02 0.  1.
          1   -1    0    0  501    0  0.00000000000E+00 -0.00000000000E+00 -0.17674390195E+04  0.17674390195E+04  0.50400000000E-02 0. -1.
    8880023    1    1    2    0    0  0.13335614645E+04 -0.43845001423E+03  0.10568311116E+04  0.18765198638E+04  0.65864270000E+03 0.  1.
    8880022    1    1    2    0    0 -0.13335614645E+04  0.43845001423E+03 -0.99039809883E+03  0.17247911879E+04  0.15294330000E+03 0.  0.
<mgrwt>
<rscale>  0 0.15147674E+04</rscale>
<asrwt>0</asrwt>
<pdfrwt beam="1">  1        1 0.27191370E+00 0.15506240E+04</pdfrwt>
<pdfrwt beam="2">  1       -1 0.28213416E+00 0.15506240E+04</pdfrwt>
<totfact> 0.17342334E-01</totfact>
</mgrwt>
</event>
<event>
 4    1  0.2514307E-008  0.1026963E+04  0.7818608E-02  0.9347101E-01
         -1   -1    0    0    0  501 -0.00000000000E+00  0.00000000000E+00  0.78341453468E+03  0.78341453470E+03  0.50400000000E-02 0.  1.
          1   -1    0    0  501    0  0.00000000000E+00 -0.00000000000E+00 -0.25938988570E+04  0.25938988570E+04  0.50400000000E-02 0. -1.
    8880023    1    1    2    0    0 -0.34183435907E+03 -0.70992465951E+03  0.34011187196E+03  0.10818179343E+04  0.65864270000E+03 0.  1.
    8880022    1    1    2    0    0  0.34183435907E+03  0.70992465951E+03 -0.21505961942E+04  0.22954954574E+04  0.15294330000E+03 0.  0.
<mgrwt>
<rscale>  0 0.96559902E+03</rscale>
<asrwt>0</asrwt>
<pdfrwt beam="1">  1        1 0.39906136E+00 0.10269635E+04</pdfrwt>
<pdfrwt beam="2">  1       -1 0.12052531E+00 0.10269635E+04</pdfrwt>
<totfact> 0.72471465E-01</totfact>
</mgrwt>
</event>
<event>
 4    1  0.2514307E-008  0.8548144E+03  0.7818608E-02  0.9602855E-01
          1   -1    0    0  501    0  0.00000000000E+00  0.00000000000E+00  0.10433973459E+04  0.10433973459E+04  0.50400000000E-02 0. -1.
         -1   -1    0    0    0  501 -0.00000000000E+00 -0.00000000000E+00 -0.87367165366E+03  0.87367165368E+03  0.50400000000E-02 0.  1.
    8880023    1    1    2    0    0 -0.25907972014E+03  0.47934862187E+03 -0.53865604312E+03  0.10103751490E+04  0.65864270000E+03 0.  1.
    8880022    1    1    2    0    0  0.25907972014E+03 -0.47934862187E+03  0.70838173533E+03  0.90669385056E+03  0.15294330000E+03 0.  0.
<mgrwt>
<rscale>  0 0.77107500E+03</rscale>
<asrwt>0</asrwt>
<pdfrwt beam="1">  1        1 0.16052267E+00 0.85481437E+03</pdfrwt>
<pdfrwt beam="2">  1       -1 0.13441102E+00 0.85481437E+03</pdfrwt>
<totfact> 0.66537442E+00</totfact>
</mgrwt>
</event>
<event>
 4    1  0.2514307E-008  0.9472142E+03  0.7818608E-02  0.9454134E-01
          1   -1    0    0  501    0  0.00000000000E+00  0.00000000000E+00  0.12668941629E+04  0.12668941629E+04  0.50400000000E-02 0. -1.
         -1   -1    0    0    0  501 -0.00000000000E+00 -0.00000000000E+00 -0.80788322385E+03  0.80788322386E+03  0.50400000000E-02 0.  1.
    8880023    1    1    2    0    0 -0.67566553964E+03  0.82949607251E+02 -0.34696361363E+03  0.10087608806E+04  0.65864270000E+03 0.  1.
    8880022    1    1    2    0    0  0.67566553964E+03 -0.82949607251E+02  0.80597455266E+03  0.10660165061E+04  0.15294330000E+03 0.  0.
<mgrwt>
<rscale>  0 0.87751501E+03</rscale>
<asrwt>0</asrwt>
<pdfrwt beam="1">  1        1 0.19490679E+00 0.94721421E+03</pdfrwt>
<pdfrwt beam="2">  1       -1 0.12428973E+00 0.94721421E+03</pdfrwt>
<totfact> 0.54782460E+00</totfact>
</mgrwt>
</event>
<event>
 4    1  0.2514307E-008  0.7488290E+03  0.7818608E-02  0.9834937E-01
          1   -1    0    0  501    0  0.00000000000E+00  0.00000000000E+00  0.75347207945E+03  0.75347207947E+03  0.50400000000E-02 0. -1.
         -1   -1    0    0    0  501 -0.00000000000E+00 -0.00000000000E+00 -0.14547158926E+04  0.14547158926E+04  0.50400000000E-02 0.  1.
    8880023    1    1    2    0    0 -0.29827644908E+03 -0.19484806004E+03 -0.12968403589E+04  0.14975111784E+04  0.65864270000E+03 0.  1.
    8880022    1    1    2    0    0  0.29827644908E+03  0.19484806004E+03  0.59559654584E+03  0.71067679364E+03  0.15294330000E+03 0.  0.
<mgrwt>
<rscale>  0 0.63520854E+03</rscale>
<asrwt>0</asrwt>
<pdfrwt beam="1">  1        1 0.11591878E+00 0.74882896E+03</pdfrwt>
<pdfrwt beam="2">  1       -1 0.22380244E+00 0.74882896E+03</pdfrwt>
<totfact> 0.26307760E+00</totfact>
</mgrwt>
</event>
<event>
 4    1  0.2514307E-008  0.1098171E+04  0.7818608E-02  0.9263095E-01
          1   -1    0    0  501    0  0.00000000000E+00  0.00000000000E+00  0.33007710001E+04  0.33007710001E+04  0.50400000000E-02 0. -1.
         -1   -1    0    0    0  501 -0.00000000000E+00 -0.00000000000E+00 -0.37295901106E+03  0.37295901110E+03  0.50400000000E-02 0.  1.
    8880023    1    1    2    0    0 -0.85037357399E+03  0.22143804545E+03  0.77684797595E+03  0.13451665352E+04  0.65864270000E+03 0.  1.
    8880022    1    1    2    0    0  0.85037357399E+03 -0.22143804545E+03  0.21509640131E+04  0.23285634760E+04  0.15294330000E+03 0.  0.
<mgrwt>
<rscale>  0 0.10425258E+04</rscale>
<asrwt>0</asrwt>
<pdfrwt beam="1">  1        1 0.50781094E+00 0.10981713E+04</pdfrwt>
<pdfrwt beam="2">  1       -1 0.57378308E-01 0.10981713E+04</pdfrwt>
<totfact> 0.11180526E+00</totfact>
</mgrwt>
</event>
<event>
 4    1  0.2514307E-008  0.1114421E+04  0.7818608E-02  0.9245167E-01
         -1   -1    0    0    0  501 -0.00000000000E+00  0.00000000000E+00  0.44836468263E+03  0.44836468265E+03  0.50400000000E-02 0.  1.
          1   -1    0    0  501    0  0.00000000000E+00 -0.00000000000E+00 -0.46542991420E+04  0.46542991420E+04  0.50400000000E-02 0. -1.
    8880023    1    1    2    0    0  0.89842001278E+03  0.31087140378E+02 -0.39218868158E+03  0.11814174105E+04  0.65864270000E+03 0.  0.
    8880022    1    1    2    0    0 -0.89842001278E+03 -0.31087140378E+02 -0.38137457778E+04  0.39212464141E+04  0.15294330000E+03 0.  0.
<mgrwt>
<rscale>  0 0.10599148E+04</rscale>
<asrwt>0</asrwt>
<pdfrwt beam="1">  1        1 0.71604599E+00 0.11144214E+04</pdfrwt>
<pdfrwt beam="2">  1       -1 0.68979185E-01 0.11144214E+04</pdfrwt>
<totfact> 0.49603976E-02</totfact>
</mgrwt>
</event>
<event>
 4    1  0.2514307E-008  0.1302830E+04  0.7818608E-02  0.9063120E-01
          1   -1    0    0  501    0  0.00000000000E+00  0.00000000000E+00  0.10644345486E+04  0.10644345486E+04  0.50400000000E-02 0. -1.
         -1   -1    0    0    0  501 -0.00000000000E+00 -0.00000000000E+00 -0.15177968944E+04  0.15177968944E+04  0.50400000000E-02 0.  1.
    8880023    1    1    2    0    0 -0.64408940660E+03  0.92125222371E+03 -0.60725665340E+03  0.14374031003E+04  0.65864270000E+03 0.  1.
    8880022    1    1    2    0    0  0.64408940660E+03 -0.92125222371E+03  0.15389430758E+03  0.11448283427E+04  0.15294330000E+03 0. -1.
<mgrwt>
<rscale>  0 0.12585227E+04</rscale>
<asrwt>0</asrwt>
<pdfrwt beam="1">  1        1 0.16375916E+00 0.13028304E+04</pdfrwt>
<pdfrwt beam="2">  1       -1 0.23350721E+00 0.13028304E+04</pdfrwt>
<totfact> 0.11708921E+00</totfact>
</mgrwt>
</event>
<event>
 4    1  0.2514307E-008  0.8103450E+03  0.7818608E-02  0.9688859E-01
          1   -1    0    0  501    0  0.00000000000E+00  0.00000000000E+00  0.25627463364E+04  0.25627463364E+04  0.50400000000E-02 0. -1.
         -1   -1    0    0    0  501 -0.00000000000E+00 -0.00000000000E+00 -0.62151565719E+03  0.62151565721E+03  0.50400000000E-02 0.  1.
    8880023    1    1    2    0    0  0.98392421366E+00  0.47206765575E+03 -0.31849863976E+03  0.87068962869E+03  0.65864270000E+03 0.  1.
    8880022    1    1    2    0    0 -0.98392421366E+00 -0.47206765575E+03  0.22597293190E+04  0.23135723650E+04  0.15294330000E+03 0.  0.
<mgrwt>
<rscale>  0 0.71684029E+03</rscale>
<asrwt>0</asrwt>
<pdfrwt beam="1">  1        1 0.39426867E+00 0.81034502E+03</pdfrwt>
<pdfrwt beam="2">  1       -1 0.95617793E-01 0.81034502E+03</pdfrwt>
<totfact> 0.13628760E+00</totfact>
</mgrwt>
</event>
<event>
 4    1  0.2514307E-008  0.8101377E+03  0.7818608E-02  0.9689290E-01
         -1   -1    0    0    0  501 -0.00000000000E+00  0.00000000000E+00  0.66520548089E+03  0.66520548091E+03  0.50400000000E-02 0.  1.
          1   -1    0    0  501    0  0.00000000000E+00 -0.00000000000E+00 -0.77928984474E+03  0.77928984475E+03  0.50400000000E-02 0. -1.
    8880023    1    1    2    0    0 -0.27898378215E+03 -0.38036950246E+03 -0.36520346210E+03  0.88864879682E+03  0.65864270000E+03 0.  0.
    8880022    1    1    2    0    0  0.27898378215E+03  0.38036950246E+03  0.25111909826E+03  0.55584652884E+03  0.15294330000E+03 0.  0.
<mgrwt>
<rscale>  0 0.71658046E+03</rscale>
<asrwt>0</asrwt>
<pdfrwt beam="1">  1        1 0.11989075E+00 0.81013771E+03</pdfrwt>
<pdfrwt beam="2">  1       -1 0.10233930E+00 0.81013771E+03</pdfrwt>
<totfact> 0.21260326E+01</totfact>
</mgrwt>
</event>
<event>
 4    1  0.2514307E-008  0.9573665E+03  0.7818608E-02  0.9439594E-01
         -1   -1    0    0    0  501 -0.00000000000E+00  0.00000000000E+00  0.31907084287E+03  0.31907084291E+03  0.50400000000E-02 0.  1.
          1   -1    0    0  501    0  0.00000000000E+00 -0.00000000000E+00 -0.38441671326E+04  0.38441671326E+04  0.50400000000E-02 0. -1.
    8880023    1    1    2    0    0 -0.85499481122E+01  0.69474266013E+03 -0.54967048831E+03  0.11039421712E+04  0.65864270000E+03 0.  1.
    8880022    1    1    2    0    0  0.85499481122E+01 -0.69474266013E+03 -0.29754258014E+04  0.30592958043E+04  0.15294330000E+03 0.  0.
<mgrwt>
<rscale>  0 0.88887700E+03</rscale>
<asrwt>0</asrwt>
<pdfrwt beam="1">  1        1 0.59141029E+00 0.95736653E+03</pdfrwt>
<pdfrwt beam="2">  1       -1 0.49087825E-01 0.95736653E+03</pdfrwt>
<totfact> 0.57500513E-01</totfact>
</mgrwt>
</event>
<event>
 4    1  0.2514307E-008  0.7869647E+03  0.7818608E-02  0.9739724E-01
         -1   -1    0    0    0  501 -0.00000000000E+00  0.00000000000E+00  0.34982083521E+03  0.34982083525E+03  0.50400000000E-02 0.  1.
          1   -1    0    0  501    0  0.00000000000E+00 -0.00000000000E+00 -0.17003360202E+04  0.17003360202E+04  0.50400000000E-02 0. -1.
    8880023    1    1    2    0    0  0.34718238389E+03 -0.25488758847E+03 -0.19970517541E+03  0.81190864867E+03  0.65864270000E+03 0. -1.
    8880022    1    1    2    0    0 -0.34718238389E+03  0.25488758847E+03 -0.11508100096E+04  0.12382482068E+04  0.15294330000E+03 0.  0.
<mgrwt>
<rscale>  0 0.68700112E+03</rscale>
<asrwt>0</asrwt>
<pdfrwt beam="1">  1        1 0.26159015E+00 0.78696474E+03</pdfrwt>
<pdfrwt beam="2">  1       -1 0.53818591E-01 0.78696474E+03</pdfrwt>
<totfact> 0.17145547E+01</totfact>
</mgrwt>
</event>
<event>
 4    1  0.2514307E-008  0.1116362E+04  0.7818608E-02  0.9243055E-01
         -1   -1    0    0    0  501 -0.00000000000E+00  0.00000000000E+00  0.19596297610E+04  0.19596297610E+04  0.50400000000E-02 0.  1.
          1   -1    0    0  501    0  0.00000000000E+00 -0.00000000000E+00 -0.13316892384E+04  0.13316892384E+04  0.50400000000E-02 0. -1.
    8880023    1    1    2    0    0 -0.67276853824E+03  0.59986280986E+03  0.16038134524E+04  0.19540933174E+04  0.65864270000E+03 0.  1.
    8880022    1    1    2    0    0  0.67276853824E+03 -0.59986280986E+03 -0.97587292977E+03  0.13372256821E+04  0.15294330000E+03 0.  0.
<mgrwt>
<rscale>  0 0.10619873E+04</rscale>
<asrwt>0</asrwt>
<pdfrwt beam="1">  1        1 0.20487527E+00 0.11163615E+04</pdfrwt>
<pdfrwt beam="2">  1       -1 0.30148150E+00 0.11163615E+04</pdfrwt>
<totfact> 0.27643498E-01</totfact>
</mgrwt>
</event>
<event>
 4    1  0.2514307E-008  0.1206924E+04  0.7818608E-02  0.9150421E-01
          1   -1    0    0  501    0  0.00000000000E+00  0.00000000000E+00  0.33628139094E+04  0.33628139094E+04  0.50400000000E-02 0. -1.
         -1   -1    0    0    0  501 -0.00000000000E+00 -0.00000000000E+00 -0.42030685046E+03  0.42030685049E+03  0.50400000000E-02 0.  1.
    8880023    1    1    2    0    0 -0.76042931665E+03  0.66678507981E+03  0.92319445943E+03  0.15195240388E+04  0.65864270000E+03 0.  0.
    8880022    1    1    2    0    0  0.76042931665E+03 -0.66678507981E+03  0.20193125995E+04  0.22635967211E+04  0.15294330000E+03 0.  0.
<mgrwt>
<rscale>  0 0.11580150E+04</rscale>
<asrwt>0</asrwt>
<pdfrwt beam="1">  1        1 0.51735600E+00 0.12069239E+04</pdfrwt>
<pdfrwt beam="2">  1       -1 0.64662591E-01 0.12069239E+04</pdfrwt>
<totfact> 0.77835027E-01</totfact>
</mgrwt>
</event>
<event>
 4    1  0.2514307E-008  0.7214681E+03  0.7818608E-02  0.9917650E-01
         -1   -1    0    0    0  501 -0.00000000000E+00  0.00000000000E+00  0.22432127267E+03  0.22432127273E+03  0.50400000000E-02 0.  1.
          1   -1    0    0  501    0  0.00000000000E+00 -0.00000000000E+00 -0.26047131019E+04  0.26047131019E+04  0.50400000000E-02 0. -1.
    8880023    1    1    2    0    0 -0.23266560724E+03 -0.18047897167E+03 -0.40782804820E+03  0.82875802691E+03  0.65864270000E+03 0.  0.
    8880022    1    1    2    0    0  0.23266560724E+03  0.18047897167E+03 -0.19725637810E+04  0.20002763477E+04  0.15294330000E+03 0.  0.
<mgrwt>
<rscale>  0 0.59413489E+03</rscale>
<asrwt>0</asrwt>
<pdfrwt beam="1">  1        1 0.40072507E+00 0.72146805E+03</pdfrwt>
<pdfrwt beam="2">  1       -1 0.34510967E-01 0.72146805E+03</pdfrwt>
<totfact> 0.96639796E+00</totfact>
</mgrwt>
</event>
<event>
 4    1  0.2514307E-008  0.7129329E+03  0.7818608E-02  0.9947267E-01
         -1   -1    0    0    0  501 -0.00000000000E+00  0.00000000000E+00  0.44496178793E+03  0.44496178796E+03  0.50400000000E-02 0.  1.
          1   -1    0    0  501    0  0.00000000000E+00 -0.00000000000E+00 -0.12380506290E+04  0.12380506290E+04  0.50400000000E-02 0. -1.
    8880023    1    1    2    0    0  0.23553437095E+03  0.13779193188E+03  0.11536724277E+03  0.72220693943E+03  0.65864270000E+03 0.  0.
    8880022    1    1    2    0    0 -0.23553437095E+03 -0.13779193188E+03 -0.90845608380E+03  0.96080547750E+03  0.15294330000E+03 0.  0.
<mgrwt>
<rscale>  0 0.58024204E+03</rscale>
<asrwt>0</asrwt>
<pdfrwt beam="1">  1        1 0.19046933E+00 0.71293286E+03</pdfrwt>
<pdfrwt beam="2">  1       -1 0.68455660E-01 0.71293286E+03</pdfrwt>
<totfact> 0.22426645E+01</totfact>
</mgrwt>
</event>
<event>
 4    1  0.2514307E-008  0.1365368E+04  0.7818608E-02  0.9011071E-01
          1   -1    0    0  501    0  0.00000000000E+00  0.00000000000E+00  0.25374515637E+04  0.25374515637E+04  0.50400000000E-02 0. -1.
         -1   -1    0    0    0  501 -0.00000000000E+00 -0.00000000000E+00 -0.86494480148E+03  0.86494480149E+03  0.50400000000E-02 0.  1.
    8880023    1    1    2    0    0  0.50025858653E+01  0.11959907587E+04  0.31094952670E+02  0.13657217956E+04  0.65864270000E+03 0.  0.
    8880022    1    1    2    0    0 -0.50025858653E+01 -0.11959907587E+04  0.16414118095E+04  0.20366745695E+04  0.15294330000E+03 0.  0.
<mgrwt>
<rscale>  0 0.13235816E+04</rscale>
<asrwt>0</asrwt>
<pdfrwt beam="1">  1        1 0.39037715E+00 0.13653678E+04</pdfrwt>
<pdfrwt beam="2">  1       -1 0.13306844E+00 0.13653678E+04</pdfrwt>
<totfact> 0.58975336E-01</totfact>
</mgrwt>
</event>
<event>
 4    1  0.2514307E-008  0.9984752E+03  0.7818608E-02  0.9383555E-01
         -1   -1    0    0    0  501 -0.00000000000E+00  0.00000000000E+00  0.13157022485E+04  0.13157022485E+04  0.50400000000E-02 0.  1.
          1   -1    0    0  501    0  0.00000000000E+00 -0.00000000000E+00 -0.20190765145E+04  0.20190765145E+04  0.50400000000E-02 0. -1.
    8880023    1    1    2    0    0 -0.98841610984E+02 -0.74389040681E+03  0.10332030027E+04  0.14368233198E+04  0.65864270000E+03 0.  0.
    8880022    1    1    2    0    0  0.98841610984E+02  0.74389040681E+03 -0.17365772687E+04  0.18979554433E+04  0.15294330000E+03 0.  0.
<mgrwt>
<rscale>  0 0.93441467E+03</rscale>
<asrwt>0</asrwt>
<pdfrwt beam="1">  1        1 0.31062715E+00 0.99847524E+03</pdfrwt>
<pdfrwt beam="2">  1       -1 0.20241573E+00 0.99847524E+03</pdfrwt>
<totfact> 0.42458105E-01</totfact>
</mgrwt>
</event>
<event>
 4    1  0.2514307E-008  0.7017212E+03  0.7818608E-02  0.9990134E-01
          1   -1    0    0  501    0  0.00000000000E+00  0.00000000000E+00  0.58258636689E+03  0.58258636691E+03  0.50400000000E-02 0. -1.
         -1   -1    0    0    0  501 -0.00000000000E+00 -0.00000000000E+00 -0.92315804568E+03  0.92315804569E+03  0.50400000000E-02 0.  1.
    8880023    1    1    2    0    0 -0.13669590125E+03  0.19979159086E+03 -0.73640041913E+03  0.10172011761E+04  0.65864270000E+03 0.  1.
    8880022    1    1    2    0    0  0.13669590125E+03 -0.19979159086E+03  0.39582874034E+03  0.48854323646E+03  0.15294330000E+03 0.  0.
<mgrwt>
<rscale>  0 0.56084943E+03</rscale>
<asrwt>0</asrwt>
<pdfrwt beam="1">  1        1 0.89628672E-01 0.70172121E+03</pdfrwt>
<pdfrwt beam="2">  1       -1 0.14202432E+00 0.70172121E+03</pdfrwt>
<totfact> 0.14914781E+01</totfact>
</mgrwt>
</event>
<event>
 4    1  0.2514307E-008  0.8019715E+03  0.7818608E-02  0.9706549E-01
         -1   -1    0    0    0  501 -0.00000000000E+00  0.00000000000E+00  0.12476304364E+04  0.12476304365E+04  0.50400000000E-02 0.  1.
          1   -1    0    0  501    0  0.00000000000E+00 -0.00000000000E+00 -0.96940423495E+03  0.96940423497E+03  0.50400000000E-02 0. -1.
    8880023    1    1    2    0    0 -0.72293679299E+02  0.45179833199E+03  0.10412505795E+04  0.13142910958E+04  0.65864270000E+03 0.  1.
    8880022    1    1    2    0    0  0.72293679299E+02 -0.45179833199E+03 -0.76302437803E+03  0.90274357563E+03  0.15294330000E+03 0.  0.
<mgrwt>
<rscale>  0 0.70628183E+03</rscale>
<asrwt>0</asrwt>
<pdfrwt beam="1">  1        1 0.14913911E+00 0.80197152E+03</pdfrwt>
<pdfrwt beam="2">  1       -1 0.19194314E+00 0.80197152E+03</pdfrwt>
<totfact> 0.28267587E+00</totfact>
</mgrwt>
</event>
<event>
 4    1  0.2514307E-008  0.1451099E+04  0.7818608E-02  0.8944961E-01
          1   -1    0    0  501    0  0.00000000000E+00  0.00000000000E+00  0.18806975121E+04  0.18806975121E+04  0.50400000000E-02 0. -1.
         -1   -1    0    0    0  501 -0.00000000000E+00 -0.00000000000E+00 -0.20417900311E+04  0.20417900311E+04  0.50400000000E-02 0.  1.
    8880023    1    1    2    0    0 -0.52258617997E+03 -0.11827013101E+04 -0.14775220489E+04  0.20709322335E+04  0.65864270000E+03 0.  0.
    8880022    1    1    2    0    0  0.52258617997E+03  0.11827013101E+04  0.13164295300E+04  0.18515553097E+04  0.15294330000E+03 0.  0.
<mgrwt>
<rscale>  0 0.14123024E+04</rscale>
<asrwt>0</asrwt>
<pdfrwt beam="1">  1        1 0.28933808E+00 0.14510992E+04</pdfrwt>
<pdfrwt beam="2">  1       -1 0.31412154E+00 0.14510992E+04</pdfrwt>
<totfact> 0.91197678E-02</totfact>
</mgrwt>
</event>
<event>
 4    1  0.2514307E-008  0.6866374E+03  0.7818608E-02  0.1005794E+00
         -1   -1    0    0    0  501 -0.00000000000E+00  0.00000000000E+00  0.47029790652E+03  0.47029790655E+03  0.50400000000E-02 0.  1.
          1   -1    0    0  501    0  0.00000000000E+00 -0.00000000000E+00 -0.13147000116E+04  0.13147000117E+04  0.50400000000E-02 0. -1.
    8880023    1    1    2    0    0  0.17660254384E+03 -0.80450392960E+02  0.19727682072E+03  0.71441519754E+03  0.65864270000E+03 0.  1.
    8880022    1    1    2    0    0 -0.17660254384E+03  0.80450392960E+02 -0.10416789258E+04  0.10705827207E+04  0.15294330000E+03 0.  0.
<mgrwt>
<rscale>  0 0.53181235E+03</rscale>
<asrwt>0</asrwt>
<pdfrwt beam="1">  1        1 0.20226154E+00 0.68663741E+03</pdfrwt>
<pdfrwt beam="2">  1       -1 0.72353525E-01 0.68663741E+03</pdfrwt>
<totfact> 0.17731222E+01</totfact>
</mgrwt>
</event>
<event>
 4    1  0.2514307E-008  0.7986803E+03  0.7818608E-02  0.9713657E-01
          1   -1    0    0  501    0  0.00000000000E+00  0.00000000000E+00  0.19092471028E+04  0.19092471028E+04  0.50400000000E-02 0. -1.
         -1   -1    0    0    0  501 -0.00000000000E+00 -0.00000000000E+00 -0.29620312586E+03  0.29620312590E+03  0.50400000000E-02 0.  1.
    8880023    1    1    2    0    0 -0.28007740111E+03  0.35445254577E+03  0.38217455440E+03  0.88540812855E+03  0.65864270000E+03 0.  1.
    8880022    1    1    2    0    0  0.28007740111E+03 -0.35445254577E+03  0.12308694225E+04  0.13200421001E+04  0.15294330000E+03 0.  0.
<mgrwt>
<rscale>  0 0.70209457E+03</rscale>
<asrwt>0</asrwt>
<pdfrwt beam="1">  1        1 0.29373033E+00 0.79868026E+03</pdfrwt>
<pdfrwt beam="2">  1       -1 0.45569711E-01 0.79868026E+03</pdfrwt>
<totfact> 0.16983990E+01</totfact>
</mgrwt>
</event>
<event>
 4    1  0.2514307E-008  0.8030905E+03  0.7818608E-02  0.9704153E-01
          1   -1    0    0  501    0  0.00000000000E+00  0.00000000000E+00  0.12755040463E+04  0.12755040463E+04  0.50400000000E-02 0. -1.
         -1   -1    0    0    0  501 -0.00000000000E+00 -0.00000000000E+00 -0.10314020245E+04  0.10314020245E+04  0.50400000000E-02 0.  1.
    8880023    1    1    2    0    0  0.45103190142E+03 -0.87831247237E+02 -0.81385174363E+03  0.11433761284E+04  0.65864270000E+03 0.  0.
    8880022    1    1    2    0    0 -0.45103190142E+03  0.87831247237E+02  0.10579537655E+04  0.11635299424E+04  0.15294330000E+03 0.  0.
<mgrwt>
<rscale>  0 0.70770048E+03</rscale>
<asrwt>0</asrwt>
<pdfrwt beam="1">  1        1 0.19623139E+00 0.80309047E+03</pdfrwt>
<pdfrwt beam="2">  1       -1 0.15867723E+00 0.80309047E+03</pdfrwt>
<totfact> 0.29102459E+00</totfact>
</mgrwt>
</event>
<event>
 4    1  0.2514307E-008  0.8166221E+03  0.7818608E-02  0.9675945E-01
         -1   -1    0    0    0  501 -0.00000000000E+00  0.00000000000E+00  0.89500298749E+03  0.89500298751E+03  0.50400000000E-02 0.  1.
          1   -1    0    0  501    0  0.00000000000E+00 -0.00000000000E+00 -0.15316652590E+04  0.15316652590E+04  0.50400000000E-02 0. -1.
    8880023    1    1    2    0    0  0.17476824057E+03 -0.45001951662E+03  0.65013175860E+03  0.10438117709E+04  0.65864270000E+03 0.  1.
    8880022    1    1    2    0    0 -0.17476824057E+03  0.45001951662E+03 -0.12867940301E+04  0.13828564756E+04  0.15294330000E+03 0.  0.
<mgrwt>
<rscale>  0 0.72467264E+03</rscale>
<asrwt>0</asrwt>
<pdfrwt beam="1">  1        1 0.23564081E+00 0.81662213E+03</pdfrwt>
<pdfrwt beam="2">  1       -1 0.13769277E+00 0.81662213E+03</pdfrwt>
<totfact> 0.28135140E+00</totfact>
</mgrwt>
</event>
<event>
 4    1  0.2514307E-008  0.6679671E+03  0.7818608E-02  0.1017164E+00
          1   -1    0    0  501    0  0.00000000000E+00  0.00000000000E+00  0.97947667461E+03  0.97947667462E+03  0.50400000000E-02 0. -1.
         -1   -1    0    0    0  501 -0.00000000000E+00 -0.00000000000E+00 -0.14155942036E+04  0.14155942036E+04  0.50400000000E-02 0.  1.
    8880023    1    1    2    0    0 -0.21545534507E+02  0.10911315587E+03 -0.13263076958E+04  0.14850158925E+04  0.65864270000E+03 0.  0.
    8880022    1    1    2    0    0  0.21545534507E+02 -0.10911315587E+03  0.89019016683E+03  0.91005498569E+03  0.15294330000E+03 0. -1.
<mgrwt>
<rscale>  0 0.48724047E+03</rscale>
<asrwt>0</asrwt>
<pdfrwt beam="1">  1        1 0.15068872E+00 0.66796714E+03</pdfrwt>
<pdfrwt beam="2">  1       -1 0.21778372E+00 0.66796714E+03</pdfrwt>
<totfact> 0.18988951E+00</totfact>
</mgrwt>
</event>
<event>
 4    1  0.2514307E-008  0.7678992E+03  0.7818608E-02  0.9785070E-01
          1   -1    0    0  501    0  0.00000000000E+00  0.00000000000E+00  0.20471272757E+03  0.20471272763E+03  0.50400000000E-02 0. -1.
         -1   -1    0    0    0  501 -0.00000000000E+00 -0.00000000000E+00 -0.23789159675E+04  0.23789159675E+04  0.50400000000E-02 0.  1.
    8880023    1    1    2    0    0  0.24343367227E+03  0.31080378633E+03 -0.19683945537E+04  0.21128763030E+04  0.65864270000E+03 0.  0.
    8880022    1    1    2    0    0 -0.24343367227E+03 -0.31080378633E+03 -0.20580868627E+03  0.47075239219E+03  0.15294330000E+03 0.  0.
<mgrwt>
<rscale>  0 0.66169938E+03</rscale>
<asrwt>0</asrwt>
<pdfrwt beam="1">  1        1 0.31494268E-01 0.76789918E+03</pdfrwt>
<pdfrwt beam="2">  1       -1 0.36598705E+00 0.76789918E+03</pdfrwt>
<totfact> 0.18530207E+00</totfact>
</mgrwt>
</event>
<event>
 4    1  0.2514307E-008  0.1584348E+04  0.7818608E-02  0.8852262E-01
          1   -1    0    0  501    0  0.00000000000E+00  0.00000000000E+00  0.22358130849E+04  0.22358130849E+04  0.50400000000E-02 0. -1.
         -1   -1    0    0    0  501 -0.00000000000E+00 -0.00000000000E+00 -0.15901795638E+04  0.15901795638E+04  0.50400000000E-02 0.  1.
    8880023    1    1    2    0    0 -0.13827599163E+04 -0.40536918073E+03 -0.80368931430E+03  0.17765347953E+04  0.65864270000E+03 0.  1.
    8880022    1    1    2    0    0  0.13827599163E+04  0.40536918073E+03  0.14493228354E+04  0.20494578534E+04  0.15294330000E+03 0.  0.
<mgrwt>
<rscale>  0 0.15493827E+04</rscale>
<asrwt>0</asrwt>
<pdfrwt beam="1">  1        1 0.34397124E+00 0.15843482E+04</pdfrwt>
<pdfrwt beam="2">  1       -1 0.24464301E+00 0.15843482E+04</pdfrwt>
<totfact> 0.14532213E-01</totfact>
</mgrwt>
</event>
<event>
 4    1  0.2514307E-008  0.1596207E+04  0.7818608E-02  0.8844528E-01
          1   -1    0    0  501    0  0.00000000000E+00  0.00000000000E+00  0.27261425924E+04  0.27261425924E+04  0.50400000000E-02 0. -1.
         -1   -1    0    0    0  501 -0.00000000000E+00 -0.00000000000E+00 -0.13254263025E+04  0.13254263025E+04  0.50400000000E-02 0.  1.
    8880023    1    1    2    0    0  0.48822693625E+03 -0.13695627519E+04 -0.48242979799E+03  0.16675180326E+04  0.65864270000E+03 0.  0.
    8880022    1    1    2    0    0 -0.48822693625E+03  0.13695627519E+04  0.18831460879E+04  0.23840508623E+04  0.15294330000E+03 0.  0.
<mgrwt>
<rscale>  0 0.15615439E+04</rscale>
<asrwt>0</asrwt>
<pdfrwt beam="1">  1        1 0.41940655E+00 0.15962073E+04</pdfrwt>
<pdfrwt beam="2">  1       -1 0.20391174E+00 0.15962073E+04</pdfrwt>
<totfact> 0.12436183E-01</totfact>
</mgrwt>
</event>
<event>
 4    1  0.2514307E-008  0.6706759E+03  0.7818608E-02  0.1015183E+00
         -1   -1    0    0    0  501 -0.00000000000E+00  0.00000000000E+00  0.44496273075E+03  0.44496273078E+03  0.50400000000E-02 0.  1.
          1   -1    0    0  501    0  0.00000000000E+00 -0.00000000000E+00 -0.15859594534E+04  0.15859594534E+04  0.50400000000E-02 0. -1.
    8880023    1    1    2    0    0  0.11940921629E+03  0.41682510311E+02  0.18055239539E+03  0.69455407734E+03  0.65864270000E+03 0.  1.
    8880022    1    1    2    0    0 -0.11940921629E+03 -0.41682510311E+02 -0.13215491180E+04  0.13363681068E+04  0.15294330000E+03 0.  0.
<mgrwt>
<rscale>  0 0.49465744E+03</rscale>
<asrwt>0</asrwt>
<pdfrwt beam="1">  1        1 0.24399376E+00 0.67067593E+03</pdfrwt>
<pdfrwt beam="2">  1       -1 0.68455805E-01 0.67067593E+03</pdfrwt>
<totfact> 0.12952267E+01</totfact>
</mgrwt>
</event>
<event>
 4    1  0.2514307E-008  0.8816163E+03  0.7818608E-02  0.9556212E-01
          1   -1    0    0  501    0  0.00000000000E+00  0.00000000000E+00  0.16845047242E+04  0.16845047242E+04  0.50400000000E-02 0. -1.
         -1   -1    0    0    0  501 -0.00000000000E+00 -0.00000000000E+00 -0.65012658199E+03  0.65012658201E+03  0.50400000000E-02 0.  1.
    8880023    1    1    2    0    0 -0.55459101714E+03  0.18938290228E+03 -0.24849915199E+03  0.91596894859E+03  0.65864270000E+03 0.  0.
    8880022    1    1    2    0    0  0.55459101714E+03 -0.18938290228E+03  0.12828772942E+04  0.14186623576E+04  0.15294330000E+03 0.  0.
<mgrwt>
<rscale>  0 0.80263413E+03</rscale>
<asrwt>0</asrwt>
<pdfrwt beam="1">  1        1 0.25915457E+00 0.88161629E+03</pdfrwt>
<pdfrwt beam="2">  1       -1 0.10001947E+00 0.88161629E+03</pdfrwt>
<totfact> 0.47619362E+00</totfact>
</mgrwt>
</event>
<event>
 4    1  0.2514307E-008  0.9601039E+03  0.7818608E-02  0.9435723E-01
          1   -1    0    0  501    0  0.00000000000E+00  0.00000000000E+00  0.14133593404E+04  0.14133593404E+04  0.50400000000E-02 0. -1.
         -1   -1    0    0    0  501 -0.00000000000E+00 -0.00000000000E+00 -0.94492087906E+03  0.94492087907E+03  0.50400000000E-02 0.  1.
    8880023    1    1    2    0    0 -0.66632026512E+03 -0.20977748380E+03 -0.55559348911E+03  0.11092716619E+04  0.65864270000E+03 0.  0.
    8880022    1    1    2    0    0  0.66632026512E+03  0.20977748380E+03  0.10240319504E+04  0.12490085576E+04  0.15294330000E+03 0.  0.
<mgrwt>
<rscale>  0 0.89193199E+03</rscale>
<asrwt>0</asrwt>
<pdfrwt beam="1">  1        1 0.21743990E+00 0.96010390E+03</pdfrwt>
<pdfrwt beam="2">  1       -1 0.14537244E+00 0.96010390E+03</pdfrwt>
<totfact> 0.28821824E+00</totfact>
</mgrwt>
</event>
<event>
 4    1  0.2514307E-008  0.9405361E+03  0.7818608E-02  0.9463863E-01
         -1   -1    0    0    0  501 -0.00000000000E+00  0.00000000000E+00  0.35942345274E+03  0.35942345278E+03  0.50400000000E-02 0.  1.
          1   -1    0    0  501    0  0.00000000000E+00 -0.00000000000E+00 -0.20614247714E+04  0.20614247714E+04  0.50400000000E-02 0. -1.
    8880023    1    1    2    0    0 -0.52453191320E+03 -0.41912325750E+03 -0.58186129394E+03  0.11059705261E+04  0.65864270000E+03 0.  0.
    8880022    1    1    2    0    0  0.52453191320E+03  0.41912325750E+03 -0.11201400247E+04  0.13148776981E+04  0.15294330000E+03 0.  0.
<mgrwt>
<rscale>  0 0.87001278E+03</rscale>
<asrwt>0</asrwt>
<pdfrwt beam="1">  1        1 0.31714227E+00 0.94053614E+03</pdfrwt>
<pdfrwt beam="2">  1       -1 0.55295917E-01 0.94053614E+03</pdfrwt>
<totfact> 0.91241879E+00</totfact>
</mgrwt>
</event>
<event>
 4    1  0.2514307E-008  0.7478100E+03  0.7818608E-02  0.9837754E-01
         -1   -1    0    0    0  501 -0.00000000000E+00  0.00000000000E+00  0.32735962747E+03  0.32735962750E+03  0.50400000000E-02 0.  1.
          1   -1    0    0  501    0  0.00000000000E+00 -0.00000000000E+00 -0.11277842215E+04  0.11277842215E+04  0.50400000000E-02 0. -1.
    8880023    1    1    2    0    0  0.35104599515E+03 -0.46651243353E+02 -0.26113207304E+03  0.79209203698E+03  0.65864270000E+03 0.  0.
    8880022    1    1    2    0    0 -0.35104599515E+03  0.46651243353E+02 -0.53929252096E+03  0.66305181200E+03  0.15294330000E+03 0.  0.
<mgrwt>
<rscale>  0 0.63375193E+03</rscale>
<asrwt>0</asrwt>
<pdfrwt beam="1">  1        1 0.17350526E+00 0.74781003E+03</pdfrwt>
<pdfrwt beam="2">  1       -1 0.50363020E-01 0.74781003E+03</pdfrwt>
<totfact> 0.49051452E+01</totfact>
</mgrwt>
</event>
<event>
 4    1  0.2514307E-008  0.7925808E+03  0.7818608E-02  0.9727074E-01
         -1   -1    0    0    0  501 -0.00000000000E+00  0.00000000000E+00  0.34695940781E+03  0.34695940785E+03  0.50400000000E-02 0.  1.
          1   -1    0    0  501    0  0.00000000000E+00 -0.00000000000E+00 -0.14167250938E+04  0.14167250938E+04  0.50400000000E-02 0. -1.
    8880023    1    1    2    0    0  0.93675289209E+02  0.43081200989E+03 -0.26921973044E+03  0.83705645998E+03  0.65864270000E+03 0.  1.
    8880022    1    1    2    0    0 -0.93675289209E+02 -0.43081200989E+03 -0.80054595557E+03  0.92662804170E+03  0.15294330000E+03 0.  0.
<mgrwt>
<rscale>  0 0.69427468E+03</rscale>
<asrwt>0</asrwt>
<pdfrwt beam="1">  1        1 0.21795770E+00 0.79258076E+03</pdfrwt>
<pdfrwt beam="2">  1       -1 0.53378371E-01 0.79258076E+03</pdfrwt>
<totfact> 0.27175889E+01</totfact>
</mgrwt>
</event>
<event>
 4    1  0.2514307E-008  0.7111873E+03  0.7818608E-02  0.9953618E-01
         -1   -1    0    0    0  501 -0.00000000000E+00  0.00000000000E+00  0.76187760166E+03  0.76187760168E+03  0.50400000000E-02 0.  1.
          1   -1    0    0  501    0  0.00000000000E+00 -0.00000000000E+00 -0.91876807453E+03  0.91876807455E+03  0.50400000000E-02 0. -1.
    8880023    1    1    2    0    0  0.24145877740E+03 -0.11693966966E+03  0.55665808125E+03  0.90313656398E+03  0.65864270000E+03 0.  1.
    8880022    1    1    2    0    0 -0.24145877740E+03  0.11693966966E+03 -0.71354855412E+03  0.77750911224E+03  0.15294330000E+03 0.  0.
<mgrwt>
<rscale>  0 0.57731634E+03</rscale>
<asrwt>0</asrwt>
<pdfrwt beam="1">  1        1 0.14134893E+00 0.71118734E+03</pdfrwt>
<pdfrwt beam="2">  1       -1 0.11721194E+00 0.71118734E+03</pdfrwt>
<totfact> 0.11935029E+01</totfact>
</mgrwt>
</event>
<event>
 4    1  0.2514307E-008  0.1139388E+04  0.7818608E-02  0.9218420E-01
         -1   -1    0    0    0  501 -0.00000000000E+00  0.00000000000E+00  0.11289392149E+04  0.11289392149E+04  0.50400000000E-02 0.  1.
          1   -1    0    0  501    0  0.00000000000E+00 -0.00000000000E+00 -0.12656495875E+04  0.12656495875E+04  0.50400000000E-02 0. -1.
    8880023    1    1    2    0    0 -0.41066814087E+03  0.83411384963E+03  0.51353828748E+03  0.12497703849E+04  0.65864270000E+03 0.  0.
    8880022    1    1    2    0    0  0.41066814087E+03 -0.83411384963E+03 -0.65024866011E+03  0.11448184175E+04  0.15294330000E+03 0.  0.
<mgrwt>
<rscale>  0 0.10865312E+04</rscale>
<asrwt>0</asrwt>
<pdfrwt beam="1">  1        1 0.19471532E+00 0.11393877E+04</pdfrwt>
<pdfrwt beam="2">  1       -1 0.17368296E+00 0.11393877E+04</pdfrwt>
<totfact> 0.21854154E+00</totfact>
</mgrwt>
</event>
<event>
 4    1  0.2514307E-008  0.1013368E+04  0.7818608E-02  0.9364274E-01
          1   -1    0    0  501    0  0.00000000000E+00  0.00000000000E+00  0.92073126056E+03  0.92073126058E+03  0.50400000000E-02 0. -1.
         -1   -1    0    0    0  501 -0.00000000000E+00 -0.00000000000E+00 -0.16123349471E+04  0.16123349472E+04  0.50400000000E-02 0.  1.
    8880023    1    1    2    0    0  0.53231619393E+03 -0.55654592124E+03 -0.12205111337E+04  0.15863673996E+04  0.65864270000E+03 0.  0.
    8880022    1    1    2    0    0 -0.53231619393E+03  0.55654592124E+03  0.52890744708E+03  0.94669880815E+03  0.15294330000E+03 0.  0.
<mgrwt>
<rscale>  0 0.95075044E+03</rscale>
<asrwt>0</asrwt>
<pdfrwt beam="1">  1        1 0.14165096E+00 0.10133677E+04</pdfrwt>
<pdfrwt beam="2">  1       -1 0.24805153E+00 0.10133677E+04</pdfrwt>
<totfact> 0.12640132E+00</totfact>
</mgrwt>
</event>
<event>
 4    1  0.2514307E-008  0.9275635E+03  0.7818608E-02  0.9483158E-01
          1   -1    0    0  501    0  0.00000000000E+00  0.00000000000E+00  0.34218734242E+04  0.34218734242E+04  0.50400000000E-02 0. -1.
         -1   -1    0    0    0  501 -0.00000000000E+00 -0.00000000000E+00 -0.44440674436E+03  0.44440674439E+03  0.50400000000E-02 0.  1.
    8880023    1    1    2    0    0  0.63351217410E+03 -0.15882725315E+03  0.12493417203E+03  0.93593938088E+03  0.65864270000E+03 0.  0.
    8880022    1    1    2    0    0 -0.63351217410E+03  0.15882725315E+03  0.28525325078E+04  0.29303407877E+04  0.15294330000E+03 0.  0.
<mgrwt>
<rscale>  0 0.85536980E+03</rscale>
<asrwt>0</asrwt>
<pdfrwt beam="1">  1        1 0.52644205E+00 0.92756346E+03</pdfrwt>
<pdfrwt beam="2">  1       -1 0.68370270E-01 0.92756346E+03</pdfrwt>
<totfact> 0.65520048E-01</totfact>
</mgrwt>
</event>
<event>
 4    1  0.2514307E-008  0.8739878E+03  0.7818608E-02  0.9569150E-01
         -1   -1    0    0    0  501 -0.00000000000E+00  0.00000000000E+00  0.43144009044E+03  0.43144009047E+03  0.50400000000E-02 0.  1.
          1   -1    0    0  501    0  0.00000000000E+00 -0.00000000000E+00 -0.13912874915E+04  0.13912874915E+04  0.50400000000E-02 0. -1.
    8880023    1    1    2    0    0 -0.48836470256E+03 -0.30256301507E+03 -0.27586950369E+03  0.91649258050E+03  0.65864270000E+03 0.  0.
    8880022    1    1    2    0    0  0.48836470256E+03  0.30256301507E+03 -0.68397789736E+03  0.90623500146E+03  0.15294330000E+03 0.  0.
<mgrwt>
<rscale>  0 0.79372104E+03</rscale>
<asrwt>0</asrwt>
<pdfrwt beam="1">  1        1 0.21404423E+00 0.87398780E+03</pdfrwt>
<pdfrwt beam="2">  1       -1 0.66375399E-01 0.87398780E+03</pdfrwt>
<totfact> 0.18249497E+01</totfact>
</mgrwt>
</event>
<event>
 4    1  0.2514307E-008  0.7570920E+03  0.7818608E-02  0.9812695E-01
          1   -1    0    0  501    0  0.00000000000E+00  0.00000000000E+00  0.64366812864E+03  0.64366812866E+03  0.50400000000E-02 0. -1.
         -1   -1    0    0    0  501 -0.00000000000E+00 -0.00000000000E+00 -0.81420914416E+03  0.81420914418E+03  0.50400000000E-02 0.  1.
    8880023    1    1    2    0    0 -0.36783132086E+03  0.63861256850E+02 -0.52461573060E+03  0.92109174993E+03  0.65864270000E+03 0.  0.
    8880022    1    1    2    0    0  0.36783132086E+03 -0.63861256850E+02  0.35407471507E+03  0.53678552291E+03  0.15294330000E+03 0.  0.
<mgrwt>
<rscale>  0 0.64685693E+03</rscale>
<asrwt>0</asrwt>
<pdfrwt beam="1">  1        1 0.99025866E-01 0.75709203E+03</pdfrwt>
<pdfrwt beam="2">  1       -1 0.12526295E+00 0.75709203E+03</pdfrwt>
<totfact> 0.17657823E+01</totfact>
</mgrwt>
</event>
<event>
 4    1  0.2514307E-008  0.8458554E+03  0.7818608E-02  0.9619237E-01
         -1   -1    0    0    0  501 -0.00000000000E+00  0.00000000000E+00  0.44713638195E+03  0.44713638198E+03  0.50400000000E-02 0.  1.
          1   -1    0    0  501    0  0.00000000000E+00 -0.00000000000E+00 -0.11576724739E+04  0.11576724740E+04  0.50400000000E-02 0. -1.
    8880023    1    1    2    0    0  0.38120637394E+03 -0.36924638261E+03 -0.24002539882E+03  0.87925172103E+03  0.65864270000E+03 0.  0.
    8880022    1    1    2    0    0 -0.38120637394E+03  0.36924638261E+03 -0.47051069318E+03  0.72555713490E+03  0.15294330000E+03 0.  0.
<mgrwt>
<rscale>  0 0.76035952E+03</rscale>
<asrwt>0</asrwt>
<pdfrwt beam="1">  1        1 0.17810346E+00 0.84585542E+03</pdfrwt>
<pdfrwt beam="2">  1       -1 0.68790213E-01 0.84585542E+03</pdfrwt>
<totfact> 0.25004520E+01</totfact>
</mgrwt>
</event>
<event>
 4    1  0.2514307E-008  0.1145854E+04  0.7818608E-02  0.9211642E-01
          1   -1    0    0  501    0  0.00000000000E+00  0.00000000000E+00  0.52728324153E+03  0.52728324155E+03  0.50400000000E-02 0. -1.
         -1   -1    0    0    0  501 -0.00000000000E+00 -0.00000000000E+00 -0.32707810566E+04  0.32707810566E+04  0.50400000000E-02 0.  1.
    8880023    1    1    2    0    0 -0.60314732915E+03 -0.71790292230E+03 -0.25946986112E+04  0.28364489059E+04  0.65864270000E+03 0.  0.
    8880022    1    1    2    0    0  0.60314732915E+03  0.71790292230E+03 -0.14879920384E+03  0.96161539224E+03  0.15294330000E+03 0.  0.
<mgrwt>
<rscale>  0 0.10934065E+04</rscale>
<asrwt>0</asrwt>
<pdfrwt beam="1">  1        1 0.81120501E-01 0.11458541E+04</pdfrwt>
<pdfrwt beam="2">  1       -1 0.50319707E+00 0.11458541E+04</pdfrwt>
<totfact> 0.58269210E-02</totfact>
</mgrwt>
</event>
<event>
 4    1  0.2514307E-008  0.7182024E+03  0.7818608E-02  0.9928716E-01
          1   -1    0    0  501    0  0.00000000000E+00  0.00000000000E+00  0.13451265305E+04  0.13451265305E+04  0.50400000000E-02 0. -1.
         -1   -1    0    0    0  501 -0.00000000000E+00 -0.00000000000E+00 -0.67702791939E+03  0.67702791941E+03  0.50400000000E-02 0.  1.
    8880023    1    1    2    0    0  0.38790433626E+02  0.28372475035E+03 -0.45692109570E+03  0.85122942011E+03  0.65864270000E+03 0.  1.
    8880022    1    1    2    0    0 -0.38790433626E+02 -0.28372475035E+03  0.11250197068E+04  0.11709250298E+04  0.15294330000E+03 0.  0.
<mgrwt>
<rscale>  0 0.58889543E+03</rscale>
<asrwt>0</asrwt>
<pdfrwt beam="1">  1        1 0.20694254E+00 0.71820237E+03</pdfrwt>
<pdfrwt beam="2">  1       -1 0.10415814E+00 0.71820237E+03</pdfrwt>
<totfact> 0.75996319E+00</totfact>
</mgrwt>
</event>
<event>
 4    1  0.2514307E-008  0.9166315E+03  0.7818608E-02  0.9499843E-01
          1   -1    0    0  501    0  0.00000000000E+00  0.00000000000E+00  0.16298351649E+04  0.16298351649E+04  0.50400000000E-02 0. -1.
         -1   -1    0    0    0  501 -0.00000000000E+00 -0.00000000000E+00 -0.70116380303E+03  0.70116380305E+03  0.50400000000E-02 0.  1.
    8880023    1    1    2    0    0  0.40314514054E+03  0.49383917278E+03 -0.27789340961E+03  0.95782988379E+03  0.65864270000E+03 0.  1.
    8880022    1    1    2    0    0 -0.40314514054E+03 -0.49383917278E+03  0.12065647715E+04  0.13731690842E+04  0.15294330000E+03 0.  0.
<mgrwt>
<rscale>  0 0.84295372E+03</rscale>
<asrwt>0</asrwt>
<pdfrwt beam="1">  1        1 0.25074387E+00 0.91663152E+03</pdfrwt>
<pdfrwt beam="2">  1       -1 0.10787136E+00 0.91663152E+03</pdfrwt>
<totfact> 0.43306393E+00</totfact>
</mgrwt>
</event>
<event>
 4    1  0.2514307E-008  0.9045753E+03  0.7818608E-02  0.9518726E-01
         -1   -1    0    0    0  501 -0.00000000000E+00  0.00000000000E+00  0.12023744708E+04  0.12023744708E+04  0.50400000000E-02 0.  1.
          1   -1    0    0  501    0  0.00000000000E+00 -0.00000000000E+00 -0.11113468639E+04  0.11113468639E+04  0.50400000000E-02 0. -1.
    8880023    1    1    2    0    0  0.19303920081E+03 -0.58922160053E+03  0.90470702698E+03  0.12793557904E+04  0.65864270000E+03 0.  0.
    8880022    1    1    2    0    0 -0.19303920081E+03  0.58922160053E+03 -0.81367942008E+03  0.10343655443E+04  0.15294330000E+03 0.  0.
<mgrwt>
<rscale>  0 0.82917172E+03</rscale>
<asrwt>0</asrwt>
<pdfrwt beam="1">  1        1 0.17097644E+00 0.90457528E+03</pdfrwt>
<pdfrwt beam="2">  1       -1 0.18498069E+00 0.90457528E+03</pdfrwt>
<totfact> 0.24244254E+00</totfact>
</mgrwt>
</event>
<event>
 4    1  0.2514307E-008  0.8199401E+03  0.7818608E-02  0.9669232E-01
          1   -1    0    0  501    0  0.00000000000E+00  0.00000000000E+00  0.16137319826E+04  0.16137319827E+04  0.50400000000E-02 0. -1.
         -1   -1    0    0    0  501 -0.00000000000E+00 -0.00000000000E+00 -0.12867640821E+04  0.12867640821E+04  0.50400000000E-02 0.  1.
    8880023    1    1    2    0    0  0.33213645916E+03 -0.35801808199E+03 -0.11072068431E+04  0.13777549761E+04  0.65864270000E+03 0.  1.
    8880022    1    1    2    0    0 -0.33213645916E+03  0.35801808199E+03  0.14341747437E+04  0.15227410886E+04  0.15294330000E+03 0.  0.
<mgrwt>
<rscale>  0 0.72878606E+03</rscale>
<asrwt>0</asrwt>
<pdfrwt beam="1">  1        1 0.24826646E+00 0.81994011E+03</pdfrwt>
<pdfrwt beam="2">  1       -1 0.19796371E+00 0.81994011E+03</pdfrwt>
<totfact> 0.88297479E-01</totfact>
</mgrwt>
</event>
<event>
 4    1  0.2514307E-008  0.7766093E+03  0.7818608E-02  0.9763863E-01
          1   -1    0    0  501    0  0.00000000000E+00  0.00000000000E+00  0.27960040963E+04  0.27960040963E+04  0.50400000000E-02 0. -1.
         -1   -1    0    0    0  501 -0.00000000000E+00 -0.00000000000E+00 -0.15712146103E+03  0.15712146111E+03  0.50400000000E-02 0.  1.
    8880023    1    1    2    0    0 -0.41083720054E+03 -0.22904041331E+02  0.10580548450E+04  0.13124793567E+04  0.65864270000E+03 0.  1.
    8880022    1    1    2    0    0  0.41083720054E+03  0.22904041331E+02  0.15808277902E+04  0.16406462007E+04  0.15294330000E+03 0. -1.
<mgrwt>
<rscale>  0 0.67338452E+03</rscale>
<asrwt>0</asrwt>
<pdfrwt beam="1">  1        1 0.43015446E+00 0.77660930E+03</pdfrwt>
<pdfrwt beam="2">  1       -1 0.24172533E-01 0.77660930E+03</pdfrwt>
<totfact> 0.13090728E+01</totfact>
</mgrwt>
</event>
<event>
 4    1  0.2514307E-008  0.7776736E+03  0.7818608E-02  0.9761330E-01
         -1   -1    0    0    0  501 -0.00000000000E+00  0.00000000000E+00  0.16738541392E+04  0.16738541392E+04  0.50400000000E-02 0.  1.
          1   -1    0    0  501    0  0.00000000000E+00 -0.00000000000E+00 -0.26064003093E+03  0.26064003098E+03  0.50400000000E-02 0. -1.
    8880023    1    1    2    0    0 -0.39145477757E+03 -0.13315081305E+03  0.12339865314E+04  0.14585948539E+04  0.65864270000E+03 0. -1.
    8880022    1    1    2    0    0  0.39145477757E+03  0.13315081305E+03  0.17922757685E+03  0.47589931626E+03  0.15294330000E+03 0.  0.
<mgrwt>
<rscale>  0 0.67479710E+03</rscale>
<asrwt>0</asrwt>
<pdfrwt beam="1">  1        1 0.40098467E-01 0.77767357E+03</pdfrwt>
<pdfrwt beam="2">  1       -1 0.25751602E+00 0.77767357E+03</pdfrwt>
<totfact> 0.67849519E+00</totfact>
</mgrwt>
</event>
<event>
 4    1  0.2514307E-008  0.7669466E+03  0.7818608E-02  0.9787444E-01
         -1   -1    0    0    0  501 -0.00000000000E+00  0.00000000000E+00  0.47056313033E+03  0.47056313036E+03  0.50400000000E-02 0.  1.
          1   -1    0    0  501    0  0.00000000000E+00 -0.00000000000E+00 -0.17899267657E+04  0.17899267657E+04  0.50400000000E-02 0. -1.
    8880023    1    1    2    0    0 -0.14977161523E+03  0.36327031926E+03  0.10584569888E+03  0.77421597750E+03  0.65864270000E+03 0.  1.
    8880022    1    1    2    0    0  0.14977161523E+03 -0.36327031926E+03 -0.14252093343E+04  0.14862739186E+04  0.15294330000E+03 0.  0.
<mgrwt>
<rscale>  0 0.66040720E+03</rscale>
<asrwt>0</asrwt>
<pdfrwt beam="1">  1        1 0.27537335E+00 0.76694659E+03</pdfrwt>
<pdfrwt beam="2">  1       -1 0.72394329E-01 0.76694659E+03</pdfrwt>
<totfact> 0.82921763E+00</totfact>
</mgrwt>
</event>
<event>
 4    1  0.2514307E-008  0.7265968E+03  0.7818608E-02  0.9900866E-01
          1   -1    0    0  501    0  0.00000000000E+00  0.00000000000E+00  0.97631715164E+03  0.97631715165E+03  0.50400000000E-02 0. -1.
         -1   -1    0    0    0  501 -0.00000000000E+00 -0.00000000000E+00 -0.32744221573E+03  0.32744221577E+03  0.50400000000E-02 0.  1.
    8880023    1    1    2    0    0  0.84920048880E+01 -0.30669299323E+03  0.22925536741E+03  0.76190612020E+03  0.65864270000E+03 0.  0.
    8880022    1    1    2    0    0 -0.84920048880E+01  0.30669299323E+03  0.41961956850E+03  0.54185324723E+03  0.15294330000E+03 0.  0.
<mgrwt>
<rscale>  0 0.60219355E+03</rscale>
<asrwt>0</asrwt>
<pdfrwt beam="1">  1        1 0.15020264E+00 0.72659680E+03</pdfrwt>
<pdfrwt beam="2">  1       -1 0.50375726E-01 0.72659680E+03</pdfrwt>
<totfact> 0.64031768E+01</totfact>
</mgrwt>
</event>
<event>
 4    1  0.2514307E-008  0.6797156E+03  0.7818608E-02  0.1009485E+00
         -1   -1    0    0    0  501 -0.00000000000E+00  0.00000000000E+00  0.10416227885E+04  0.10416227885E+04  0.50400000000E-02 0.  1.
          1   -1    0    0  501    0  0.00000000000E+00 -0.00000000000E+00 -0.12075943575E+04  0.12075943575E+04  0.50400000000E-02 0. -1.
    8880023    1    1    2    0    0  0.59630722566E+01  0.16783186712E+03  0.91769216844E+03  0.11420035973E+04  0.65864270000E+03 0.  1.
    8880022    1    1    2    0    0 -0.59630722566E+01 -0.16783186712E+03 -0.10836637374E+04  0.11072135488E+04  0.15294330000E+03 0.  0.
<mgrwt>
<rscale>  0 0.51679835E+03</rscale>
<asrwt>0</asrwt>
<pdfrwt beam="1">  1        1 0.18578375E+00 0.67971560E+03</pdfrwt>
<pdfrwt beam="2">  1       -1 0.16024966E+00 0.67971560E+03</pdfrwt>
<totfact> 0.32369803E+00</totfact>
</mgrwt>
</event>
<event>
 4    1  0.2514307E-008  0.6765487E+03  0.7818608E-02  0.1011347E+00
         -1   -1    0    0    0  501 -0.00000000000E+00  0.00000000000E+00  0.34407148513E+03  0.34407148517E+03  0.50400000000E-02 0.  1.
          1   -1    0    0  501    0  0.00000000000E+00 -0.00000000000E+00 -0.83944297229E+03  0.83944297231E+03  0.50400000000E-02 0. -1.
    8880023    1    1    2    0    0 -0.15025878940E+03 -0.36472399020E+02 -0.38646594879E+02  0.67765161052E+03  0.65864270000E+03 0.  1.
    8880022    1    1    2    0    0  0.15025878940E+03  0.36472399020E+02 -0.45672489228E+03  0.50586284695E+03  0.15294330000E+03 0.  0.
<mgrwt>
<rscale>  0 0.50942643E+03</rscale>
<asrwt>0</asrwt>
<pdfrwt beam="1">  1        1 0.12914507E+00 0.67654870E+03</pdfrwt>
<pdfrwt beam="2">  1       -1 0.52934075E-01 0.67654870E+03</pdfrwt>
<totfact> 0.75565775E+01</totfact>
</mgrwt>
</event>
<event>
 4    1  0.2514307E-008  0.1148897E+04  0.7818608E-02  0.9208474E-01
          1   -1    0    0  501    0  0.00000000000E+00  0.00000000000E+00  0.32739880788E+04  0.32739880788E+04  0.50400000000E-02 0. -1.
         -1   -1    0    0    0  501 -0.00000000000E+00 -0.00000000000E+00 -0.67218027035E+03  0.67218027037E+03  0.50400000000E-02 0.  1.
    8880023    1    1    2    0    0  0.90566960105E+03 -0.25674181371E+03 -0.27515187416E+02  0.11492262949E+04  0.65864270000E+03 0.  0.
    8880022    1    1    2    0    0 -0.90566960105E+03  0.25674181371E+03  0.26293229958E+04  0.27969420542E+04  0.15294330000E+03 0.  0.
<mgrwt>
<rscale>  0 0.10966394E+04</rscale>
<asrwt>0</asrwt>
<pdfrwt beam="1">  1        1 0.50369046E+00 0.11488969E+04</pdfrwt>
<pdfrwt beam="2">  1       -1 0.10341235E+00 0.11488969E+04</pdfrwt>
<totfact> 0.33234817E-01</totfact>
</mgrwt>
</event>
<event>
 4    1  0.2514307E-008  0.7922814E+03  0.7818608E-02  0.9727741E-01
         -1   -1    0    0    0  501 -0.00000000000E+00  0.00000000000E+00  0.10072757723E+04  0.10072757723E+04  0.50400000000E-02 0.  1.
          1   -1    0    0  501    0  0.00000000000E+00 -0.00000000000E+00 -0.14117420410E+04  0.14117420410E+04  0.50400000000E-02 0. -1.
    8880023    1    1    2    0    0  0.44008416977E+03 -0.15015997759E+02  0.80095486084E+03  0.11266048340E+04  0.65864270000E+03 0.  0.
    8880022    1    1    2    0    0 -0.44008416977E+03  0.15015997759E+02 -0.12054211295E+04  0.12924129794E+04  0.15294330000E+03 0.  0.
<mgrwt>
<rscale>  0 0.69388876E+03</rscale>
<asrwt>0</asrwt>
<pdfrwt beam="1">  1        1 0.21719109E+00 0.79228137E+03</pdfrwt>
<pdfrwt beam="2">  1       -1 0.15496550E+00 0.79228137E+03</pdfrwt>
<totfact> 0.24961687E+00</totfact>
</mgrwt>
</event>
<event>
 4    1  0.2514307E-008  0.7534320E+03  0.7818608E-02  0.9822418E-01
         -1   -1    0    0    0  501 -0.00000000000E+00  0.00000000000E+00  0.26112879210E+03  0.26112879215E+03  0.50400000000E-02 0.  1.
          1   -1    0    0  501    0  0.00000000000E+00 -0.00000000000E+00 -0.16629290685E+04  0.16629290685E+04  0.50400000000E-02 0. -1.
    8880023    1    1    2    0    0  0.36583672649E+03 -0.36174541597E+01 -0.41410308371E+03  0.85973319502E+03  0.65864270000E+03 0.  0.
    8880022    1    1    2    0    0 -0.36583672649E+03  0.36174541597E+01 -0.98769719271E+03  0.10643246657E+04  0.15294330000E+03 0.  0.
<mgrwt>
<rscale>  0 0.64173225E+03</rscale>
<asrwt>0</asrwt>
<pdfrwt beam="1">  1        1 0.25583523E+00 0.75343202E+03</pdfrwt>
<pdfrwt beam="2">  1       -1 0.40173661E-01 0.75343202E+03</pdfrwt>
<totfact> 0.31531670E+01</totfact>
</mgrwt>
</event>
<event>
 4    1  0.2514307E-008  0.7072238E+03  0.7818608E-02  0.9968458E-01
         -1   -1    0    0    0  501 -0.00000000000E+00  0.00000000000E+00  0.12772645805E+04  0.12772645805E+04  0.50400000000E-02 0.  1.
          1   -1    0    0  501    0  0.00000000000E+00 -0.00000000000E+00 -0.10179765021E+04  0.10179765021E+04  0.50400000000E-02 0. -1.
    8880023    1    1    2    0    0 -0.42544647656E+02  0.25405746418E+03  0.11530209408E+04  0.13526354787E+04  0.65864270000E+03 0.  1.
    8880022    1    1    2    0    0  0.42544647656E+02 -0.25405746418E+03 -0.89373286239E+03  0.94260560389E+03  0.15294330000E+03 0.  0.
<mgrwt>
<rscale>  0 0.57055178E+03</rscale>
<asrwt>0</asrwt>
<pdfrwt beam="1">  1        1 0.15661177E+00 0.70722376E+03</pdfrwt>
<pdfrwt beam="2">  1       -1 0.19650224E+00 0.70722376E+03</pdfrwt>
<totfact> 0.24490399E+00</totfact>
</mgrwt>
</event>
<event>
 4    1  0.2515091E-008  0.9318682E+03  0.7818608E-02  0.9476696E-01
         -1   -1    0    0    0  501 -0.00000000000E+00  0.00000000000E+00  0.73157168026E+03  0.73157168028E+03  0.50400000000E-02 0.  1.
          1   -1    0    0  501    0  0.00000000000E+00 -0.00000000000E+00 -0.20774138768E+04  0.20774138768E+04  0.50400000000E-02 0. -1.
    8880023    1    1    2    0    0 -0.55606175285E+03  0.35406693663E+03  0.34033994354E+03  0.99207336021E+03  0.65864270000E+03 0.  1.
    8880022    1    1    2    0    0  0.55606175285E+03 -0.35406693663E+03 -0.16861821401E+04  0.18169121969E+04  0.15294330000E+03 0.  0.
<mgrwt>
<rscale>  0 0.86023927E+03</rscale>
<asrwt>0</asrwt>
<pdfrwt beam="1">  1        1 0.31960213E+00 0.93186816E+03</pdfrwt>
<pdfrwt beam="2">  1       -1 0.11254949E+00 0.93186816E+03</pdfrwt>
<totfact> 0.19512320E+00</totfact>
</mgrwt>
</event>
<event>
 4    1  0.2514307E-008  0.9776240E+03  0.7818608E-02  0.9411436E-01
          1   -1    0    0  501    0  0.00000000000E+00  0.00000000000E+00  0.71662814711E+03  0.71662814712E+03  0.50400000000E-02 0. -1.
         -1   -1    0    0    0  501 -0.00000000000E+00 -0.00000000000E+00 -0.18227585342E+04  0.18227585342E+04  0.50400000000E-02 0.  1.
    8880023    1    1    2    0    0  0.50638828828E+03 -0.51527599891E+03 -0.14306398228E+04  0.17327662746E+04  0.65864270000E+03 0.  0.
    8880022    1    1    2    0    0 -0.50638828828E+03  0.51527599891E+03  0.32450943576E+03  0.80662040668E+03  0.15294330000E+03 0.  0.
<mgrwt>
<rscale>  0 0.91140482E+03</rscale>
<asrwt>0</asrwt>
<pdfrwt beam="1">  1        1 0.11025049E+00 0.97762399E+03</pdfrwt>
<pdfrwt beam="2">  1       -1 0.28042439E+00 0.97762399E+03</pdfrwt>
<totfact> 0.11793977E+00</totfact>
</mgrwt>
</event>
<event>
 4    1  0.2514307E-008  0.9701476E+03  0.7818608E-02  0.9421700E-01
          1   -1    0    0  501    0  0.00000000000E+00  0.00000000000E+00  0.22369093712E+04  0.22369093712E+04  0.50400000000E-02 0. -1.
         -1   -1    0    0    0  501 -0.00000000000E+00 -0.00000000000E+00 -0.12434923484E+04  0.12434923484E+04  0.50400000000E-02 0.  1.
    8880023    1    1    2    0    0  0.35716895124E+03 -0.61628443814E+03 -0.97867713245E+03  0.13780403856E+04  0.65864270000E+03 0.  0.
    8880022    1    1    2    0    0 -0.35716895124E+03  0.61628443814E+03  0.19720941553E+04  0.21023613340E+04  0.15294330000E+03 0. -1.
<mgrwt>
<rscale>  0 0.90311163E+03</rscale>
<asrwt>0</asrwt>
<pdfrwt beam="1">  1        1 0.34413990E+00 0.97014760E+03</pdfrwt>
<pdfrwt beam="2">  1       -1 0.19130652E+00 0.97014760E+03</pdfrwt>
<totfact> 0.36317999E-01</totfact>
</mgrwt>
</event>
<event>
 4    1  0.2514307E-008  0.8485665E+03  0.7818608E-02  0.9614234E-01
         -1   -1    0    0    0  501 -0.00000000000E+00  0.00000000000E+00  0.11058022677E+04  0.11058022677E+04  0.50400000000E-02 0.  1.
          1   -1    0    0  501    0  0.00000000000E+00 -0.00000000000E+00 -0.18045452377E+04  0.18045452377E+04  0.50400000000E-02 0. -1.
    8880023    1    1    2    0    0  0.50337600719E+03 -0.18129415809E+03  0.88836333578E+03  0.12285172359E+04  0.65864270000E+03 0.  0.
    8880022    1    1    2    0    0 -0.50337600719E+03  0.18129415809E+03 -0.15871063058E+04  0.16818302695E+04  0.15294330000E+03 0. -1.
<mgrwt>
<rscale>  0 0.76361196E+03</rscale>
<asrwt>0</asrwt>
<pdfrwt beam="1">  1        1 0.27762234E+00 0.84856655E+03</pdfrwt>
<pdfrwt beam="2">  1       -1 0.17012343E+00 0.84856655E+03</pdfrwt>
<totfact> 0.10282773E+00</totfact>
</mgrwt>
</event>
<event>
 4    1  0.2514307E-008  0.1127100E+04  0.7818608E-02  0.9231467E-01
         -1   -1    0    0    0  501 -0.00000000000E+00  0.00000000000E+00  0.17916810215E+04  0.17916810216E+04  0.50400000000E-02 0.  1.
          1   -1    0    0  501    0  0.00000000000E+00 -0.00000000000E+00 -0.19753823240E+04  0.19753823240E+04  0.50400000000E-02 0. -1.
    8880023    1    1    2    0    0  0.29166951384E+03 -0.86687543443E+03  0.14812369050E+04  0.18612944687E+04  0.65864270000E+03 0.  1.
    8880022    1    1    2    0    0 -0.29166951384E+03  0.86687543443E+03 -0.16649382075E+04  0.19057688768E+04  0.15294330000E+03 0.  0.
<mgrwt>
<rscale>  0 0.10734457E+04</rscale>
<asrwt>0</asrwt>
<pdfrwt beam="1">  1        1 0.30390497E+00 0.11271000E+04</pdfrwt>
<pdfrwt beam="2">  1       -1 0.27564323E+00 0.11271000E+04</pdfrwt>
<totfact> 0.14650012E-01</totfact>
</mgrwt>
</event>
<event>
 4    1  0.2514307E-008  0.1021848E+04  0.7818608E-02  0.9353516E-01
          1   -1    0    0  501    0  0.00000000000E+00  0.00000000000E+00  0.14439374034E+04  0.14439374034E+04  0.50400000000E-02 0. -1.
         -1   -1    0    0    0  501 -0.00000000000E+00 -0.00000000000E+00 -0.64243554168E+03  0.64243554170E+03  0.50400000000E-02 0.  1.
    8880023    1    1    2    0    0 -0.56329599313E+03 -0.54135043426E+03  0.10252986915E+03  0.10269786993E+04  0.65864270000E+03 0.  0.
    8880022    1    1    2    0    0  0.56329599313E+03  0.54135043426E+03  0.69897199256E+03  0.10593942458E+04  0.15294330000E+03 0.  0.
<mgrwt>
<rscale>  0 0.96001887E+03</rscale>
<asrwt>0</asrwt>
<pdfrwt beam="1">  1        1 0.22214421E+00 0.10218478E+04</pdfrwt>
<pdfrwt beam="2">  1       -1 0.98836239E-01 0.10218478E+04</pdfrwt>
<totfact> 0.70249049E+00</totfact>
</mgrwt>
</event>
<event>
 4    1  0.2514307E-008  0.9534172E+03  0.7818608E-02  0.9445214E-01
         -1   -1    0    0    0  501 -0.00000000000E+00  0.00000000000E+00  0.65112479057E+03  0.65112479059E+03  0.50400000000E-02 0.  1.
          1   -1    0    0  501    0  0.00000000000E+00 -0.00000000000E+00 -0.28129583335E+04  0.28129583335E+04  0.50400000000E-02 0. -1.
    8880023    1    1    2    0    0  0.50646869731E+03  0.46763620116E+03  0.22111359633E+03  0.97872140405E+03  0.65864270000E+03 0.  1.
    8880022    1    1    2    0    0 -0.50646869731E+03 -0.46763620116E+03 -0.23829471393E+04  0.24853617201E+04  0.15294330000E+03 0.  0.
<mgrwt>
<rscale>  0 0.88446312E+03</rscale>
<asrwt>0</asrwt>
<pdfrwt beam="1">  1        1 0.43276281E+00 0.95341720E+03</pdfrwt>
<pdfrwt beam="2">  1       -1 0.10017305E+00 0.95341720E+03</pdfrwt>
<totfact> 0.79967606E-01</totfact>
</mgrwt>
</event>
<event>
 4    1  0.2514307E-008  0.6859786E+03  0.7818608E-02  0.1006126E+00
         -1   -1    0    0    0  501 -0.00000000000E+00  0.00000000000E+00  0.64626751010E+03  0.64626751012E+03  0.50400000000E-02 0.  1.
          1   -1    0    0  501    0  0.00000000000E+00 -0.00000000000E+00 -0.26684883494E+04  0.26684883494E+04  0.50400000000E-02 0. -1.
    8880023    1    1    2    0    0  0.41389992494E+02  0.18719844639E+03  0.45646262389E+03  0.82396888478E+03  0.65864270000E+03 0.  1.
    8880022    1    1    2    0    0 -0.41389992494E+02 -0.18719844639E+03 -0.24786834632E+04  0.24907869748E+04  0.15294330000E+03 0.  0.
<mgrwt>
<rscale>  0 0.53043918E+03</rscale>
<asrwt>0</asrwt>
<pdfrwt beam="1">  1        1 0.41053666E+00 0.68597857E+03</pdfrwt>
<pdfrwt beam="2">  1       -1 0.99425772E-01 0.68597857E+03</pdfrwt>
<totfact> 0.10841737E+00</totfact>
</mgrwt>
</event>
<event>
 4    1  0.2514307E-008  0.9805491E+03  0.7818608E-02  0.9407460E-01
         -1   -1    0    0    0  501 -0.00000000000E+00  0.00000000000E+00  0.84544340245E+03  0.84544340247E+03  0.50400000000E-02 0.  1.
          1   -1    0    0  501    0  0.00000000000E+00 -0.00000000000E+00 -0.11527419909E+04  0.11527419909E+04  0.50400000000E-02 0. -1.
    8880023    1    1    2    0    0 -0.15491275578E+03  0.70969597056E+03  0.31459481639E+03  0.10297798004E+04  0.65864270000E+03 0.  0.
    8880022    1    1    2    0    0  0.15491275578E+03 -0.70969597056E+03 -0.62189340482E+03  0.96840559297E+03  0.15294330000E+03 0.  0.
<mgrwt>
<rscale>  0 0.91464312E+03</rscale>
<asrwt>0</asrwt>
<pdfrwt beam="1">  1        1 0.17734492E+00 0.98054910E+03</pdfrwt>
<pdfrwt beam="2">  1       -1 0.13006822E+00 0.98054910E+03</pdfrwt>
<totfact> 0.58950532E+00</totfact>
</mgrwt>
</event>
<event>
 4    1  0.2514307E-008  0.7355641E+03  0.7818608E-02  0.9873062E-01
         -1   -1    0    0    0  501 -0.00000000000E+00  0.00000000000E+00  0.19395130141E+03  0.19395130147E+03  0.50400000000E-02 0.  1.
          1   -1    0    0  501    0  0.00000000000E+00 -0.00000000000E+00 -0.16523971821E+04  0.16523971822E+04  0.50400000000E-02 0. -1.
    8880023    1    1    2    0    0  0.14517504483E+03 -0.29354483925E+03 -0.11783413941E+04  0.13890799162E+04  0.65864270000E+03 0.  0.
    8880022    1    1    2    0    0 -0.14517504483E+03  0.29354483925E+03 -0.28010448660E+03  0.45726856739E+03  0.15294330000E+03 0.  0.
<mgrwt>
<rscale>  0 0.61584762E+03</rscale>
<asrwt>0</asrwt>
<pdfrwt beam="1">  1        1 0.25421494E+00 0.73556412E+03</pdfrwt>
<pdfrwt beam="2">  1       -1 0.29838663E-01 0.73556412E+03</pdfrwt>
<totfact> 0.54518856E+01</totfact>
</mgrwt>
</event>
<event>
 4    1  0.2514307E-008  0.7292435E+03  0.7818608E-02  0.9892466E-01
         -1   -1    0    0    0  501 -0.00000000000E+00  0.00000000000E+00  0.70842975636E+03  0.70842975637E+03  0.50400000000E-02 0.  1.
          1   -1    0    0  501    0  0.00000000000E+00 -0.00000000000E+00 -0.88462641607E+03  0.88462641608E+03  0.50400000000E-02 0. -1.
    8880023    1    1    2    0    0  0.45605120222E+02  0.30968699012E+03  0.46389861442E+03  0.86429045440E+03  0.65864270000E+03 0.  1.
    8880022    1    1    2    0    0 -0.45605120222E+02 -0.30968699012E+03 -0.64009527413E+03  0.72876571806E+03  0.15294330000E+03 0.  0.
<mgrwt>
<rscale>  0 0.60627785E+03</rscale>
<asrwt>0</asrwt>
<pdfrwt beam="1">  1        1 0.13609637E+00 0.72924349E+03</pdfrwt>
<pdfrwt beam="2">  1       -1 0.10898919E+00 0.72924349E+03</pdfrwt>
<totfact> 0.15085986E+01</totfact>
</mgrwt>
</event>
<event>
 4    1  0.2514307E-008  0.1918602E+04  0.7818608E-02  0.8659620E-01
         -1   -1    0    0    0  501 -0.00000000000E+00  0.00000000000E+00  0.16130137702E+04  0.16130137702E+04  0.50400000000E-02 0.  1.
          1   -1    0    0  501    0  0.00000000000E+00 -0.00000000000E+00 -0.22314720491E+04  0.22314720491E+04  0.50400000000E-02 0. -1.
    8880023    1    1    2    0    0  0.11639782632E+04  0.13756378125E+04  0.42309620880E+02  0.19190688103E+04  0.65864270000E+03 0.  0.
    8880022    1    1    2    0    0 -0.11639782632E+04 -0.13756378125E+04 -0.66076789979E+03  0.19254170091E+04  0.15294330000E+03 0.  0.
<mgrwt>
<rscale>  0 0.18904597E+04</rscale>
<asrwt>0</asrwt>
<pdfrwt beam="1">  1        1 0.34330339E+00 0.19186024E+04</pdfrwt>
<pdfrwt beam="2">  1       -1 0.24815596E+00 0.19186024E+04</pdfrwt>
<totfact> 0.13387249E-01</totfact>
</mgrwt>
</event>
<event>
 4    1  0.2514307E-008  0.1048071E+04  0.7818608E-02  0.9321204E-01
         -1   -1    0    0    0  501 -0.00000000000E+00  0.00000000000E+00  0.62051846773E+03  0.62051846775E+03  0.50400000000E-02 0.  1.
          1   -1    0    0  501    0  0.00000000000E+00 -0.00000000000E+00 -0.15978123672E+04  0.15978123672E+04  0.50400000000E-02 0. -1.
    8880023    1    1    2    0    0  0.59468968461E+03 -0.55766128493E+03 -0.17170892562E+03  0.10620433565E+04  0.65864270000E+03 0.  0.
    8880022    1    1    2    0    0 -0.59468968461E+03  0.55766128493E+03 -0.80558497381E+03  0.11562874784E+04  0.15294330000E+03 0.  0.
<mgrwt>
<rscale>  0 0.98853974E+03</rscale>
<asrwt>0</asrwt>
<pdfrwt beam="1">  1        1 0.24581729E+00 0.10480707E+04</pdfrwt>
<pdfrwt beam="2">  1       -1 0.95464380E-01 0.10480707E+04</pdfrwt>
<totfact> 0.59354467E+00</totfact>
</mgrwt>
</event>
<event>
 4    1  0.2514307E-008  0.7491295E+03  0.7818608E-02  0.9834109E-01
         -1   -1    0    0    0  501 -0.00000000000E+00  0.00000000000E+00  0.25611533450E+03  0.25611533455E+03  0.50400000000E-02 0.  1.
          1   -1    0    0  501    0  0.00000000000E+00 -0.00000000000E+00 -0.18094330570E+04  0.18094330570E+04  0.50400000000E-02 0. -1.
    8880023    1    1    2    0    0  0.27835115286E+03  0.22339514981E+03 -0.40128848745E+03  0.84983963998E+03  0.65864270000E+03 0.  1.
    8880022    1    1    2    0    0 -0.27835115286E+03 -0.22339514981E+03 -0.11520292351E+04  0.12157087516E+04  0.15294330000E+03 0.  0.
<mgrwt>
<rscale>  0 0.63563725E+03</rscale>
<asrwt>0</asrwt>
<pdfrwt beam="1">  1        1 0.27837431E+00 0.74912947E+03</pdfrwt>
<pdfrwt beam="2">  1       -1 0.39402360E-01 0.74912947E+03</pdfrwt>
<totfact> 0.26052099E+01</totfact>
</mgrwt>
</event>
<event>
 4    1  0.2514307E-008  0.9641022E+03  0.7818608E-02  0.9430108E-01
          1   -1    0    0  501    0  0.00000000000E+00  0.00000000000E+00  0.16938722361E+04  0.16938722361E+04  0.50400000000E-02 0. -1.
         -1   -1    0    0    0  501 -0.00000000000E+00 -0.00000000000E+00 -0.10656998274E+04  0.10656998274E+04  0.50400000000E-02 0.  1.
    8880023    1    1    2    0    0  0.10751925470E+03 -0.69578909970E+03 -0.73861953126E+03  0.12145171385E+04  0.65864270000E+03 0.  1.
    8880022    1    1    2    0    0 -0.10751925470E+03  0.69578909970E+03  0.13667919400E+04  0.15450549251E+04  0.15294330000E+03 0.  0.
<mgrwt>
<rscale>  0 0.89638797E+03</rscale>
<asrwt>0</asrwt>
<pdfrwt beam="1">  1        1 0.26059573E+00 0.96410221E+03</pdfrwt>
<pdfrwt beam="2">  1       -1 0.16395382E+00 0.96410221E+03</pdfrwt>
<totfact> 0.13303750E+00</totfact>
</mgrwt>
</event>
<event>
 4    1  0.2514307E-008  0.1272648E+04  0.7818608E-02  0.9089547E-01
         -1   -1    0    0    0  501 -0.00000000000E+00  0.00000000000E+00  0.91619929347E+03  0.91619929348E+03  0.50400000000E-02 0.  1.
          1   -1    0    0  501    0  0.00000000000E+00 -0.00000000000E+00 -0.17301827808E+04  0.17301827808E+04  0.50400000000E-02 0. -1.
    8880023    1    1    2    0    0  0.10444084012E+04 -0.30827699806E+03 -0.87599415610E+03  0.15449917747E+04  0.65864270000E+03 0. -1.
    8880022    1    1    2    0    0 -0.10444084012E+04  0.30827699806E+03  0.62010668787E+02  0.11013902996E+04  0.15294330000E+03 0.  0.
<mgrwt>
<rscale>  0 0.12269992E+04</rscale>
<asrwt>0</asrwt>
<pdfrwt beam="1">  1        1 0.26618197E+00 0.12726483E+04</pdfrwt>
<pdfrwt beam="2">  1       -1 0.14095374E+00 0.12726483E+04</pdfrwt>
<totfact> 0.18226922E+00</totfact>
</mgrwt>
</event>
<event>
 4    1  0.2514307E-008  0.7159645E+03  0.7818608E-02  0.9936485E-01
         -1   -1    0    0    0  501 -0.00000000000E+00  0.00000000000E+00  0.12209511383E+04  0.12209511383E+04  0.50400000000E-02 0.  1.
          1   -1    0    0  501    0  0.00000000000E+00 -0.00000000000E+00 -0.10668455957E+04  0.10668455957E+04  0.50400000000E-02 0. -1.
    8880023    1    1    2    0    0 -0.48652605729E+02 -0.27645583046E+03  0.10870275048E+04  0.13016274063E+04  0.65864270000E+03 0.  1.
    8880022    1    1    2    0    0  0.48652605729E+02  0.27645583046E+03 -0.93292196227E+03  0.98616932772E+03  0.15294330000E+03 0.  0.
<mgrwt>
<rscale>  0 0.58525188E+03</rscale>
<asrwt>0</asrwt>
<pdfrwt beam="1">  1        1 0.16413009E+00 0.71596446E+03</pdfrwt>
<pdfrwt beam="2">  1       -1 0.18783864E+00 0.71596446E+03</pdfrwt>
<totfact> 0.25774454E+00</totfact>
</mgrwt>
</event>
<event>
 4    1  0.2514307E-008  0.8401299E+03  0.7818608E-02  0.9629935E-01
         -1   -1    0    0    0  501 -0.00000000000E+00  0.00000000000E+00  0.11596181849E+04  0.11596181850E+04  0.50400000000E-02 0.  1.
          1   -1    0    0  501    0  0.00000000000E+00 -0.00000000000E+00 -0.15559923777E+04  0.15559923777E+04  0.50400000000E-02 0. -1.
    8880023    1    1    2    0    0 -0.24804202899E+02 -0.52095374067E+03  0.94730154805E+03  0.12661747421E+04  0.65864270000E+03 0.  1.
    8880022    1    1    2    0    0  0.24804202899E+02  0.52095374067E+03 -0.13436757408E+04  0.14494358206E+04  0.15294330000E+03 0.  0.
<mgrwt>
<rscale>  0 0.75346154E+03</rscale>
<asrwt>0</asrwt>
<pdfrwt beam="1">  1        1 0.23938344E+00 0.84012990E+03</pdfrwt>
<pdfrwt beam="2">  1       -1 0.17840280E+00 0.84012990E+03</pdfrwt>
<totfact> 0.13209876E+00</totfact>
</mgrwt>
</event>
<event>
 4    1  0.2514307E-008  0.6753995E+03  0.7818608E-02  0.1012056E+00
         -1   -1    0    0    0  501 -0.00000000000E+00  0.00000000000E+00  0.26698464957E+03  0.26698464962E+03  0.50400000000E-02 0.  1.
          1   -1    0    0  501    0  0.00000000000E+00 -0.00000000000E+00 -0.21469043736E+04  0.21469043736E+04  0.50400000000E-02 0. -1.
    8880023    1    1    2    0    0 -0.14717603606E+03 -0.26334333302E+02 -0.17783602936E+03  0.69841974650E+03  0.65864270000E+03 0.  1.
    8880022    1    1    2    0    0  0.14717603606E+03  0.26334333302E+02 -0.17020836947E+04  0.17154692767E+04  0.15294330000E+03 0.  0.
<mgrwt>
<rscale>  0 0.50665766E+03</rscale>
<asrwt>0</asrwt>
<pdfrwt beam="1">  1        1 0.33029297E+00 0.67539950E+03</pdfrwt>
<pdfrwt beam="2">  1       -1 0.41074563E-01 0.67539950E+03</pdfrwt>
<totfact> 0.14532295E+01</totfact>
</mgrwt>
</event>
<event>
 4    1  0.2514307E-008  0.7016693E+03  0.7818608E-02  0.9990346E-01
         -1   -1    0    0    0  501 -0.00000000000E+00  0.00000000000E+00  0.14339214022E+04  0.14339214023E+04  0.50400000000E-02 0.  1.
          1   -1    0    0  501    0  0.00000000000E+00 -0.00000000000E+00 -0.10992558549E+04  0.10992558549E+04  0.50400000000E-02 0. -1.
    8880023    1    1    2    0    0 -0.18511447107E+03  0.15576318850E+03  0.13266211729E+04  0.15007543040E+04  0.65864270000E+03 0.  1.
    8880022    1    1    2    0    0  0.18511447107E+03 -0.15576318850E+03 -0.99195562553E+03  0.10324229532E+04  0.15294330000E+03 0.  0.
<mgrwt>
<rscale>  0 0.56075592E+03</rscale>
<asrwt>0</asrwt>
<pdfrwt beam="1">  1        1 0.16911629E+00 0.70166926E+03</pdfrwt>
<pdfrwt beam="2">  1       -1 0.22060329E+00 0.70166926E+03</pdfrwt>
<totfact> 0.14641905E+00</totfact>
</mgrwt>
</event>
<event>
 4    1  0.2514307E-008  0.6587228E+03  0.7818608E-02  0.1025505E+00
         -1   -1    0    0    0  501 -0.00000000000E+00  0.00000000000E+00  0.60191264697E+03  0.60191264700E+03  0.50400000000E-02 0.  1.
          1   -1    0    0  501    0  0.00000000000E+00 -0.00000000000E+00 -0.21738997529E+04  0.21738997529E+04  0.50400000000E-02 0. -1.
    8880023    1    1    2    0    0  0.13190595640E+01  0.10190487674E+02  0.41785416017E+03  0.78007556774E+03  0.65864270000E+03 0.  1.
    8880022    1    1    2    0    0 -0.13190595640E+01 -0.10190487674E+02 -0.19898412661E+04  0.19957368321E+04  0.15294330000E+03 0.  0.
<mgrwt>
<rscale>  0 0.45751375E+03</rscale>
<asrwt>0</asrwt>
<pdfrwt beam="1">  1        1 0.33444611E+00 0.65872285E+03</pdfrwt>
<pdfrwt beam="2">  1       -1 0.92601947E-01 0.65872285E+03</pdfrwt>
<totfact> 0.27696503E+00</totfact>
</mgrwt>
</event>
<event>
 4    1  0.2514307E-008  0.7950650E+03  0.7818608E-02  0.9721570E-01
          1   -1    0    0  501    0  0.00000000000E+00  0.00000000000E+00  0.20475075579E+04  0.20475075579E+04  0.50400000000E-02 0. -1.
         -1   -1    0    0    0  501 -0.00000000000E+00 -0.00000000000E+00 -0.35131843141E+03  0.35131843145E+03  0.50400000000E-02 0.  1.
    8880023    1    1    2    0    0  0.44532623003E+03  0.16582720819E+01  0.18544659600E+03  0.81640605537E+03  0.65864270000E+03 0.  0.
    8880022    1    1    2    0    0 -0.44532623003E+03 -0.16582720819E+01  0.15107425305E+04  0.15824199340E+04  0.15294330000E+03 0.  0.
<mgrwt>
<rscale>  0 0.69746933E+03</rscale>
<asrwt>0</asrwt>
<pdfrwt beam="1">  1        1 0.31500117E+00 0.79506503E+03</pdfrwt>
<pdfrwt beam="2">  1       -1 0.54048989E-01 0.79506503E+03</pdfrwt>
<totfact> 0.99386320E+00</totfact>
</mgrwt>
</event>
<event>
 4    1  0.2514307E-008  0.6769939E+03  0.7818608E-02  0.1011078E+00
         -1   -1    0    0    0  501 -0.00000000000E+00  0.00000000000E+00  0.17123723638E+04  0.17123723638E+04  0.50400000000E-02 0.  1.
          1   -1    0    0  501    0  0.00000000000E+00 -0.00000000000E+00 -0.26321737161E+03  0.26321737166E+03  0.50400000000E-02 0. -1.
    8880023    1    1    2    0    0 -0.13974820700E+02 -0.15593351250E+03  0.15811605565E+04  0.17199969383E+04  0.65864270000E+03 0.  1.
    8880022    1    1    2    0    0  0.13974820700E+02  0.15593351250E+03 -0.13200556434E+03  0.25559279717E+03  0.15294330000E+03 0.  0.
<mgrwt>
<rscale>  0 0.51048504E+03</rscale>
<asrwt>0</asrwt>
<pdfrwt beam="1">  1        1 0.40494980E-01 0.67699392E+03</pdfrwt>
<pdfrwt beam="2">  1       -1 0.26344190E+00 0.67699392E+03</pdfrwt>
<totfact> 0.62227285E+00</totfact>
</mgrwt>
</event>
<event>
 4    1  0.2514307E-008  0.1252076E+04  0.7818608E-02  0.9108091E-01
          1   -1    0    0  501    0  0.00000000000E+00  0.00000000000E+00  0.14421578854E+04  0.14421578854E+04  0.50400000000E-02 0. -1.
         -1   -1    0    0    0  501 -0.00000000000E+00 -0.00000000000E+00 -0.19157769578E+04  0.19157769578E+04  0.50400000000E-02 0.  1.
    8880023    1    1    2    0    0 -0.68593775651E+03  0.81447800030E+03 -0.14425494729E+04  0.19101424572E+04  0.65864270000E+03 0.  1.
    8880022    1    1    2    0    0  0.68593775651E+03 -0.81447800030E+03  0.96893040056E+03  0.14477923860E+04  0.15294330000E+03 0.  0.
<mgrwt>
<rscale>  0 0.12054599E+04</rscale>
<asrwt>0</asrwt>
<pdfrwt beam="1">  1        1 0.22187044E+00 0.12520764E+04</pdfrwt>
<pdfrwt beam="2">  1       -1 0.29473492E+00 0.12520764E+04</pdfrwt>
<totfact> 0.25033388E-01</totfact>
</mgrwt>
</event>
<event>
 4    1  0.2514307E-008  0.1235672E+04  0.7818608E-02  0.9123203E-01
          1   -1    0    0  501    0  0.00000000000E+00  0.00000000000E+00  0.17546559733E+04  0.17546559733E+04  0.50400000000E-02 0. -1.
         -1   -1    0    0    0  501 -0.00000000000E+00 -0.00000000000E+00 -0.10076295324E+04  0.10076295324E+04  0.50400000000E-02 0.  1.
    8880023    1    1    2    0    0 -0.76212767625E+03 -0.71570724263E+03 -0.30338989182E+03  0.12723722273E+04  0.65864270000E+03 0.  0.
    8880022    1    1    2    0    0  0.76212767625E+03  0.71570724263E+03  0.10504163328E+04  0.14899132784E+04  0.15294330000E+03 0.  0.
<mgrwt>
<rscale>  0 0.11882510E+04</rscale>
<asrwt>0</asrwt>
<pdfrwt beam="1">  1        1 0.26994707E+00 0.12356721E+04</pdfrwt>
<pdfrwt beam="2">  1       -1 0.15501993E+00 0.12356721E+04</pdfrwt>
<totfact> 0.13635746E+00</totfact>
</mgrwt>
</event>
<event>
 4    1  0.2514307E-008  0.1173675E+04  0.7818608E-02  0.9183147E-01
          1   -1    0    0  501    0  0.00000000000E+00  0.00000000000E+00  0.17795925283E+04  0.17795925283E+04  0.50400000000E-02 0. -1.
         -1   -1    0    0    0  501 -0.00000000000E+00 -0.00000000000E+00 -0.94260271278E+03  0.94260271279E+03  0.50400000000E-02 0.  1.
    8880023    1    1    2    0    0 -0.97027180748E+03  0.47702185784E+02 -0.30745010908E+03  0.12132760011E+04  0.65864270000E+03 0.  0.
    8880022    1    1    2    0    0  0.97027180748E+03 -0.47702185784E+02  0.11444399246E+04  0.15089192401E+04  0.15294330000E+03 0.  0.
<mgrwt>
<rscale>  0 0.11229089E+04</rscale>
<asrwt>0</asrwt>
<pdfrwt beam="1">  1        1 0.27378346E+00 0.11736750E+04</pdfrwt>
<pdfrwt beam="2">  1       -1 0.14501580E+00 0.11736750E+04</pdfrwt>
<totfact> 0.15828611E+00</totfact>
</mgrwt>
</event>
<event>
 4    1  0.2514307E-008  0.1243379E+04  0.7818608E-02  0.9116067E-01
          1   -1    0    0  501    0  0.00000000000E+00  0.00000000000E+00  0.28016436875E+04  0.28016436875E+04  0.50400000000E-02 0. -1.
         -1   -1    0    0    0  501 -0.00000000000E+00 -0.00000000000E+00 -0.53530029919E+03  0.53530029922E+03  0.50400000000E-02 0.  1.
    8880023    1    1    2    0    0 -0.81294686434E+03  0.67178720846E+03  0.65567171933E+03  0.14056657737E+04  0.65864270000E+03 0.  1.
    8880022    1    1    2    0    0  0.81294686434E+03 -0.67178720846E+03  0.16106716690E+04  0.19312782130E+04  0.15294330000E+03 0.  0.
<mgrwt>
<rscale>  0 0.11963395E+04</rscale>
<asrwt>0</asrwt>
<pdfrwt beam="1">  1        1 0.43102212E+00 0.12433788E+04</pdfrwt>
<pdfrwt beam="2">  1       -1 0.82353890E-01 0.12433788E+04</pdfrwt>
<totfact> 0.12056827E+00</totfact>
</mgrwt>
</event>
<event>
 4    1  0.2514307E-008  0.1459716E+04  0.7818608E-02  0.8938618E-01
         -1   -1    0    0    0  501 -0.00000000000E+00  0.00000000000E+00  0.15341249455E+04  0.15341249455E+04  0.50400000000E-02 0.  1.
          1   -1    0    0  501    0  0.00000000000E+00 -0.00000000000E+00 -0.16890591319E+04  0.16890591319E+04  0.50400000000E-02 0. -1.
    8880023    1    1    2    0    0  0.10951968689E+04  0.70533953124E+03  0.73878264611E+03  0.16360226283E+04  0.65864270000E+03 0.  0.
    8880022    1    1    2    0    0 -0.10951968689E+04 -0.70533953124E+03 -0.89371683253E+03  0.15871614491E+04  0.15294330000E+03 0.  0.
<mgrwt>
<rscale>  0 0.14211941E+04</rscale>
<asrwt>0</asrwt>
<pdfrwt beam="1">  1        1 0.25985525E+00 0.14597158E+04</pdfrwt>
<pdfrwt beam="2">  1       -1 0.23601922E+00 0.14597158E+04</pdfrwt>
<totfact> 0.39636482E-01</totfact>
</mgrwt>
</event>
<event>
 4    1  0.2514307E-008  0.1014300E+04  0.7818608E-02  0.9363083E-01
         -1   -1    0    0    0  501 -0.00000000000E+00  0.00000000000E+00  0.56106279246E+03  0.56106279248E+03  0.50400000000E-02 0.  1.
          1   -1    0    0  501    0  0.00000000000E+00 -0.00000000000E+00 -0.14872426321E+04  0.14872426321E+04  0.50400000000E-02 0. -1.
    8880023    1    1    2    0    0 -0.30645202715E+03 -0.70787140874E+03 -0.34831801679E+03  0.10724413379E+04  0.65864270000E+03 0.  0.
    8880022    1    1    2    0    0  0.30645202715E+03  0.70787140874E+03 -0.57786182283E+03  0.97586408662E+03  0.15294330000E+03 0.  0.
<mgrwt>
<rscale>  0 0.95177083E+03</rscale>
<asrwt>0</asrwt>
<pdfrwt beam="1">  1        1 0.22880656E+00 0.10143002E+04</pdfrwt>
<pdfrwt beam="2">  1       -1 0.86317353E-01 0.10143002E+04</pdfrwt>
<totfact> 0.88757717E+00</totfact>
</mgrwt>
</event>
<event>
 4    1  0.2514307E-008  0.7747298E+03  0.7818608E-02  0.9768366E-01
          1   -1    0    0  501    0  0.00000000000E+00  0.00000000000E+00  0.15135974810E+04  0.15135974810E+04  0.50400000000E-02 0. -1.
         -1   -1    0    0    0  501 -0.00000000000E+00 -0.00000000000E+00 -0.35124396602E+03  0.35124396606E+03  0.50400000000E-02 0.  1.
    8880023    1    1    2    0    0 -0.84647390170E+02 -0.39903743597E+03  0.18753274123E+03  0.79710400279E+03  0.65864270000E+03 0.  1.
    8880022    1    1    2    0    0  0.84647390170E+02  0.39903743597E+03  0.97482077377E+03  0.10677374443E+04  0.15294330000E+03 0.  0.
<mgrwt>
<rscale>  0 0.67088210E+03</rscale>
<asrwt>0</asrwt>
<pdfrwt beam="1">  1        1 0.23286114E+00 0.77472980E+03</pdfrwt>
<pdfrwt beam="2">  1       -1 0.54037535E-01 0.77472980E+03</pdfrwt>
<totfact> 0.22810853E+01</totfact>
</mgrwt>
</event>
<event>
 4    1  0.2514307E-008  0.7494691E+03  0.7818608E-02  0.9833176E-01
          1   -1    0    0  501    0  0.00000000000E+00  0.00000000000E+00  0.22310541390E+04  0.22310541390E+04  0.50400000000E-02 0. -1.
         -1   -1    0    0    0  501 -0.00000000000E+00 -0.00000000000E+00 -0.26608175349E+03  0.26608175354E+03  0.50400000000E-02 0.  1.
    8880023    1    1    2    0    0 -0.35348025434E+03 -0.54271543167E+02  0.33417366453E+03  0.82059486650E+03  0.65864270000E+03 0.  0.
    8880022    1    1    2    0    0  0.35348025434E+03  0.54271543167E+02  0.16307987210E+04  0.16765410260E+04  0.15294330000E+03 0.  0.
<mgrwt>
<rscale>  0 0.63612124E+03</rscale>
<asrwt>0</asrwt>
<pdfrwt beam="1">  1        1 0.34323911E+00 0.74946908E+03</pdfrwt>
<pdfrwt beam="2">  1       -1 0.40935653E-01 0.74946908E+03</pdfrwt>
<totfact> 0.12688987E+01</totfact>
</mgrwt>
</event>
<event>
 4    1  0.2514307E-008  0.8692296E+03  0.7818608E-02  0.9577352E-01
          1   -1    0    0  501    0  0.00000000000E+00  0.00000000000E+00  0.75894644178E+03  0.75894644180E+03  0.50400000000E-02 0. -1.
         -1   -1    0    0    0  501 -0.00000000000E+00 -0.00000000000E+00 -0.13627206104E+04  0.13627206104E+04  0.50400000000E-02 0.  1.
    8880023    1    1    2    0    0 -0.56675171207E+03  0.23287603149E+02 -0.10650467475E+04  0.13747307359E+04  0.65864270000E+03 0.  0.
    8880022    1    1    2    0    0  0.56675171207E+03 -0.23287603149E+02  0.46127257887E+03  0.74693631631E+03  0.15294330000E+03 0.  0.
<mgrwt>
<rscale>  0 0.78813480E+03</rscale>
<asrwt>0</asrwt>
<pdfrwt beam="1">  1        1 0.11676099E+00 0.86922956E+03</pdfrwt>
<pdfrwt beam="2">  1       -1 0.20964932E+00 0.86922956E+03</pdfrwt>
<totfact> 0.31747001E+00</totfact>
</mgrwt>
</event>
<event>
 4    1  0.2514307E-008  0.1925159E+04  0.7818608E-02  0.8656290E-01
          1   -1    0    0  501    0  0.00000000000E+00  0.00000000000E+00  0.22275828885E+04  0.22275828885E+04  0.50400000000E-02 0. -1.
         -1   -1    0    0    0  501 -0.00000000000E+00 -0.00000000000E+00 -0.22567713829E+04  0.22567713829E+04  0.50400000000E-02 0.  1.
    8880023    1    1    2    0    0 -0.17944959578E+04 -0.22849641341E+03 -0.12511271088E+04  0.22959868471E+04  0.65864270000E+03 0.  0.
    8880022    1    1    2    0    0  0.17944959578E+04  0.22849641341E+03  0.12219386144E+04  0.21883674243E+04  0.15294330000E+03 0.  0.
<mgrwt>
<rscale>  0 0.18971223E+04</rscale>
<asrwt>0</asrwt>
<pdfrwt beam="1">  1        1 0.34270506E+00 0.19251588E+04</pdfrwt>
<pdfrwt beam="2">  1       -1 0.34719560E+00 0.19251588E+04</pdfrwt>
<totfact> 0.30271113E-02</totfact>
</mgrwt>
</event>
<event>
 4    1  0.2514307E-008  0.7261162E+03  0.7818608E-02  0.9902409E-01
          1   -1    0    0  501    0  0.00000000000E+00  0.00000000000E+00  0.79053099502E+03  0.79053099504E+03  0.50400000000E-02 0. -1.
         -1   -1    0    0    0  501 -0.00000000000E+00 -0.00000000000E+00 -0.41261366984E+03  0.41261366987E+03  0.50400000000E-02 0.  1.
    8880023    1    1    2    0    0  0.29511509421E+02 -0.30424265620E+03  0.47372942508E+02  0.72765989651E+03  0.65864270000E+03 0.  0.
    8880022    1    1    2    0    0 -0.29511509421E+02  0.30424265620E+03  0.33054438268E+03  0.47548476840E+03  0.15294330000E+03 0.  0.
<mgrwt>
<rscale>  0 0.60144665E+03</rscale>
<asrwt>0</asrwt>
<pdfrwt beam="1">  1        1 0.12162015E+00 0.72611620E+03</pdfrwt>
<pdfrwt beam="2">  1       -1 0.63479026E-01 0.72611620E+03</pdfrwt>
<totfact> 0.58091613E+01</totfact>
</mgrwt>
</event>
<event>
 4    1  0.2514307E-008  0.8949683E+03  0.7818608E-02  0.9534158E-01
          1   -1    0    0  501    0  0.00000000000E+00  0.00000000000E+00  0.88542851459E+03  0.88542851461E+03  0.50400000000E-02 0. -1.
         -1   -1    0    0    0  501 -0.00000000000E+00 -0.00000000000E+00 -0.11824681007E+04  0.11824681007E+04  0.50400000000E-02 0.  1.
    8880023    1    1    2    0    0 -0.49308325632E+03 -0.35217454089E+03 -0.84937321610E+03  0.12338569899E+04  0.65864270000E+03 0.  1.
    8880022    1    1    2    0    0  0.49308325632E+03  0.35217454089E+03  0.55233363003E+03  0.83403962543E+03  0.15294330000E+03 0.  0.
<mgrwt>
<rscale>  0 0.81811671E+03</rscale>
<asrwt>0</asrwt>
<pdfrwt beam="1">  1        1 0.13621977E+00 0.89496827E+03</pdfrwt>
<pdfrwt beam="2">  1       -1 0.18191817E+00 0.89496827E+03</pdfrwt>
<totfact> 0.38335708E+00</totfact>
</mgrwt>
</event>
<event>
 4    1  0.2514307E-008  0.8200908E+03  0.7818608E-02  0.9668929E-01
          1   -1    0    0  501    0  0.00000000000E+00  0.00000000000E+00  0.11701125512E+04  0.11701125512E+04  0.50400000000E-02 0. -1.
         -1   -1    0    0    0  501 -0.00000000000E+00 -0.00000000000E+00 -0.91430512606E+03  0.91430512607E+03  0.50400000000E-02 0.  1.
    8880023    1    1    2    0    0  0.28035610717E+03 -0.40017384080E+03 -0.64831178277E+03  0.10453980216E+04  0.65864270000E+03 0.  1.
    8880022    1    1    2    0    0 -0.28035610717E+03  0.40017384080E+03  0.90411920788E+03  0.10390196556E+04  0.15294330000E+03 0.  0.
<mgrwt>
<rscale>  0 0.72897241E+03</rscale>
<asrwt>0</asrwt>
<pdfrwt beam="1">  1        1 0.18001732E+00 0.82009076E+03</pdfrwt>
<pdfrwt beam="2">  1       -1 0.14066233E+00 0.82009076E+03</pdfrwt>
<totfact> 0.47797123E+00</totfact>
</mgrwt>
</event>
<event>
 4    1  0.2514307E-008  0.8527794E+03  0.7818608E-02  0.9606539E-01
         -1   -1    0    0    0  501 -0.00000000000E+00  0.00000000000E+00  0.73300584726E+03  0.73300584728E+03  0.50400000000E-02 0.  1.
          1   -1    0    0  501    0  0.00000000000E+00 -0.00000000000E+00 -0.77371356776E+03  0.77371356777E+03  0.50400000000E-02 0. -1.
    8880023    1    1    2    0    0  0.52097877787E+03 -0.14833615601E+03  0.22839708507E+03  0.88283516972E+03  0.65864270000E+03 0.  0.
    8880022    1    1    2    0    0 -0.52097877787E+03  0.14833615601E+03 -0.26910480556E+03  0.62388424532E+03  0.15294330000E+03 0.  0.
<mgrwt>
<rscale>  0 0.76864906E+03</rscale>
<asrwt>0</asrwt>
<pdfrwt beam="1">  1        1 0.11903286E+00 0.85277940E+03</pdfrwt>
<pdfrwt beam="2">  1       -1 0.11277013E+00 0.85277940E+03</pdfrwt>
<totfact> 0.17052638E+01</totfact>
</mgrwt>
</event>
<event>
 4    1  0.2514307E-008  0.8392319E+03  0.7818608E-02  0.9631630E-01
          1   -1    0    0  501    0  0.00000000000E+00  0.00000000000E+00  0.11787139801E+04  0.11787139801E+04  0.50400000000E-02 0. -1.
         -1   -1    0    0    0  501 -0.00000000000E+00 -0.00000000000E+00 -0.47908094286E+03  0.47908094289E+03  0.50400000000E-02 0.  1.
    8880023    1    1    2    0    0 -0.45084789702E+03 -0.25929925128E+03  0.93226008258E+02  0.84439399740E+03  0.65864270000E+03 0.  1.
    8880022    1    1    2    0    0  0.45084789702E+03  0.25929925128E+03  0.60640702901E+03  0.81340092563E+03  0.15294330000E+03 0.  0.
<mgrwt>
<rscale>  0 0.75237589E+03</rscale>
<asrwt>0</asrwt>
<pdfrwt beam="1">  1        1 0.18134061E+00 0.83923187E+03</pdfrwt>
<pdfrwt beam="2">  1       -1 0.73704760E-01 0.83923187E+03</pdfrwt>
<totfact> 0.20949113E+01</totfact>
</mgrwt>
</event>
<event>
 4    1  0.2514307E-008  0.6855292E+03  0.7818608E-02  0.1006354E+00
          1   -1    0    0  501    0  0.00000000000E+00  0.00000000000E+00  0.39705697592E+03  0.39705697595E+03  0.50400000000E-02 0. -1.
         -1   -1    0    0    0  501 -0.00000000000E+00 -0.00000000000E+00 -0.11466412960E+04  0.11466412960E+04  0.50400000000E-02 0.  1.
    8880023    1    1    2    0    0  0.30726901034E+01 -0.19008068996E+03 -0.98801684442E+03  0.12025504568E+04  0.65864270000E+03 0.  1.
    8880022    1    1    2    0    0 -0.30726901034E+01  0.19008068996E+03  0.23843252431E+03  0.34114781515E+03  0.15294330000E+03 0.  0.
<mgrwt>
<rscale>  0 0.52949647E+03</rscale>
<asrwt>0</asrwt>
<pdfrwt beam="1">  1        1 0.61085689E-01 0.68552922E+03</pdfrwt>
<pdfrwt beam="2">  1       -1 0.17640635E+00 0.68552922E+03</pdfrwt>
<totfact> 0.13873909E+01</totfact>
</mgrwt>
</event>
<event>
 4    1  0.2514307E-008  0.9175790E+03  0.7818608E-02  0.9498381E-01
          1   -1    0    0  501    0  0.00000000000E+00  0.00000000000E+00  0.18100475678E+04  0.18100475678E+04  0.50400000000E-02 0. -1.
         -1   -1    0    0    0  501 -0.00000000000E+00 -0.00000000000E+00 -0.98224669511E+03  0.98224669513E+03  0.50400000000E-02 0.  1.
    8880023    1    1    2    0    0  0.16300007874E+03  0.61771519414E+03 -0.68365076326E+03  0.11442594370E+04  0.65864270000E+03 0.  0.
    8880022    1    1    2    0    0 -0.16300007874E+03 -0.61771519414E+03  0.15114516359E+04  0.16480348259E+04  0.15294330000E+03 0.  0.
<mgrwt>
<rscale>  0 0.84403282E+03</rscale>
<asrwt>0</asrwt>
<pdfrwt beam="1">  1        1 0.27846886E+00 0.91757904E+03</pdfrwt>
<pdfrwt beam="2">  1       -1 0.15111488E+00 0.91757904E+03</pdfrwt>
<totfact> 0.14014043E+00</totfact>
</mgrwt>
</event>
<event>
 4    1  0.2514307E-008  0.1063368E+04  0.7818608E-02  0.9302981E-01
         -1   -1    0    0    0  501 -0.00000000000E+00  0.00000000000E+00  0.12131438137E+04  0.12131438137E+04  0.50400000000E-02 0.  1.
          1   -1    0    0  501    0  0.00000000000E+00 -0.00000000000E+00 -0.19357928284E+04  0.19357928285E+04  0.50400000000E-02 0. -1.
    8880023    1    1    2    0    0 -0.76080329446E+02 -0.83135623463E+03  0.85036019922E+03  0.13615667740E+04  0.65864270000E+03 0.  1.
    8880022    1    1    2    0    0  0.76080329446E+02  0.83135623463E+03 -0.15730092140E+04  0.17873698682E+04  0.15294330000E+03 0.  0.
<mgrwt>
<rscale>  0 0.10050887E+04</rscale>
<asrwt>0</asrwt>
<pdfrwt beam="1">  1        1 0.29781428E+00 0.10633681E+04</pdfrwt>
<pdfrwt beam="2">  1       -1 0.18663751E+00 0.10633681E+04</pdfrwt>
<totfact> 0.61542877E-01</totfact>
</mgrwt>
</event>
<event>
 4    1  0.2514307E-008  0.6765876E+03  0.7818608E-02  0.1011324E+00
         -1   -1    0    0    0  501 -0.00000000000E+00  0.00000000000E+00  0.38195299374E+03  0.38195299378E+03  0.50400000000E-02 0.  1.
          1   -1    0    0  501    0  0.00000000000E+00 -0.00000000000E+00 -0.61713075610E+03  0.61713075612E+03  0.50400000000E-02 0. -1.
    8880023    1    1    2    0    0 -0.87801841213E+02  0.12748120889E+03  0.28299094501E+01  0.67659355347E+03  0.65864270000E+03 0.  0.
    8880022    1    1    2    0    0  0.87801841213E+02 -0.12748120889E+03 -0.23800767181E+03  0.32249019643E+03  0.15294330000E+03 0.  0.
<mgrwt>
<rscale>  0 0.50951931E+03</rscale>
<asrwt>0</asrwt>
<pdfrwt beam="1">  1        1 0.94943193E-01 0.67658764E+03</pdfrwt>
<pdfrwt beam="2">  1       -1 0.58761999E-01 0.67658764E+03</pdfrwt>
<totfact> 0.98783578E+01</totfact>
</mgrwt>
</event>
<event>
 4    1  0.2514307E-008  0.6924849E+03  0.7818608E-02  0.1002993E+00
         -1   -1    0    0    0  501 -0.00000000000E+00  0.00000000000E+00  0.17883675306E+03  0.17883675313E+03  0.50400000000E-02 0.  1.
          1   -1    0    0  501    0  0.00000000000E+00 -0.00000000000E+00 -0.39149749295E+04  0.39149749295E+04  0.50400000000E-02 0. -1.
    8880023    1    1    2    0    0  0.20709795750E+03  0.53250231529E+02 -0.51758749703E+03  0.86454159790E+03  0.65864270000E+03 0.  1.
    8880022    1    1    2    0    0 -0.20709795750E+03 -0.53250231529E+02 -0.32185506794E+04  0.32292700847E+04  0.15294330000E+03 0.  0.
<mgrwt>
<rscale>  0 0.54357027E+03</rscale>
<asrwt>0</asrwt>
<pdfrwt beam="1">  1        1 0.60230377E+00 0.69248491E+03</pdfrwt>
<pdfrwt beam="2">  1       -1 0.27513350E-01 0.69248491E+03</pdfrwt>
<totfact> 0.15045625E+00</totfact>
</mgrwt>
</event>
<event>
 4    1  0.2514307E-008  0.7930149E+03  0.7818608E-02  0.9726108E-01
         -1   -1    0    0    0  501 -0.00000000000E+00  0.00000000000E+00  0.35069895524E+03  0.35069895528E+03  0.50400000000E-02 0.  1.
          1   -1    0    0  501    0  0.00000000000E+00 -0.00000000000E+00 -0.21548909832E+04  0.21548909832E+04  0.50400000000E-02 0. -1.
    8880023    1    1    2    0    0  0.44115688355E+03 -0.21046905875E+02 -0.17690020929E+03  0.81250615903E+03  0.65864270000E+03 0.  0.
    8880022    1    1    2    0    0 -0.44115688355E+03  0.21046905875E+02 -0.16272918186E+04  0.16930837794E+04  0.15294330000E+03 0.  0.
<mgrwt>
<rscale>  0 0.69483390E+03</rscale>
<asrwt>0</asrwt>
<pdfrwt beam="1">  1        1 0.33152168E+00 0.79301486E+03</pdfrwt>
<pdfrwt beam="2">  1       -1 0.53953687E-01 0.79301486E+03</pdfrwt>
<totfact> 0.84517815E+00</totfact>
</mgrwt>
</event>
<event>
 4    1  0.2514307E-008  0.1704290E+04  0.7818608E-02  0.8777413E-01
         -1   -1    0    0    0  501 -0.00000000000E+00  0.00000000000E+00  0.61099611536E+03  0.61099611538E+03  0.50400000000E-02 0.  1.
          1   -1    0    0  501    0  0.00000000000E+00 -0.00000000000E+00 -0.47243614323E+04  0.47243614323E+04  0.50400000000E-02 0. -1.
    8880023    1    1    2    0    0  0.15718381729E+04  0.10833005957E+02 -0.14438980757E+04  0.22337064388E+04  0.65864270000E+03 0.  0.
    8880022    1    1    2    0    0 -0.15718381729E+04 -0.10833005957E+02 -0.26694672413E+04  0.31016511089E+04  0.15294330000E+03 0.  0.
<mgrwt>
<rscale>  0 0.16721437E+04</rscale>
<asrwt>0</asrwt>
<pdfrwt beam="1">  1        1 0.72682481E+00 0.17042895E+04</pdfrwt>
<pdfrwt beam="2">  1       -1 0.93999405E-01 0.17042895E+04</pdfrwt>
<totfact> 0.19396792E-02</totfact>
</mgrwt>
</event>
<event>
 4    1  0.2514307E-008  0.1385238E+04  0.7818608E-02  0.8995239E-01
          1   -1    0    0  501    0  0.00000000000E+00  0.00000000000E+00  0.17816336100E+04  0.17816336100E+04  0.50400000000E-02 0. -1.
         -1   -1    0    0    0  501 -0.00000000000E+00 -0.00000000000E+00 -0.24589054247E+04  0.24589054247E+04  0.50400000000E-02 0.  1.
    8880023    1    1    2    0    0 -0.11393855529E+04 -0.43229011671E+03  0.13085692183E+04  0.19055806958E+04  0.65864270000E+03 0.  0.
    8880022    1    1    2    0    0  0.11393855529E+04  0.43229011671E+03 -0.19858410330E+04  0.23349583389E+04  0.15294330000E+03 0.  0.
<mgrwt>
<rscale>  0 0.13441887E+04</rscale>
<asrwt>0</asrwt>
<pdfrwt beam="1">  1        1 0.27409748E+00 0.13852380E+04</pdfrwt>
<pdfrwt beam="2">  1       -1 0.37829314E+00 0.13852380E+04</pdfrwt>
<totfact> 0.40489083E-02</totfact>
</mgrwt>
</event>
<event>
 4    1  0.2514307E-008  0.8954682E+03  0.7818608E-02  0.9533346E-01
          1   -1    0    0  501    0  0.00000000000E+00  0.00000000000E+00  0.89434547001E+03  0.89434547003E+03  0.50400000000E-02 0. -1.
         -1   -1    0    0    0  501 -0.00000000000E+00 -0.00000000000E+00 -0.19668191392E+04  0.19668191392E+04  0.50400000000E-02 0.  1.
    8880023    1    1    2    0    0  0.20713598120E+03 -0.57021726872E+03 -0.17334227996E+04  0.19510555750E+04  0.65864270000E+03 0.  1.
    8880022    1    1    2    0    0 -0.20713598120E+03  0.57021726872E+03  0.66094913039E+03  0.91010903426E+03  0.15294330000E+03 0.  0.
<mgrwt>
<rscale>  0 0.81869365E+03</rscale>
<asrwt>0</asrwt>
<pdfrwt beam="1">  1        1 0.13759161E+00 0.89546818E+03</pdfrwt>
<pdfrwt beam="2">  1       -1 0.30258756E+00 0.89546818E+03</pdfrwt>
<totfact> 0.60292167E-01</totfact>
</mgrwt>
</event>
<event>
 4    1  0.2514307E-008  0.6615481E+03  0.7818608E-02  0.1022624E+00
         -1   -1    0    0    0  501 -0.00000000000E+00  0.00000000000E+00  0.64036831711E+03  0.64036831713E+03  0.50400000000E-02 0.  1.
          1   -1    0    0  501    0  0.00000000000E+00 -0.00000000000E+00 -0.18147004737E+04  0.18147004737E+04  0.50400000000E-02 0. -1.
    8880023    1    1    2    0    0  0.32015695892E+02 -0.53015403310E+02  0.46425487683E+03  0.80819455251E+03  0.65864270000E+03 0.  1.
    8880022    1    1    2    0    0 -0.32015695892E+02  0.53015403310E+02 -0.16385870334E+04  0.16468742383E+04  0.15294330000E+03 0.  0.
<mgrwt>
<rscale>  0 0.46751614E+03</rscale>
<asrwt>0</asrwt>
<pdfrwt beam="1">  1        1 0.27918469E+00 0.66154807E+03</pdfrwt>
<pdfrwt beam="2">  1       -1 0.98518203E-01 0.66154807E+03</pdfrwt>
<totfact> 0.41831170E+00</totfact>
</mgrwt>
</event>
<event>
 4    1  0.2514307E-008  0.8321002E+03  0.7818608E-02  0.9645260E-01
          1   -1    0    0  501    0  0.00000000000E+00  0.00000000000E+00  0.30850978315E+04  0.30850978316E+04  0.50400000000E-02 0. -1.
         -1   -1    0    0    0  501 -0.00000000000E+00 -0.00000000000E+00 -0.64164886060E+03  0.64164886062E+03  0.50400000000E-02 0.  1.
    8880023    1    1    2    0    0 -0.50646799175E+03  0.45505391889E+02 -0.33574207485E+03  0.89728117915E+03  0.65864270000E+03 0.  1.
    8880022    1    1    2    0    0  0.50646799175E+03 -0.45505391889E+02  0.27791910458E+04  0.28294655130E+04  0.15294330000E+03 0.  0.
<mgrwt>
<rscale>  0 0.74371667E+03</rscale>
<asrwt>0</asrwt>
<pdfrwt beam="1">  1        1 0.47463043E+00 0.83210022E+03</pdfrwt>
<pdfrwt beam="2">  1       -1 0.98715210E-01 0.83210022E+03</pdfrwt>
<totfact> 0.54065040E-01</totfact>
</mgrwt>
</event>
<event>
 4    1  0.2514307E-008  0.7114641E+03  0.7818608E-02  0.9952604E-01
         -1   -1    0    0    0  501 -0.00000000000E+00  0.00000000000E+00  0.33364520934E+03  0.33364520938E+03  0.50400000000E-02 0.  1.
          1   -1    0    0  501    0  0.00000000000E+00 -0.00000000000E+00 -0.20243103539E+04  0.20243103539E+04  0.50400000000E-02 0. -1.
    8880023    1    1    2    0    0 -0.27587599601E+02 -0.26760016910E+03 -0.77838481843E+02  0.71570941148E+03  0.65864270000E+03 0.  1.
    8880022    1    1    2    0    0  0.27587599601E+02  0.26760016910E+03 -0.16128266627E+04  0.16422461518E+04  0.15294330000E+03 0.  0.
<mgrwt>
<rscale>  0 0.57778227E+03</rscale>
<asrwt>0</asrwt>
<pdfrwt beam="1">  1        1 0.31143235E+00 0.71146408E+03</pdfrwt>
<pdfrwt beam="2">  1       -1 0.51330034E-01 0.71146408E+03</pdfrwt>
<totfact> 0.11518053E+01</totfact>
</mgrwt>
</event>
<event>
 4    1  0.2514307E-008  0.6650337E+03  0.7818608E-02  0.1019505E+00
         -1   -1    0    0    0  501 -0.00000000000E+00  0.00000000000E+00  0.42850390517E+03  0.42850390520E+03  0.50400000000E-02 0.  1.
          1   -1    0    0  501    0  0.00000000000E+00 -0.00000000000E+00 -0.81567995633E+03  0.81567995634E+03  0.50400000000E-02 0. -1.
    8880023    1    1    2    0    0  0.43381781830E+02  0.81103024877E+02  0.14691092437E+03  0.68106732824E+03  0.65864270000E+03 0.  1.
    8880022    1    1    2    0    0 -0.43381781830E+02 -0.81103024877E+02 -0.53408697552E+03  0.56311653330E+03  0.15294330000E+03 0.  0.
<mgrwt>
<rscale>  0 0.47865623E+03</rscale>
<asrwt>0</asrwt>
<pdfrwt beam="1">  1        1 0.12548922E+00 0.66503375E+03</pdfrwt>
<pdfrwt beam="2">  1       -1 0.65923678E-01 0.66503375E+03</pdfrwt>
<totfact> 0.51539622E+01</totfact>
</mgrwt>
</event>
<event>
 4    1  0.2514307E-008  0.7896819E+03  0.7818608E-02  0.9733567E-01
         -1   -1    0    0    0  501 -0.00000000000E+00  0.00000000000E+00  0.10040912615E+04  0.10040912615E+04  0.50400000000E-02 0.  1.
          1   -1    0    0  501    0  0.00000000000E+00 -0.00000000000E+00 -0.72611982314E+03  0.72611982315E+03  0.50400000000E-02 0. -1.
    8880023    1    1    2    0    0  0.19839979102E+03  0.38784646770E+03  0.73626159968E+03  0.10796660173E+04  0.65864270000E+03 0.  1.
    8880022    1    1    2    0    0 -0.19839979102E+03 -0.38784646770E+03 -0.45829016134E+03  0.65054506730E+03  0.15294330000E+03 0.  0.
<mgrwt>
<rscale>  0 0.69052946E+03</rscale>
<asrwt>0</asrwt>
<pdfrwt beam="1">  1        1 0.11171074E+00 0.78968194E+03</pdfrwt>
<pdfrwt beam="2">  1       -1 0.15447558E+00 0.78968194E+03</pdfrwt>
<totfact> 0.85155872E+00</totfact>
</mgrwt>
</event>
<event>
 4    1  0.2514307E-008  0.6703371E+03  0.7818608E-02  0.1015422E+00
          1   -1    0    0  501    0  0.00000000000E+00  0.00000000000E+00  0.14163633960E+04  0.14163633960E+04  0.50400000000E-02 0. -1.
         -1   -1    0    0    0  501 -0.00000000000E+00 -0.00000000000E+00 -0.37018949987E+03  0.37018949990E+03  0.50400000000E-02 0.  1.
    8880023    1    1    2    0    0 -0.68325984887E+02 -0.10427453602E+03 -0.50531282275E+02  0.67223897226E+03  0.65864270000E+03 0.  1.
    8880022    1    1    2    0    0  0.68325984887E+02  0.10427453602E+03  0.10967051784E+04  0.11143139236E+04  0.15294330000E+03 0.  0.
<mgrwt>
<rscale>  0 0.49375335E+03</rscale>
<asrwt>0</asrwt>
<pdfrwt beam="1">  1        1 0.21790206E+00 0.67033710E+03</pdfrwt>
<pdfrwt beam="2">  1       -1 0.56952231E-01 0.67033710E+03</pdfrwt>
<totfact> 0.24369211E+01</totfact>
</mgrwt>
</event>
<event>
 4    1  0.2514307E-008  0.1103965E+04  0.7818608E-02  0.9256654E-01
         -1   -1    0    0    0  501 -0.00000000000E+00  0.00000000000E+00  0.65723927045E+03  0.65723927047E+03  0.50400000000E-02 0.  1.
          1   -1    0    0  501    0  0.00000000000E+00 -0.00000000000E+00 -0.29760736938E+04  0.29760736938E+04  0.50400000000E-02 0. -1.
    8880023    1    1    2    0    0 -0.40380507803E+03  0.78858792313E+03  0.44377051507E+02  0.11048569964E+04  0.65864270000E+03 0.  0.
    8880022    1    1    2    0    0  0.40380507803E+03 -0.78858792313E+03 -0.23632114749E+04  0.25284559679E+04  0.15294330000E+03 0.  0.
<mgrwt>
<rscale>  0 0.10487322E+04</rscale>
<asrwt>0</asrwt>
<pdfrwt beam="1">  1        1 0.45785748E+00 0.11039654E+04</pdfrwt>
<pdfrwt beam="2">  1       -1 0.10111374E+00 0.11039654E+04</pdfrwt>
<totfact> 0.58398869E-01</totfact>
</mgrwt>
</event>
<event>
 4    1  0.2514307E-008  0.9469366E+03  0.7818608E-02  0.9454535E-01
         -1   -1    0    0    0  501 -0.00000000000E+00  0.00000000000E+00  0.38754948407E+03  0.38754948410E+03  0.50400000000E-02 0.  1.
          1   -1    0    0  501    0  0.00000000000E+00 -0.00000000000E+00 -0.21609603193E+04  0.21609603193E+04  0.50400000000E-02 0. -1.
    8880023    1    1    2    0    0  0.62842039223E+03  0.26070376281E+03 -0.44086843027E+03  0.10445352174E+04  0.65864270000E+03 0.  0.
    8880022    1    1    2    0    0 -0.62842039223E+03 -0.26070376281E+03 -0.13325424049E+04  0.15039745860E+04  0.15294330000E+03 0.  0.
<mgrwt>
<rscale>  0 0.87720355E+03</rscale>
<asrwt>0</asrwt>
<pdfrwt beam="1">  1        1 0.33245543E+00 0.94693656E+03</pdfrwt>
<pdfrwt beam="2">  1       -1 0.59622998E-01 0.94693656E+03</pdfrwt>
<totfact> 0.67407337E+00</totfact>
</mgrwt>
</event>
<event>
 4    1  0.2514307E-008  0.1389218E+04  0.7818608E-02  0.8992107E-01
          1   -1    0    0  501    0  0.00000000000E+00  0.00000000000E+00  0.15294746912E+04  0.15294746912E+04  0.50400000000E-02 0. -1.
         -1   -1    0    0    0  501 -0.00000000000E+00 -0.00000000000E+00 -0.18476942419E+04  0.18476942419E+04  0.50400000000E-02 0.  1.
    8880023    1    1    2    0    0 -0.83110651652E+03  0.89742801321E+03 -0.12207795197E+04  0.18493858231E+04  0.65864270000E+03 0.  1.
    8880022    1    1    2    0    0  0.83110651652E+03 -0.89742801321E+03  0.90255996894E+03  0.15277831100E+04  0.15294330000E+03 0.  0.
<mgrwt>
<rscale>  0 0.13483124E+04</rscale>
<asrwt>0</asrwt>
<pdfrwt beam="1">  1        1 0.23530380E+00 0.13892175E+04</pdfrwt>
<pdfrwt beam="2">  1       -1 0.28426065E+00 0.13892175E+04</pdfrwt>
<totfact> 0.24976100E-01</totfact>
</mgrwt>
</event>
<event>
 4    1  0.2514307E-008  0.6791559E+03  0.7818608E-02  0.1009805E+00
          1   -1    0    0  501    0  0.00000000000E+00  0.00000000000E+00  0.11117654171E+04  0.11117654171E+04  0.50400000000E-02 0. -1.
         -1   -1    0    0    0  501 -0.00000000000E+00 -0.00000000000E+00 -0.41985974150E+03  0.41985974153E+03  0.50400000000E-02 0.  1.
    8880023    1    1    2    0    0 -0.66350157283E+02  0.15178994108E+03 -0.11940156009E+03  0.68957194578E+03  0.65864270000E+03 0.  1.
    8880022    1    1    2    0    0  0.66350157283E+02 -0.15178994108E+03  0.81130723570E+03  0.84205321287E+03  0.15294330000E+03 0.  0.
<mgrwt>
<rscale>  0 0.51552127E+03</rscale>
<asrwt>0</asrwt>
<pdfrwt beam="1">  1        1 0.17104083E+00 0.67915590E+03</pdfrwt>
<pdfrwt beam="2">  1       -1 0.64593807E-01 0.67915590E+03</pdfrwt>
<totfact> 0.31292392E+01</totfact>
</mgrwt>
</event>
<event>
 4    1  0.2514307E-008  0.6847872E+03  0.7818608E-02  0.1006736E+00
         -1   -1    0    0    0  501 -0.00000000000E+00  0.00000000000E+00  0.52583111533E+03  0.52583111536E+03  0.50400000000E-02 0.  1.
          1   -1    0    0  501    0  0.00000000000E+00 -0.00000000000E+00 -0.44841536706E+03  0.44841536709E+03  0.50400000000E-02 0. -1.
    8880023    1    1    2    0    0 -0.18050573018E+03  0.50408408793E+02  0.18524839823E+03  0.70940150946E+03  0.65864270000E+03 0.  1.
    8880022    1    1    2    0    0  0.18050573018E+03 -0.50408408793E+02 -0.10783264996E+03  0.26484497299E+03  0.15294330000E+03 0.  1.
<mgrwt>
<rscale>  0 0.52792851E+03</rscale>
<asrwt>0</asrwt>
<pdfrwt beam="1">  1        1 0.68986980E-01 0.68478722E+03</pdfrwt>
<pdfrwt beam="2">  1       -1 0.80897094E-01 0.68478722E+03</pdfrwt>
<totfact> 0.80223367E+01</totfact>
</mgrwt>
</event>
<event>
 4    1  0.2514307E-008  0.7808812E+03  0.7818608E-02  0.9753771E-01
         -1   -1    0    0    0  501 -0.00000000000E+00  0.00000000000E+00  0.75430544214E+03  0.75430544215E+03  0.50400000000E-02 0.  1.
          1   -1    0    0  501    0  0.00000000000E+00 -0.00000000000E+00 -0.10010455672E+04  0.10010455673E+04  0.50400000000E-02 0. -1.
    8880023    1    1    2    0    0 -0.25164981934E+03  0.33561524731E+03  0.46963376860E+03  0.91122516903E+03  0.65864270000E+03 0.  1.
    8880022    1    1    2    0    0  0.25164981934E+03 -0.33561524731E+03 -0.71637389372E+03  0.84412584039E+03  0.15294330000E+03 0.  0.
<mgrwt>
<rscale>  0 0.67903573E+03</rscale>
<asrwt>0</asrwt>
<pdfrwt beam="1">  1        1 0.15400701E+00 0.78088119E+03</pdfrwt>
<pdfrwt beam="2">  1       -1 0.11604699E+00 0.78088119E+03</pdfrwt>
<totfact> 0.10427961E+01</totfact>
</mgrwt>
</event>
<event>
 4    1  0.2514307E-008  0.6923458E+03  0.7818608E-02  0.1003057E+00
         -1   -1    0    0    0  501 -0.00000000000E+00  0.00000000000E+00  0.55130932096E+03  0.55130932098E+03  0.50400000000E-02 0.  1.
          1   -1    0    0  501    0  0.00000000000E+00 -0.00000000000E+00 -0.14198028715E+04  0.14198028715E+04  0.50400000000E-02 0. -1.
    8880023    1    1    2    0    0 -0.11474466620E+03 -0.17990610563E+03  0.31371404279E+03  0.76010476394E+03  0.65864270000E+03 0.  1.
    8880022    1    1    2    0    0  0.11474466620E+03  0.17990610563E+03 -0.11822075933E+04  0.12110074285E+04  0.15294330000E+03 0.  0.
<mgrwt>
<rscale>  0 0.54329884E+03</rscale>
<asrwt>0</asrwt>
<pdfrwt beam="1">  1        1 0.21843121E+00 0.69234583E+03</pdfrwt>
<pdfrwt beam="2">  1       -1 0.84816820E-01 0.69234583E+03</pdfrwt>
<totfact> 0.10707830E+01</totfact>
</mgrwt>
</event>
<event>
 4    1  0.2514307E-008  0.1189714E+04  0.7818608E-02  0.9167186E-01
          1   -1    0    0  501    0  0.00000000000E+00  0.00000000000E+00  0.10246769962E+04  0.10246769963E+04  0.50400000000E-02 0. -1.
         -1   -1    0    0    0  501 -0.00000000000E+00 -0.00000000000E+00 -0.13436884120E+04  0.13436884120E+04  0.50400000000E-02 0.  1.
    8880023    1    1    2    0    0  0.35829771762E+03  0.92370553913E+03 -0.59270363356E+03  0.13291790628E+04  0.65864270000E+03 0.  1.
    8880022    1    1    2    0    0 -0.35829771762E+03 -0.92370553913E+03  0.27369221782E+03  0.10391863455E+04  0.15294330000E+03 0.  0.
<mgrwt>
<rscale>  0 0.11398632E+04</rscale>
<asrwt>0</asrwt>
<pdfrwt beam="1">  1        1 0.15764261E+00 0.11897140E+04</pdfrwt>
<pdfrwt beam="2">  1       -1 0.20672129E+00 0.11897140E+04</pdfrwt>
<totfact> 0.19239953E+00</totfact>
</mgrwt>
</event>
<event>
 4    1  0.2514307E-008  0.9251713E+03  0.7818608E-02  0.9486775E-01
          1   -1    0    0  501    0  0.00000000000E+00  0.00000000000E+00  0.32576642033E+04  0.32576642033E+04  0.50400000000E-02 0. -1.
         -1   -1    0    0    0  501 -0.00000000000E+00 -0.00000000000E+00 -0.74389863579E+03  0.74389863581E+03  0.50400000000E-02 0.  1.
    8880023    1    1    2    0    0  0.43441488160E+03 -0.48313092385E+03 -0.40319295010E+03  0.10092108502E+04  0.65864270000E+03 0.  1.
    8880022    1    1    2    0    0 -0.43441488160E+03  0.48313092385E+03  0.29169585176E+04  0.29923519888E+04  0.15294330000E+03 0.  0.
<mgrwt>
<rscale>  0 0.85265912E+03</rscale>
<asrwt>0</asrwt>
<pdfrwt beam="1">  1        1 0.50117911E+00 0.92517133E+03</pdfrwt>
<pdfrwt beam="2">  1       -1 0.11444594E+00 0.92517133E+03</pdfrwt>
<totfact> 0.28010966E-01</totfact>
</mgrwt>
</event>
<event>
 4    1  0.2514307E-008  0.1186857E+04  0.7818608E-02  0.9170006E-01
         -1   -1    0    0    0  501 -0.00000000000E+00  0.00000000000E+00  0.17036956527E+04  0.17036956527E+04  0.50400000000E-02 0.  1.
          1   -1    0    0  501    0  0.00000000000E+00 -0.00000000000E+00 -0.85396569203E+03  0.85396569204E+03  0.50400000000E-02 0. -1.
    8880023    1    1    2    0    0 -0.98659099552E+03  0.38164246277E+02  0.99409912557E+03  0.15481800864E+04  0.65864270000E+03 0.  0.
    8880022    1    1    2    0    0  0.98659099552E+03 -0.38164246277E+02 -0.14436916493E+03  0.10094812583E+04  0.15294330000E+03 0.  0.
<mgrwt>
<rscale>  0 0.11368454E+04</rscale>
<asrwt>0</asrwt>
<pdfrwt beam="1">  1        1 0.13137934E+00 0.11868566E+04</pdfrwt>
<pdfrwt beam="2">  1       -1 0.26210702E+00 0.11868566E+04</pdfrwt>
<totfact> 0.11386701E+00</totfact>
</mgrwt>
</event>
<event>
 4    1  0.2514307E-008  0.9372973E+03  0.7818608E-02  0.9468631E-01
          1   -1    0    0  501    0  0.00000000000E+00  0.00000000000E+00  0.16904482107E+04  0.16904482107E+04  0.50400000000E-02 0. -1.
         -1   -1    0    0    0  501 -0.00000000000E+00 -0.00000000000E+00 -0.55788486732E+03  0.55788486734E+03  0.50400000000E-02 0.  1.
    8880023    1    1    2    0    0  0.66034997628E+03 -0.93026521107E+02  0.14341783714E+02  0.93740701823E+03  0.65864270000E+03 0.  0.
    8880022    1    1    2    0    0 -0.66034997628E+03  0.93026521107E+02  0.11182215596E+04  0.13109260598E+04  0.15294330000E+03 0.  0.
<mgrwt>
<rscale>  0 0.86636569E+03</rscale>
<asrwt>0</asrwt>
<pdfrwt beam="1">  1        1 0.26006895E+00 0.93729730E+03</pdfrwt>
<pdfrwt beam="2">  1       -1 0.85828442E-01 0.93729730E+03</pdfrwt>
<totfact> 0.65860949E+00</totfact>
</mgrwt>
</event>
<event>
 4    1  0.2514307E-008  0.7067499E+03  0.7818608E-02  0.9970274E-01
          1   -1    0    0  501    0  0.00000000000E+00  0.00000000000E+00  0.10565968891E+04  0.10565968891E+04  0.50400000000E-02 0. -1.
         -1   -1    0    0    0  501 -0.00000000000E+00 -0.00000000000E+00 -0.83445554517E+03  0.83445554518E+03  0.50400000000E-02 0.  1.
    8880023    1    1    2    0    0  0.23174218031E+03  0.10945677538E+03 -0.65556986316E+03  0.96398510131E+03  0.65864270000E+03 0.  1.
    8880022    1    1    2    0    0 -0.23174218031E+03 -0.10945677538E+03  0.87771120706E+03  0.92706733295E+03  0.15294330000E+03 0.  0.
<mgrwt>
<rscale>  0 0.56973112E+03</rscale>
<asrwt>0</asrwt>
<pdfrwt beam="1">  1        1 0.16255337E+00 0.70674991E+03</pdfrwt>
<pdfrwt beam="2">  1       -1 0.12837778E+00 0.70674991E+03</pdfrwt>
<totfact> 0.74576181E+00</totfact>
</mgrwt>
</event>
<event>
 4    1  0.2514307E-008  0.7276926E+03  0.7818608E-02  0.9897367E-01
         -1   -1    0    0    0  501 -0.00000000000E+00  0.00000000000E+00  0.45648744235E+03  0.45648744238E+03  0.50400000000E-02 0.  1.
          1   -1    0    0  501    0  0.00000000000E+00 -0.00000000000E+00 -0.73374328338E+03  0.73374328340E+03  0.50400000000E-02 0. -1.
    8880023    1    1    2    0    0 -0.24690608171E+03 -0.18645044183E+03 -0.39195214658E+03  0.82653679405E+03  0.65864270000E+03 0. -1.
    8880022    1    1    2    0    0  0.24690608171E+03  0.18645044183E+03  0.11469630555E+03  0.36369393172E+03  0.15294330000E+03 0.  0.
<mgrwt>
<rscale>  0 0.60389047E+03</rscale>
<asrwt>0</asrwt>
<pdfrwt beam="1">  1        1 0.11288358E+00 0.72769265E+03</pdfrwt>
<pdfrwt beam="2">  1       -1 0.70228837E-01 0.72769265E+03</pdfrwt>
<totfact> 0.53196947E+01</totfact>
</mgrwt>
</event>
<event>
 4    1  0.2514307E-008  0.1197871E+04  0.7818608E-02  0.9159195E-01
         -1   -1    0    0    0  501 -0.00000000000E+00  0.00000000000E+00  0.94927969172E+03  0.94927969174E+03  0.50400000000E-02 0.  1.
          1   -1    0    0  501    0  0.00000000000E+00 -0.00000000000E+00 -0.14310519136E+04  0.14310519136E+04  0.50400000000E-02 0. -1.
    8880023    1    1    2    0    0 -0.91612148705E+03 -0.40225056568E+03 -0.63639316898E+03  0.13564256590E+04  0.65864270000E+03 0. -1.
    8880022    1    1    2    0    0  0.91612148705E+03  0.40225056568E+03  0.15462094712E+03  0.10239059463E+04  0.15294330000E+03 0.  0.
<mgrwt>
<rscale>  0 0.11484714E+04</rscale>
<asrwt>0</asrwt>
<pdfrwt beam="1">  1        1 0.22016183E+00 0.11978707E+04</pdfrwt>
<pdfrwt beam="2">  1       -1 0.14604303E+00 0.11978707E+04</pdfrwt>
<totfact> 0.26881749E+00</totfact>
</mgrwt>
</event>
<event>
 4    1  0.2514307E-008  0.6600581E+03  0.7818608E-02  0.1024097E+00
          1   -1    0    0  501    0  0.00000000000E+00  0.00000000000E+00  0.31155446594E+03  0.31155446598E+03  0.50400000000E-02 0. -1.
         -1   -1    0    0    0  501 -0.00000000000E+00 -0.00000000000E+00 -0.59545066267E+03  0.59545066269E+03  0.50400000000E-02 0.  1.
    8880023    1    1    2    0    0 -0.43107177549E+02 -0.28639984198E+01 -0.33481426111E+03  0.74011973825E+03  0.65864270000E+03 0.  1.
    8880022    1    1    2    0    0  0.43107177549E+02  0.28639984198E+01  0.50918064376E+02  0.16688539043E+03  0.15294330000E+03 0.  0.
<mgrwt>
<rscale>  0 0.46236681E+03</rscale>
<asrwt>0</asrwt>
<pdfrwt beam="1">  1        1 0.47931456E-01 0.66005806E+03</pdfrwt>
<pdfrwt beam="2">  1       -1 0.91607794E-01 0.66005806E+03</pdfrwt>
<totfact> 0.99123016E+01</totfact>
</mgrwt>
</event>
<event>
 4    1  0.2514307E-008  0.1263684E+04  0.7818608E-02  0.9097573E-01
          1   -1    0    0  501    0  0.00000000000E+00  0.00000000000E+00  0.98534527223E+03  0.98534527225E+03  0.50400000000E-02 0. -1.
         -1   -1    0    0    0  501 -0.00000000000E+00 -0.00000000000E+00 -0.15834647847E+04  0.15834647847E+04  0.50400000000E-02 0.  1.
    8880023    1    1    2    0    0  0.10736431873E+04  0.10186774784E+03  0.11181857124E+03  0.12686214293E+04  0.65864270000E+03 0.  0.
    8880022    1    1    2    0    0 -0.10736431873E+04 -0.10186774784E+03 -0.70993808370E+03  0.13001886276E+04  0.15294330000E+03 0.  0.
<mgrwt>
<rscale>  0 0.12176187E+04</rscale>
<asrwt>0</asrwt>
<pdfrwt beam="1">  1        1 0.15159158E+00 0.12636839E+04</pdfrwt>
<pdfrwt beam="2">  1       -1 0.24360997E+00 0.12636839E+04</pdfrwt>
<totfact> 0.11628785E+00</totfact>
</mgrwt>
</event>
<event>
 4    1  0.2514307E-008  0.1188026E+04  0.7818608E-02  0.9168851E-01
         -1   -1    0    0    0  501 -0.00000000000E+00  0.00000000000E+00  0.84601432144E+03  0.84601432146E+03  0.50400000000E-02 0.  1.
          1   -1    0    0  501    0  0.00000000000E+00 -0.00000000000E+00 -0.20373548249E+04  0.20373548249E+04  0.50400000000E-02 0. -1.
    8880023    1    1    2    0    0 -0.43468389476E+03 -0.88805690571E+03  0.16342618605E+03  0.11992136927E+04  0.65864270000E+03 0.  0.
    8880022    1    1    2    0    0  0.43468389476E+03  0.88805690571E+03 -0.13547666895E+04  0.16841554537E+04  0.15294330000E+03 0.  0.
<mgrwt>
<rscale>  0 0.11380804E+04</rscale>
<asrwt>0</asrwt>
<pdfrwt beam="1">  1        1 0.31343920E+00 0.11880258E+04</pdfrwt>
<pdfrwt beam="2">  1       -1 0.13015605E+00 0.11880258E+04</pdfrwt>
<totfact> 0.14008580E+00</totfact>
</mgrwt>
</event>
<event>
 4    1  0.2514307E-008  0.7460084E+03  0.7818608E-02  0.9842778E-01
         -1   -1    0    0    0  501 -0.00000000000E+00  0.00000000000E+00  0.38932015777E+03  0.38932015780E+03  0.50400000000E-02 0.  1.
          1   -1    0    0  501    0  0.00000000000E+00 -0.00000000000E+00 -0.21819273371E+04  0.21819273371E+04  0.50400000000E-02 0. -1.
    8880023    1    1    2    0    0  0.28283707824E+03 -0.20669182308E+03 -0.78843149211E+01  0.74605005948E+03  0.65864270000E+03 0.  1.
    8880022    1    1    2    0    0 -0.28283707824E+03  0.20669182308E+03 -0.17847228644E+04  0.18251974355E+04  0.15294330000E+03 0.  0.
<mgrwt>
<rscale>  0 0.63116480E+03</rscale>
<asrwt>0</asrwt>
<pdfrwt beam="1">  1        1 0.33568112E+00 0.74600840E+03</pdfrwt>
<pdfrwt beam="2">  1       -1 0.59895410E-01 0.74600840E+03</pdfrwt>
<totfact> 0.66642468E+00</totfact>
</mgrwt>
</event>
<event>
 4    1  0.2514307E-008  0.6995426E+03  0.7818608E-02  0.9999104E-01
         -1   -1    0    0    0  501 -0.00000000000E+00  0.00000000000E+00  0.28012985945E+03  0.28012985949E+03  0.50400000000E-02 0.  1.
          1   -1    0    0  501    0  0.00000000000E+00 -0.00000000000E+00 -0.32007443153E+04  0.32007443154E+04  0.50400000000E-02 0. -1.
    8880023    1    1    2    0    0  0.23560932844E+03  0.61517212233E+01 -0.17523730049E+03  0.72115734557E+03  0.65864270000E+03 0.  0.
    8880022    1    1    2    0    0 -0.23560932844E+03 -0.61517212233E+01 -0.27453771554E+04  0.27597168293E+04  0.15294330000E+03 0.  0.
<mgrwt>
<rscale>  0 0.55689538E+03</rscale>
<asrwt>0</asrwt>
<pdfrwt beam="1">  1        1 0.49242218E+00 0.69954257E+03</pdfrwt>
<pdfrwt beam="2">  1       -1 0.43096904E-01 0.69954257E+03</pdfrwt>
<totfact> 0.24544390E+00</totfact>
</mgrwt>
</event>
<event>
 4    1  0.2514307E-008  0.9548088E+03  0.7818608E-02  0.9443229E-01
          1   -1    0    0  501    0  0.00000000000E+00  0.00000000000E+00  0.33138758991E+04  0.33138758991E+04  0.50400000000E-02 0. -1.
         -1   -1    0    0    0  501 -0.00000000000E+00 -0.00000000000E+00 -0.33628570329E+03  0.33628570333E+03  0.50400000000E-02 0.  1.
    8880023    1    1    2    0    0  0.69086002697E+03  0.23706013750E+02  0.50890659968E+03  0.10819638097E+04  0.65864270000E+03 0.  0.
    8880022    1    1    2    0    0 -0.69086002697E+03 -0.23706013750E+02  0.24686835961E+04  0.25681977927E+04  0.15294330000E+03 0.  0.
<mgrwt>
<rscale>  0 0.88601921E+03</rscale>
<asrwt>0</asrwt>
<pdfrwt beam="1">  1        1 0.50982705E+00 0.95480875E+03</pdfrwt>
<pdfrwt beam="2">  1       -1 0.51736263E-01 0.95480875E+03</pdfrwt>
<totfact> 0.13663855E+00</totfact>
</mgrwt>
</event>
<event>
 4    1  0.2514307E-008  0.6988275E+03  0.7818608E-02  0.1000210E+00
          1   -1    0    0  501    0  0.00000000000E+00  0.00000000000E+00  0.71985039633E+03  0.71985039635E+03  0.50400000000E-02 0. -1.
         -1   -1    0    0    0  501 -0.00000000000E+00 -0.00000000000E+00 -0.10598476714E+04  0.10598476714E+04  0.50400000000E-02 0.  1.
    8880023    1    1    2    0    0 -0.20401337590E+03  0.11370221360E+03 -0.90859645644E+03  0.11462579892E+04  0.65864270000E+03 0.  1.
    8880022    1    1    2    0    0  0.20401337590E+03 -0.11370221360E+03  0.56859918142E+03  0.63344007850E+03  0.15294330000E+03 0.  0.
<mgrwt>
<rscale>  0 0.55558235E+03</rscale>
<asrwt>0</asrwt>
<pdfrwt beam="1">  1        1 0.11074621E+00 0.69882749E+03</pdfrwt>
<pdfrwt beam="2">  1       -1 0.16305349E+00 0.69882749E+03</pdfrwt>
<totfact> 0.75256367E+00</totfact>
</mgrwt>
</event>
<event>
 4    1  0.2514307E-008  0.1114637E+04  0.7818608E-02  0.9244932E-01
          1   -1    0    0  501    0  0.00000000000E+00  0.00000000000E+00  0.23223080713E+04  0.23223080713E+04  0.50400000000E-02 0. -1.
         -1   -1    0    0    0  501 -0.00000000000E+00 -0.00000000000E+00 -0.52568478037E+03  0.52568478040E+03  0.50400000000E-02 0.  1.
    8880023    1    1    2    0    0 -0.76504902068E+03  0.47255292705E+03  0.15388579203E+04  0.19001316212E+04  0.65864270000E+03 0.  0.
    8880022    1    1    2    0    0  0.76504902068E+03 -0.47255292705E+03  0.25776537064E+03  0.94786123047E+03  0.15294330000E+03 0.  0.
<mgrwt>
<rscale>  0 0.10601455E+04</rscale>
<asrwt>0</asrwt>
<pdfrwt beam="1">  1        1 0.35727816E+00 0.11146374E+04</pdfrwt>
<pdfrwt beam="2">  1       -1 0.80874582E-01 0.11146374E+04</pdfrwt>
<totfact> 0.27398900E+00</totfact>
</mgrwt>
</event>
<event>
 4    1  0.2514307E-008  0.1349712E+04  0.7818608E-02  0.9023777E-01
          1   -1    0    0  501    0  0.00000000000E+00  0.00000000000E+00  0.15377560724E+04  0.15377560724E+04  0.50400000000E-02 0. -1.
         -1   -1    0    0    0  501 -0.00000000000E+00 -0.00000000000E+00 -0.18145421189E+04  0.18145421189E+04  0.50400000000E-02 0.  1.
    8880023    1    1    2    0    0 -0.80181001849E+03 -0.86314104150E+03 -0.12323649957E+04  0.18276885545E+04  0.65864270000E+03 0.  0.
    8880022    1    1    2    0    0  0.80181001849E+03  0.86314104150E+03  0.95557894923E+03  0.15246096368E+04  0.15294330000E+03 0.  0.
<mgrwt>
<rscale>  0 0.13073243E+04</rscale>
<asrwt>0</asrwt>
<pdfrwt beam="1">  1        1 0.23657786E+00 0.13497118E+04</pdfrwt>
<pdfrwt beam="2">  1       -1 0.27916033E+00 0.13497118E+04</pdfrwt>
<totfact> 0.26724894E-01</totfact>
</mgrwt>
</event>
<event>
 4    1  0.2514307E-008  0.6819108E+03  0.7818608E-02  0.1008263E+00
         -1   -1    0    0    0  501 -0.00000000000E+00  0.00000000000E+00  0.35336981866E+03  0.35336981870E+03  0.50400000000E-02 0.  1.
          1   -1    0    0  501    0  0.00000000000E+00 -0.00000000000E+00 -0.26998337448E+04  0.26998337448E+04  0.50400000000E-02 0. -1.
    8880023    1    1    2    0    0  0.17550165375E+03  0.19779874590E+02  0.13163868002E+02  0.68203780510E+03  0.65864270000E+03 0.  1.
    8880022    1    1    2    0    0 -0.17550165375E+03 -0.19779874590E+02 -0.23596277942E+04  0.23711657584E+04  0.15294330000E+03 0.  0.
<mgrwt>
<rscale>  0 0.52170927E+03</rscale>
<asrwt>0</asrwt>
<pdfrwt beam="1">  1        1 0.41535902E+00 0.68191076E+03</pdfrwt>
<pdfrwt beam="2">  1       -1 0.54364589E-01 0.68191076E+03</pdfrwt>
<totfact> 0.36208108E+00</totfact>
</mgrwt>
</event>
<event>
 4    1  0.2514307E-008  0.6817327E+03  0.7818608E-02  0.1008360E+00
          1   -1    0    0  501    0  0.00000000000E+00  0.00000000000E+00  0.13311035985E+04  0.13311035986E+04  0.50400000000E-02 0. -1.
         -1   -1    0    0    0  501 -0.00000000000E+00 -0.00000000000E+00 -0.26862378016E+03  0.26862378020E+03  0.50400000000E-02 0.  1.
    8880023    1    1    2    0    0  0.17592017358E+03 -0.11944819440E+01  0.20612701369E+03  0.71221337132E+03  0.65864270000E+03 0.  1.
    8880022    1    1    2    0    0 -0.17592017358E+03  0.11944819440E+01  0.85635280470E+03  0.88751400743E+03  0.15294330000E+03 0.  0.
<mgrwt>
<rscale>  0 0.52131660E+03</rscale>
<asrwt>0</asrwt>
<pdfrwt beam="1">  1        1 0.20478517E+00 0.68173275E+03</pdfrwt>
<pdfrwt beam="2">  1       -1 0.41326735E-01 0.68173275E+03</pdfrwt>
<totfact> 0.50990036E+01</totfact>
</mgrwt>
</event>
<event>
 4    1  0.2514307E-008  0.8110400E+03  0.7818608E-02  0.9687415E-01
         -1   -1    0    0    0  501 -0.00000000000E+00  0.00000000000E+00  0.13462895566E+04  0.13462895566E+04  0.50400000000E-02 0.  1.
          1   -1    0    0  501    0  0.00000000000E+00 -0.00000000000E+00 -0.78181102595E+03  0.78181102597E+03  0.50400000000E-02 0. -1.
    8880023    1    1    2    0    0  0.24905942600E+02 -0.47260489014E+03  0.11197733304E+04  0.13826345164E+04  0.65864270000E+03 0.  1.
    8880022    1    1    2    0    0 -0.24905942600E+02  0.47260489014E+03 -0.55529479976E+03  0.74546606617E+03  0.15294330000E+03 0.  0.
<mgrwt>
<rscale>  0 0.71771084E+03</rscale>
<asrwt>0</asrwt>
<pdfrwt beam="1">  1        1 0.12027862E+00 0.81104001E+03</pdfrwt>
<pdfrwt beam="2">  1       -1 0.20712147E+00 0.81104001E+03</pdfrwt>
<totfact> 0.31778114E+00</totfact>
</mgrwt>
</event>
<event>
 4    1  0.2514307E-008  0.1452750E+04  0.7818608E-02  0.8943742E-01
         -1   -1    0    0    0  501 -0.00000000000E+00  0.00000000000E+00  0.26852939480E+04  0.26852939480E+04  0.50400000000E-02 0.  1.
          1   -1    0    0  501    0  0.00000000000E+00 -0.00000000000E+00 -0.98133241472E+03  0.98133241473E+03  0.50400000000E-02 0. -1.
    8880023    1    1    2    0    0  0.71743496966E+03 -0.10779418446E+04  0.18526468752E+04  0.23543114082E+04  0.65864270000E+03 0.  1.
    8880022    1    1    2    0    0 -0.71743496966E+03  0.10779418446E+04 -0.14868534192E+03  0.13123149546E+04  0.15294330000E+03 0.  0.
<mgrwt>
<rscale>  0 0.14140059E+04</rscale>
<asrwt>0</asrwt>
<pdfrwt beam="1">  1        1 0.15097422E+00 0.14527497E+04</pdfrwt>
<pdfrwt beam="2">  1       -1 0.41312214E+00 0.14527497E+04</pdfrwt>
<totfact> 0.87229834E-02</totfact>
</mgrwt>
</event>
<event>
 4    1  0.2514307E-008  0.9337730E+03  0.7818608E-02  0.9473856E-01
          1   -1    0    0  501    0  0.00000000000E+00  0.00000000000E+00  0.15303819852E+04  0.15303819852E+04  0.50400000000E-02 0. -1.
         -1   -1    0    0    0  501 -0.00000000000E+00 -0.00000000000E+00 -0.98448146119E+03  0.98448146120E+03  0.50400000000E-02 0.  1.
    8880023    1    1    2    0    0 -0.25942766502E+03 -0.60894923418E+03 -0.65121040592E+03  0.11384230682E+04  0.65864270000E+03 0.  1.
    8880022    1    1    2    0    0  0.25942766502E+03  0.60894923418E+03  0.11971109299E+04  0.13764403782E+04  0.15294330000E+03 0.  0.
<mgrwt>
<rscale>  0 0.86239068E+03</rscale>
<asrwt>0</asrwt>
<pdfrwt beam="1">  1        1 0.23544338E+00 0.93377304E+03</pdfrwt>
<pdfrwt beam="2">  1       -1 0.15145869E+00 0.93377304E+03</pdfrwt>
<totfact> 0.21508722E+00</totfact>
</mgrwt>
</event>
<event>
 4    1  0.2514307E-008  0.1712777E+04  0.7818608E-02  0.8772384E-01
          1   -1    0    0  501    0  0.00000000000E+00  0.00000000000E+00  0.12447812827E+04  0.12447812827E+04  0.50400000000E-02 0. -1.
         -1   -1    0    0    0  501 -0.00000000000E+00 -0.00000000000E+00 -0.27551101924E+04  0.27551101924E+04  0.50400000000E-02 0.  1.
    8880023    1    1    2    0    0 -0.15123560967E+04  0.46105787229E+03 -0.16840012819E+04  0.24019712422E+04  0.65864270000E+03 0.  0.
    8880022    1    1    2    0    0  0.15123560967E+04 -0.46105787229E+03  0.17367237224E+03  0.15979202329E+04  0.15294330000E+03 0.  0.
<mgrwt>
<rscale>  0 0.16808127E+04</rscale>
<asrwt>0</asrwt>
<pdfrwt beam="1">  1        1 0.19150481E+00 0.17127771E+04</pdfrwt>
<pdfrwt beam="2">  1       -1 0.42386311E+00 0.17127771E+04</pdfrwt>
<totfact> 0.44961757E-02</totfact>
</mgrwt>
</event>
<event>
 4    1  0.2514307E-008  0.6898694E+03  0.7818608E-02  0.1004215E+00
          1   -1    0    0  501    0  0.00000000000E+00  0.00000000000E+00  0.17668779040E+04  0.17668779040E+04  0.50400000000E-02 0. -1.
         -1   -1    0    0    0  501 -0.00000000000E+00 -0.00000000000E+00 -0.78051961968E+03  0.78051961969E+03  0.50400000000E-02 0.  1.
    8880023    1    1    2    0    0 -0.12998735393E+03 -0.15878574769E+03 -0.61591752633E+03  0.92481037589E+03  0.65864270000E+03 0.  0.
    8880022    1    1    2    0    0  0.12998735393E+03  0.15878574769E+03  0.16022758107E+04  0.16225871478E+04  0.15294330000E+03 0. -1.
<mgrwt>
<rscale>  0 0.53840167E+03</rscale>
<asrwt>0</asrwt>
<pdfrwt beam="1">  1        1 0.27182736E+00 0.68986943E+03</pdfrwt>
<pdfrwt beam="2">  1       -1 0.12007994E+00 0.68986943E+03</pdfrwt>
<totfact> 0.28146486E+00</totfact>
</mgrwt>
</event>
<event>
 4    1  0.2514307E-008  0.1050593E+04  0.7818608E-02  0.9318169E-01
          1   -1    0    0  501    0  0.00000000000E+00  0.00000000000E+00  0.12221455782E+04  0.12221455782E+04  0.50400000000E-02 0. -1.
         -1   -1    0    0    0  501 -0.00000000000E+00 -0.00000000000E+00 -0.17402047565E+04  0.17402047565E+04  0.50400000000E-02 0.  1.
    8880023    1    1    2    0    0 -0.29499402568E+03  0.76348755514E+03 -0.13994017550E+04  0.17498771957E+04  0.65864270000E+03 0.  1.
    8880022    1    1    2    0    0  0.29499402568E+03 -0.76348755514E+03  0.88134257678E+03  0.12124731390E+04  0.15294330000E+03 0.  0.
<mgrwt>
<rscale>  0 0.99127233E+03</rscale>
<asrwt>0</asrwt>
<pdfrwt beam="1">  1        1 0.18802240E+00 0.10505927E+04</pdfrwt>
<pdfrwt beam="2">  1       -1 0.26772381E+00 0.10505927E+04</pdfrwt>
<totfact> 0.55202584E-01</totfact>
</mgrwt>
</event>
<event>
 4    1  0.2514307E-008  0.1039633E+04  0.7818608E-02  0.9331449E-01
         -1   -1    0    0    0  501 -0.00000000000E+00  0.00000000000E+00  0.49873866781E+03  0.49873866784E+03  0.50400000000E-02 0.  1.
          1   -1    0    0  501    0  0.00000000000E+00 -0.00000000000E+00 -0.17903897846E+04  0.17903897846E+04  0.50400000000E-02 0. -1.
    8880023    1    1    2    0    0 -0.26432642256E+03 -0.75970861891E+03 -0.51341340701E+03  0.11594952247E+04  0.65864270000E+03 0. -1.
    8880022    1    1    2    0    0  0.26432642256E+03  0.75970861891E+03 -0.77823770975E+03  0.11296332277E+04  0.15294330000E+03 0.  1.
<mgrwt>
<rscale>  0 0.97938411E+03</rscale>
<asrwt>0</asrwt>
<pdfrwt beam="1">  1        1 0.27544458E+00 0.10396326E+04</pdfrwt>
<pdfrwt beam="2">  1       -1 0.76729027E-01 0.10396326E+04</pdfrwt>
<totfact> 0.70775132E+00</totfact>
</mgrwt>
</event>
<event>
 4    1  0.2514307E-008  0.8555151E+03  0.7818608E-02  0.9601592E-01
          1   -1    0    0  501    0  0.00000000000E+00  0.00000000000E+00  0.27125712412E+04  0.27125712412E+04  0.50400000000E-02 0. -1.
         -1   -1    0    0    0  501 -0.00000000000E+00 -0.00000000000E+00 -0.24246335094E+03  0.24246335099E+03  0.50400000000E-02 0.  1.
    8880023    1    1    2    0    0 -0.44252345515E+03 -0.31979498470E+03  0.72918914379E+03  0.11241098053E+04  0.65864270000E+03 0.  0.
    8880022    1    1    2    0    0  0.44252345515E+03  0.31979498470E+03  0.17409187465E+04  0.18309247869E+04  0.15294330000E+03 0.  0.
<mgrwt>
<rscale>  0 0.77190928E+03</rscale>
<asrwt>0</asrwt>
<pdfrwt beam="1">  1        1 0.41731864E+00 0.85551508E+03</pdfrwt>
<pdfrwt beam="2">  1       -1 0.37302055E-01 0.85551508E+03</pdfrwt>
<totfact> 0.69290792E+00</totfact>
</mgrwt>
</event>
<event>
 4    1  0.2514307E-008  0.9380420E+03  0.7818608E-02  0.9467532E-01
          1   -1    0    0  501    0  0.00000000000E+00  0.00000000000E+00  0.26319986755E+04  0.26319986755E+04  0.50400000000E-02 0. -1.
         -1   -1    0    0    0  501 -0.00000000000E+00 -0.00000000000E+00 -0.44542595996E+03  0.44542595998E+03  0.50400000000E-02 0.  1.
    8880023    1    1    2    0    0 -0.66724968017E+03 -0.29839092071E+02  0.17745851174E+03  0.95468017512E+03  0.65864270000E+03 0.  1.
    8880022    1    1    2    0    0  0.66724968017E+03  0.29839092071E+02  0.20091142038E+04  0.21227444604E+04  0.15294330000E+03 0.  0.
<mgrwt>
<rscale>  0 0.86720471E+03</rscale>
<asrwt>0</asrwt>
<pdfrwt beam="1">  1        1 0.40492288E+00 0.93804196E+03</pdfrwt>
<pdfrwt beam="2">  1       -1 0.68527070E-01 0.93804196E+03</pdfrwt>
<totfact> 0.24343983E+00</totfact>
</mgrwt>
</event>
<event>
 4    1  0.2514307E-008  0.7203769E+03  0.7818608E-02  0.9921313E-01
          1   -1    0    0  501    0  0.00000000000E+00  0.00000000000E+00  0.16031862938E+04  0.16031862938E+04  0.50400000000E-02 0. -1.
         -1   -1    0    0    0  501 -0.00000000000E+00 -0.00000000000E+00 -0.41687655076E+03  0.41687655079E+03  0.50400000000E-02 0.  1.
    8880023    1    1    2    0    0  0.12529065310E+03  0.26350505143E+03 -0.67655653313E+02  0.72354692562E+03  0.65864270000E+03 0.  0.
    8880022    1    1    2    0    0 -0.12529065310E+03 -0.26350505143E+03  0.12539653963E+04  0.12965159190E+04  0.15294330000E+03 0.  0.
<mgrwt>
<rscale>  0 0.59239408E+03</rscale>
<asrwt>0</asrwt>
<pdfrwt beam="1">  1        1 0.24664405E+00 0.72037689E+03</pdfrwt>
<pdfrwt beam="2">  1       -1 0.64134853E-01 0.72037689E+03</pdfrwt>
<totfact> 0.14268501E+01</totfact>
</mgrwt>
</event>
<event>
 4    1  0.2514307E-008  0.8925549E+03  0.7818608E-02  0.9538091E-01
         -1   -1    0    0    0  501 -0.00000000000E+00  0.00000000000E+00  0.95473608215E+03  0.95473608217E+03  0.50400000000E-02 0.  1.
          1   -1    0    0  501    0  0.00000000000E+00 -0.00000000000E+00 -0.61690714421E+03  0.61690714423E+03  0.50400000000E-02 0. -1.
    8880023    1    1    2    0    0 -0.68731545781E+02  0.59843135284E+03  0.32546041236E+03  0.95004147053E+03  0.65864270000E+03 0.  1.
    8880022    1    1    2    0    0  0.68731545781E+02 -0.59843135284E+03  0.12368525592E+02  0.62160175586E+03  0.15294330000E+03 0. -1.
<mgrwt>
<rscale>  0 0.81532879E+03</rscale>
<asrwt>0</asrwt>
<pdfrwt beam="1">  1        1 0.94908792E-01 0.89255494E+03</pdfrwt>
<pdfrwt beam="2">  1       -1 0.14688247E+00 0.89255494E+03</pdfrwt>
<totfact> 0.12299242E+01</totfact>
</mgrwt>
</event>
<event>
 4    1  0.2514307E-008  0.8080308E+03  0.7818608E-02  0.9693693E-01
         -1   -1    0    0    0  501 -0.00000000000E+00  0.00000000000E+00  0.24104649738E+04  0.24104649738E+04  0.50400000000E-02 0.  1.
          1   -1    0    0  501    0  0.00000000000E+00 -0.00000000000E+00 -0.14789814079E+04  0.14789814079E+04  0.50400000000E-02 0. -1.
    8880023    1    1    2    0    0 -0.45964823205E+03 -0.88470519140E+02  0.22985240981E+04  0.24364167882E+04  0.65864270000E+03 0.  1.
    8880022    1    1    2    0    0  0.45964823205E+03  0.88470519140E+02 -0.13670405322E+04  0.14530295935E+04  0.15294330000E+03 0.  0.
<mgrwt>
<rscale>  0 0.71393524E+03</rscale>
<asrwt>0</asrwt>
<pdfrwt beam="1">  1        1 0.22753560E+00 0.80803078E+03</pdfrwt>
<pdfrwt beam="2">  1       -1 0.37084076E+00 0.80803078E+03</pdfrwt>
<totfact> 0.81733042E-02</totfact>
</mgrwt>
</event>
<event>
 4    1  0.2514307E-008  0.1140743E+04  0.7818608E-02  0.9216994E-01
         -1   -1    0    0    0  501 -0.00000000000E+00  0.00000000000E+00  0.33793341008E+03  0.33793341012E+03  0.50400000000E-02 0.  1.
          1   -1    0    0  501    0  0.00000000000E+00 -0.00000000000E+00 -0.39073084753E+04  0.39073084754E+04  0.50400000000E-02 0. -1.
    8880023    1    1    2    0    0  0.85633153148E+03  0.36630727138E+03 -0.10330615676E+04  0.15389967893E+04  0.65864270000E+03 0.  0.
    8880022    1    1    2    0    0 -0.85633153148E+03 -0.36630727138E+03 -0.25363134977E+04  0.27062450961E+04  0.15294330000E+03 0.  0.
<mgrwt>
<rscale>  0 0.10879729E+04</rscale>
<asrwt>0</asrwt>
<pdfrwt beam="1">  1        1 0.60112435E+00 0.11407431E+04</pdfrwt>
<pdfrwt beam="2">  1       -1 0.51989758E-01 0.11407431E+04</pdfrwt>
<totfact> 0.44180622E-01</totfact>
</mgrwt>
</event>
<event>
 4    1  0.2514307E-008  0.1054173E+04  0.7818608E-02  0.9313882E-01
         -1   -1    0    0    0  501 -0.00000000000E+00  0.00000000000E+00  0.59923804927E+03  0.59923804929E+03  0.50400000000E-02 0.  1.
          1   -1    0    0  501    0  0.00000000000E+00 -0.00000000000E+00 -0.28223095203E+04  0.28223095203E+04  0.50400000000E-02 0. -1.
    8880023    1    1    2    0    0  0.79009273932E+03  0.23070165115E+03 -0.87019272212E+01  0.10542085744E+04  0.65864270000E+03 0.  1.
    8880022    1    1    2    0    0 -0.79009273932E+03 -0.23070165115E+03 -0.22143695438E+04  0.23673389952E+04  0.15294330000E+03 0.  0.
<mgrwt>
<rscale>  0 0.99514836E+03</rscale>
<asrwt>0</asrwt>
<pdfrwt beam="1">  1        1 0.43420146E+00 0.10541727E+04</pdfrwt>
<pdfrwt beam="2">  1       -1 0.92190471E-01 0.10541727E+04</pdfrwt>
<totfact> 0.93435028E-01</totfact>
</mgrwt>
</event>
<event>
 4    1  0.2514307E-008  0.1023997E+04  0.7818608E-02  0.9350815E-01
         -1   -1    0    0    0  501 -0.00000000000E+00  0.00000000000E+00  0.18374194189E+04  0.18374194189E+04  0.50400000000E-02 0.  1.
          1   -1    0    0  501    0  0.00000000000E+00 -0.00000000000E+00 -0.14247022065E+04  0.14247022065E+04  0.50400000000E-02 0. -1.
    8880023    1    1    2    0    0 -0.62386685618E+03 -0.47492003913E+03  0.15588305894E+04  0.18650795990E+04  0.65864270000E+03 0.  1.
    8880022    1    1    2    0    0  0.62386685618E+03  0.47492003913E+03 -0.11461133770E+04  0.13970420265E+04  0.15294330000E+03 0.  0.
<mgrwt>
<rscale>  0 0.96236383E+03</rscale>
<asrwt>0</asrwt>
<pdfrwt beam="1">  1        1 0.21918496E+00 0.10239966E+04</pdfrwt>
<pdfrwt beam="2">  1       -1 0.28267991E+00 0.10239966E+04</pdfrwt>
<totfact> 0.31886310E-01</totfact>
</mgrwt>
</event>
<event>
 4    1  0.2514307E-008  0.7052867E+03  0.7818608E-02  0.9975938E-01
          1   -1    0    0  501    0  0.00000000000E+00  0.00000000000E+00  0.13907485785E+04  0.13907485785E+04  0.50400000000E-02 0. -1.
         -1   -1    0    0    0  501 -0.00000000000E+00 -0.00000000000E+00 -0.69729595993E+03  0.69729595995E+03  0.50400000000E-02 0.  1.
    8880023    1    1    2    0    0 -0.25101575177E+03  0.24702839201E+02 -0.49621273692E+03  0.86235516143E+03  0.65864270000E+03 0.  1.
    8880022    1    1    2    0    0  0.25101575177E+03 -0.24702839201E+02  0.11896653555E+04  0.12256893770E+04  0.15294330000E+03 0.  0.
<mgrwt>
<rscale>  0 0.56718001E+03</rscale>
<asrwt>0</asrwt>
<pdfrwt beam="1">  1        1 0.21396132E+00 0.70528671E+03</pdfrwt>
<pdfrwt beam="2">  1       -1 0.10727630E+00 0.70528671E+03</pdfrwt>
<totfact> 0.66091711E+00</totfact>
</mgrwt>
</event>
<event>
 4    1  0.2514307E-008  0.7810929E+03  0.7818608E-02  0.9753276E-01
          1   -1    0    0  501    0  0.00000000000E+00  0.00000000000E+00  0.23407452065E+04  0.23407452065E+04  0.50400000000E-02 0. -1.
         -1   -1    0    0    0  501 -0.00000000000E+00 -0.00000000000E+00 -0.26262227663E+03  0.26262227668E+03  0.50400000000E-02 0.  1.
    8880023    1    1    2    0    0 -0.14953215458E+03 -0.39234681227E+03  0.42156092028E+03  0.88759208092E+03  0.65864270000E+03 0.  0.
    8880022    1    1    2    0    0  0.14953215458E+03  0.39234681227E+03  0.16565620096E+04  0.17157754022E+04  0.15294330000E+03 0.  0.
<mgrwt>
<rscale>  0 0.67931449E+03</rscale>
<asrwt>0</asrwt>
<pdfrwt beam="1">  1        1 0.36011464E+00 0.78109288E+03</pdfrwt>
<pdfrwt beam="2">  1       -1 0.40403428E-01 0.78109288E+03</pdfrwt>
<totfact> 0.10908048E+01</totfact>
</mgrwt>
</event>
<event>
 4    1  0.2514307E-008  0.8183232E+03  0.7818608E-02  0.9672494E-01
          1   -1    0    0  501    0  0.00000000000E+00  0.00000000000E+00  0.13514854286E+04  0.13514854286E+04  0.50400000000E-02 0. -1.
         -1   -1    0    0    0  501 -0.00000000000E+00 -0.00000000000E+00 -0.15796787998E+04  0.15796787998E+04  0.50400000000E-02 0.  1.
    8880023    1    1    2    0    0  0.11429249014E+03 -0.47199559947E+03 -0.14178932053E+04  0.16370931455E+04  0.65864270000E+03 0.  1.
    8880022    1    1    2    0    0 -0.11429249014E+03  0.47199559947E+03  0.11896998342E+04  0.12940710829E+04  0.15294330000E+03 0.  0.
<mgrwt>
<rscale>  0 0.72678372E+03</rscale>
<asrwt>0</asrwt>
<pdfrwt beam="1">  1        1 0.20792084E+00 0.81832318E+03</pdfrwt>
<pdfrwt beam="2">  1       -1 0.24302751E+00 0.81832318E+03</pdfrwt>
<totfact> 0.67101827E-01</totfact>
</mgrwt>
</event>
<event>
 4    1  0.2514307E-008  0.1347235E+04  0.7818608E-02  0.9025806E-01
          1   -1    0    0  501    0  0.00000000000E+00  0.00000000000E+00  0.18893507295E+04  0.18893507295E+04  0.50400000000E-02 0. -1.
         -1   -1    0    0    0  501 -0.00000000000E+00 -0.00000000000E+00 -0.13736109809E+04  0.13736109809E+04  0.50400000000E-02 0.  1.
    8880023    1    1    2    0    0 -0.10471005873E+04 -0.53367825960E+03 -0.73931229696E+03  0.15367579521E+04  0.65864270000E+03 0.  1.
    8880022    1    1    2    0    0  0.10471005873E+04  0.53367825960E+03  0.12550520456E+04  0.17262037582E+04  0.15294330000E+03 0.  0.
<mgrwt>
<rscale>  0 0.13047507E+04</rscale>
<asrwt>0</asrwt>
<pdfrwt beam="1">  1        1 0.29066934E+00 0.13472351E+04</pdfrwt>
<pdfrwt beam="2">  1       -1 0.21132477E+00 0.13472351E+04</pdfrwt>
<totfact> 0.42924614E-01</totfact>
</mgrwt>
</event>
<event>
 4    1  0.2514307E-008  0.6749020E+03  0.7818608E-02  0.1012368E+00
          1   -1    0    0  501    0  0.00000000000E+00  0.00000000000E+00  0.66740026895E+03  0.66740026897E+03  0.50400000000E-02 0. -1.
         -1   -1    0    0    0  501 -0.00000000000E+00 -0.00000000000E+00 -0.58734503622E+03  0.58734503624E+03  0.50400000000E-02 0.  1.
    8880023    1    1    2    0    0  0.14722331907E+03  0.27824871846E+01 -0.36090327315E+03  0.76533902733E+03  0.65864270000E+03 0.  1.
    8880022    1    1    2    0    0 -0.14722331907E+03 -0.27824871846E+01  0.44095850588E+03  0.48940627789E+03  0.15294330000E+03 0.  0.
<mgrwt>
<rscale>  0 0.50544209E+03</rscale>
<asrwt>0</asrwt>
<pdfrwt beam="1">  1        1 0.10267696E+00 0.67490196E+03</pdfrwt>
<pdfrwt beam="2">  1       -1 0.90360775E-01 0.67490196E+03</pdfrwt>
<totfact> 0.36169364E+01</totfact>
</mgrwt>
</event>
<event>
 4    1  0.2514307E-008  0.1175727E+04  0.7818608E-02  0.9181086E-01
         -1   -1    0    0    0  501 -0.00000000000E+00  0.00000000000E+00  0.82862455686E+03  0.82862455688E+03  0.50400000000E-02 0.  1.
          1   -1    0    0  501    0  0.00000000000E+00 -0.00000000000E+00 -0.22251448770E+04  0.22251448770E+04  0.50400000000E-02 0. -1.
    8880023    1    1    2    0    0  0.97219080358E+03  0.58034405645E+02  0.18494599727E+03  0.11901840946E+04  0.65864270000E+03 0.  0.
    8880022    1    1    2    0    0 -0.97219080358E+03 -0.58034405645E+02 -0.15814663174E+04  0.18635853393E+04  0.15294330000E+03 0.  0.
<mgrwt>
<rscale>  0 0.11250797E+04</rscale>
<asrwt>0</asrwt>
<pdfrwt beam="1">  1        1 0.34232998E+00 0.11757267E+04</pdfrwt>
<pdfrwt beam="2">  1       -1 0.12748070E+00 0.11757267E+04</pdfrwt>
<totfact> 0.11032427E+00</totfact>
</mgrwt>
</event>
<event>
 4    1  0.2514307E-008  0.9844817E+03  0.7818608E-02  0.9402148E-01
          1   -1    0    0  501    0  0.00000000000E+00  0.00000000000E+00  0.27182064316E+04  0.27182064316E+04  0.50400000000E-02 0. -1.
         -1   -1    0    0    0  501 -0.00000000000E+00 -0.00000000000E+00 -0.71349779461E+03  0.71349779462E+03  0.50400000000E-02 0.  1.
    8880023    1    1    2    0    0  0.72426661526E+03 -0.10407597524E+03 -0.28350065669E+03  0.10244885393E+04  0.65864270000E+03 0.  0.
    8880022    1    1    2    0    0 -0.72426661526E+03  0.10407597524E+03  0.22882092937E+04  0.24072156869E+04  0.15294330000E+03 0.  0.
<mgrwt>
<rscale>  0 0.91899124E+03</rscale>
<asrwt>0</asrwt>
<pdfrwt beam="1">  1        1 0.41818561E+00 0.98448166E+03</pdfrwt>
<pdfrwt beam="2">  1       -1 0.10976889E+00 0.98448166E+03</pdfrwt>
<totfact> 0.74905307E-01</totfact>
</mgrwt>
</event>
<event>
 4    1  0.2514307E-008  0.1442667E+04  0.7818608E-02  0.8951219E-01
          1   -1    0    0  501    0  0.00000000000E+00  0.00000000000E+00  0.11975381419E+04  0.11975381419E+04  0.50400000000E-02 0. -1.
         -1   -1    0    0    0  501 -0.00000000000E+00 -0.00000000000E+00 -0.24051101441E+04  0.24051101441E+04  0.50400000000E-02 0.  1.
    8880023    1    1    2    0    0  0.13618025190E+03  0.12762965121E+04 -0.16908216386E+04  0.22226483904E+04  0.65864270000E+03 0.  0.
    8880022    1    1    2    0    0 -0.13618025190E+03 -0.12762965121E+04  0.48324963639E+03  0.13799998956E+04  0.15294330000E+03 0.  0.
<mgrwt>
<rscale>  0 0.14035969E+04</rscale>
<asrwt>0</asrwt>
<pdfrwt beam="1">  1        1 0.18423664E+00 0.14426670E+04</pdfrwt>
<pdfrwt beam="2">  1       -1 0.37001694E+00 0.14426670E+04</pdfrwt>
<totfact> 0.11726056E-01</totfact>
</mgrwt>
</event>
<event>
 4    1  0.2514307E-008  0.1079109E+04  0.7818608E-02  0.9284680E-01
          1   -1    0    0  501    0  0.00000000000E+00  0.00000000000E+00  0.12969332546E+04  0.12969332546E+04  0.50400000000E-02 0. -1.
         -1   -1    0    0    0  501 -0.00000000000E+00 -0.00000000000E+00 -0.17914366209E+04  0.17914366209E+04  0.50400000000E-02 0.  1.
    8880023    1    1    2    0    0 -0.33201441661E+03 -0.78767510539E+03 -0.14433502910E+04  0.18021475836E+04  0.65864270000E+03 0.  0.
    8880022    1    1    2    0    0  0.33201441661E+03  0.78767510539E+03  0.94884692476E+03  0.12862222919E+04  0.15294330000E+03 0.  0.
<mgrwt>
<rscale>  0 0.10220555E+04</rscale>
<asrwt>0</asrwt>
<pdfrwt beam="1">  1        1 0.19952819E+00 0.10791088E+04</pdfrwt>
<pdfrwt beam="2">  1       -1 0.27560563E+00 0.10791088E+04</pdfrwt>
<totfact> 0.43193299E-01</totfact>
</mgrwt>
</event>
<event>
 4    1  0.2514307E-008  0.6684281E+03  0.7818608E-02  0.1016816E+00
          1   -1    0    0  501    0  0.00000000000E+00  0.00000000000E+00  0.57944409396E+03  0.57944409398E+03  0.50400000000E-02 0. -1.
         -1   -1    0    0    0  501 -0.00000000000E+00 -0.00000000000E+00 -0.70750750770E+03  0.70750750772E+03  0.50400000000E-02 0.  1.
    8880023    1    1    2    0    0  0.61864908720E+02  0.95700672066E+02 -0.52277046368E+03  0.84857825186E+03  0.65864270000E+03 0.  1.
    8880022    1    1    2    0    0 -0.61864908720E+02 -0.95700672066E+02  0.39470704994E+03  0.43837334984E+03  0.15294330000E+03 0.  0.
<mgrwt>
<rscale>  0 0.48853443E+03</rscale>
<asrwt>0</asrwt>
<pdfrwt beam="1">  1        1 0.89145245E-01 0.66842808E+03</pdfrwt>
<pdfrwt beam="2">  1       -1 0.10884731E+00 0.66842808E+03</pdfrwt>
<totfact> 0.29117539E+01</totfact>
</mgrwt>
</event>
<event>
 4    1  0.2996745E-008  0.8823703E+03  0.7818608E-02  0.9554947E-01
         -1   -1    0    0    0  501 -0.00000000000E+00  0.00000000000E+00  0.17759667874E+04  0.17759667874E+04  0.50400000000E-02 0.  1.
          1   -1    0    0  501    0  0.00000000000E+00 -0.00000000000E+00 -0.17185743574E+04  0.17185743575E+04  0.50400000000E-02 0. -1.
    8880023    1    1    2    0    0 -0.45736996844E+03 -0.36821177605E+03  0.16053772060E+04  0.18318879278E+04  0.65864270000E+03 0.  0.
    8880022    1    1    2    0    0  0.45736996844E+03  0.36821177605E+03 -0.15479847761E+04  0.16626532170E+04  0.15294330000E+03 0.  0.
<mgrwt>
<rscale>  0 0.80351239E+03</rscale>
<asrwt>0</asrwt>
<pdfrwt beam="1">  1        1 0.26439606E+00 0.88237033E+03</pdfrwt>
<pdfrwt beam="2">  1       -1 0.27322566E+00 0.88237033E+03</pdfrwt>
<totfact> 0.23693578E-01</totfact>
</mgrwt>
</event>
<event>
 4    1  0.2514307E-008  0.8983160E+03  0.7818608E-02  0.9528740E-01
          1   -1    0    0  501    0  0.00000000000E+00  0.00000000000E+00  0.19708725923E+04  0.19708725923E+04  0.50400000000E-02 0. -1.
         -1   -1    0    0    0  501 -0.00000000000E+00 -0.00000000000E+00 -0.11299915304E+04  0.11299915305E+04  0.50400000000E-02 0.  1.
    8880023    1    1    2    0    0 -0.60612970057E+03  0.75949011140E+02 -0.88661873805E+03  0.12621665734E+04  0.65864270000E+03 0.  1.
    8880022    1    1    2    0    0  0.60612970057E+03 -0.75949011140E+02  0.17274997999E+04  0.18386975493E+04  0.15294330000E+03 0.  0.
<mgrwt>
<rscale>  0 0.82197674E+03</rscale>
<asrwt>0</asrwt>
<pdfrwt beam="1">  1        1 0.30321117E+00 0.89831602E+03</pdfrwt>
<pdfrwt beam="2">  1       -1 0.17384485E+00 0.89831602E+03</pdfrwt>
<totfact> 0.74016621E-01</totfact>
</mgrwt>
</event>
<event>
 4    1  0.2514307E-008  0.1045953E+04  0.7818608E-02  0.9323762E-01
          1   -1    0    0  501    0  0.00000000000E+00  0.00000000000E+00  0.23313837249E+04  0.23313837249E+04  0.50400000000E-02 0. -1.
         -1   -1    0    0    0  501 -0.00000000000E+00 -0.00000000000E+00 -0.17778118585E+04  0.17778118585E+04  0.50400000000E-02 0.  1.
    8880023    1    1    2    0    0  0.53288574313E+03 -0.61338482836E+03 -0.15380980031E+04  0.18600440415E+04  0.65864270000E+03 0.  0.
    8880022    1    1    2    0    0 -0.53288574313E+03  0.61338482836E+03  0.20916698695E+04  0.22491515420E+04  0.15294330000E+03 0. -1.
<mgrwt>
<rscale>  0 0.98624422E+03</rscale>
<asrwt>0</asrwt>
<pdfrwt beam="1">  1        1 0.35867442E+00 0.10459533E+04</pdfrwt>
<pdfrwt beam="2">  1       -1 0.27350952E+00 0.10459533E+04</pdfrwt>
<totfact> 0.88105888E-02</totfact>
</mgrwt>
</event>
<event>
 4    1  0.2514307E-008  0.7061689E+03  0.7818608E-02  0.9972512E-01
          1   -1    0    0  501    0  0.00000000000E+00  0.00000000000E+00  0.13136738392E+04  0.13136738393E+04  0.50400000000E-02 0. -1.
         -1   -1    0    0    0  501 -0.00000000000E+00 -0.00000000000E+00 -0.41760117645E+03  0.41760117648E+03  0.50400000000E-02 0.  1.
    8880023    1    1    2    0    0 -0.18205586973E+03  0.17810111413E+03 -0.80287798283E+02  0.71071842763E+03  0.65864270000E+03 0.  1.
    8880022    1    1    2    0    0  0.18205586973E+03 -0.17810111413E+03  0.97636046108E+03  0.10205565881E+04  0.15294330000E+03 0.  0.
<mgrwt>
<rscale>  0 0.56872128E+03</rscale>
<asrwt>0</asrwt>
<pdfrwt beam="1">  1        1 0.20210366E+00 0.70616893E+03</pdfrwt>
<pdfrwt beam="2">  1       -1 0.64246336E-01 0.70616893E+03</pdfrwt>
<totfact> 0.22545490E+01</totfact>
</mgrwt>
</event>
<event>
 4    1  0.2514307E-008  0.1126087E+04  0.7818608E-02  0.9232552E-01
         -1   -1    0    0    0  501 -0.00000000000E+00  0.00000000000E+00  0.16303919335E+04  0.16303919335E+04  0.50400000000E-02 0.  1.
          1   -1    0    0  501    0  0.00000000000E+00 -0.00000000000E+00 -0.18092917285E+04  0.18092917285E+04  0.50400000000E-02 0. -1.
    8880023    1    1    2    0    0 -0.17685934733E+03  0.89609306774E+03  0.12842788517E+04  0.17080528065E+04  0.65864270000E+03 0.  0.
    8880022    1    1    2    0    0  0.17685934733E+03 -0.89609306774E+03 -0.14631786466E+04  0.17316308555E+04  0.15294330000E+03 0.  0.
<mgrwt>
<rscale>  0 0.10723659E+04</rscale>
<asrwt>0</asrwt>
<pdfrwt beam="1">  1        1 0.27835257E+00 0.11260871E+04</pdfrwt>
<pdfrwt beam="2">  1       -1 0.25082953E+00 0.11260871E+04</pdfrwt>
<totfact> 0.27455663E-01</totfact>
</mgrwt>
</event>
<event>
 4    1  0.2514307E-008  0.6969330E+03  0.7818608E-02  0.1001017E+00
         -1   -1    0    0    0  501 -0.00000000000E+00  0.00000000000E+00  0.37478608958E+03  0.37478608961E+03  0.50400000000E-02 0.  1.
          1   -1    0    0  501    0  0.00000000000E+00 -0.00000000000E+00 -0.26102514802E+04  0.26102514802E+04  0.50400000000E-02 0. -1.
    8880023    1    1    2    0    0  0.33626428207E+02 -0.22533234381E+03  0.35229258440E+02  0.69782283479E+03  0.65864270000E+03 0.  1.
    8880022    1    1    2    0    0 -0.33626428207E+02  0.22533234381E+03 -0.22706946490E+04  0.22872147350E+04  0.15294330000E+03 0.  0.
<mgrwt>
<rscale>  0 0.55206539E+03</rscale>
<asrwt>0</asrwt>
<pdfrwt beam="1">  1        1 0.40157714E+00 0.69693300E+03</pdfrwt>
<pdfrwt beam="2">  1       -1 0.57659400E-01 0.69693300E+03</pdfrwt>
<totfact> 0.37133777E+00</totfact>
</mgrwt>
</event>
<event>
 4    1  0.2514307E-008  0.6658711E+03  0.7818608E-02  0.1018814E+00
          1   -1    0    0  501    0  0.00000000000E+00  0.00000000000E+00  0.25580226274E+03  0.25580226279E+03  0.50400000000E-02 0. -1.
         -1   -1    0    0    0  501 -0.00000000000E+00 -0.00000000000E+00 -0.14008982064E+04  0.14008982065E+04  0.50400000000E-02 0.  1.
    8880023    1    1    2    0    0  0.96558776694E+02 -0.15827497403E+02 -0.12716128619E+04  0.14354036310E+04  0.65864270000E+03 0.  1.
    8880022    1    1    2    0    0 -0.96558776694E+02  0.15827497403E+02  0.12651691818E+03  0.22129683828E+03  0.15294330000E+03 0.  0.
<mgrwt>
<rscale>  0 0.48117218E+03</rscale>
<asrwt>0</asrwt>
<pdfrwt beam="1">  1        1 0.39354195E-01 0.66587109E+03</pdfrwt>
<pdfrwt beam="2">  1       -1 0.21552280E+00 0.66587109E+03</pdfrwt>
<totfact> 0.13246073E+01</totfact>
</mgrwt>
</event>
<event>
 4    1  0.2514307E-008  0.7805192E+03  0.7818608E-02  0.9754619E-01
          1   -1    0    0  501    0  0.00000000000E+00  0.00000000000E+00  0.21455634561E+04  0.21455634561E+04  0.50400000000E-02 0. -1.
         -1   -1    0    0    0  501 -0.00000000000E+00 -0.00000000000E+00 -0.57326455806E+03  0.57326455809E+03  0.50400000000E-02 0.  1.
    8880023    1    1    2    0    0 -0.37146237022E+03 -0.19343135669E+03 -0.26803131371E+03  0.82525812546E+03  0.65864270000E+03 0.  0.
    8880022    1    1    2    0    0  0.37146237022E+03  0.19343135669E+03  0.18403302118E+04  0.18935698888E+04  0.15294330000E+03 0.  0.
<mgrwt>
<rscale>  0 0.67855874E+03</rscale>
<asrwt>0</asrwt>
<pdfrwt beam="1">  1        1 0.33008668E+00 0.78051918E+03</pdfrwt>
<pdfrwt beam="2">  1       -1 0.88194549E-01 0.78051918E+03</pdfrwt>
<totfact> 0.31438678E+00</totfact>
</mgrwt>
</event>
<event>
 4    1  0.2514307E-008  0.1136662E+04  0.7818608E-02  0.9221295E-01
         -1   -1    0    0    0  501 -0.00000000000E+00  0.00000000000E+00  0.67162508268E+03  0.67162508270E+03  0.50400000000E-02 0.  1.
          1   -1    0    0  501    0  0.00000000000E+00 -0.00000000000E+00 -0.25250524465E+04  0.25250524465E+04  0.50400000000E-02 0. -1.
    8880023    1    1    2    0    0  0.67245218145E+03  0.63717971640E+03 -0.20027175872E+02  0.11368382565E+04  0.65864270000E+03 0.  0.
    8880022    1    1    2    0    0 -0.67245218145E+03 -0.63717971640E+03 -0.18334001879E+04  0.20598392727E+04  0.15294330000E+03 0.  0.
<mgrwt>
<rscale>  0 0.10836306E+04</rscale>
<asrwt>0</asrwt>
<pdfrwt beam="1">  1        1 0.38846960E+00 0.11366618E+04</pdfrwt>
<pdfrwt beam="2">  1       -1 0.10332694E+00 0.11366618E+04</pdfrwt>
<totfact> 0.11486866E+00</totfact>
</mgrwt>
</event>
<event>
 4    1  0.2514307E-008  0.9441739E+03  0.7818608E-02  0.9458547E-01
         -1   -1    0    0    0  501 -0.00000000000E+00  0.00000000000E+00  0.19095021415E+04  0.19095021415E+04  0.50400000000E-02 0.  1.
          1   -1    0    0  501    0  0.00000000000E+00 -0.00000000000E+00 -0.39315896422E+03  0.39315896425E+03  0.50400000000E-02 0. -1.
    8880023    1    1    2    0    0 -0.65865110765E+03 -0.15437881805E+03  0.12341044364E+04  0.15538590886E+04  0.65864270000E+03 0.  1.
    8880022    1    1    2    0    0  0.65865110765E+03  0.15437881805E+03  0.28223874095E+03  0.74880201721E+03  0.15294330000E+03 0. -1.
<mgrwt>
<rscale>  0 0.87410234E+03</rscale>
<asrwt>0</asrwt>
<pdfrwt beam="1">  1        1 0.60485996E-01 0.94417388E+03</pdfrwt>
<pdfrwt beam="2">  1       -1 0.29376955E+00 0.94417388E+03</pdfrwt>
<totfact> 0.22714958E+00</totfact>
</mgrwt>
</event>
<event>
 4    1  0.2514307E-008  0.6713690E+03  0.7818608E-02  0.1014700E+00
          1   -1    0    0  501    0  0.00000000000E+00  0.00000000000E+00  0.29802097138E+03  0.29802097142E+03  0.50400000000E-02 0. -1.
         -1   -1    0    0    0  501 -0.00000000000E+00 -0.00000000000E+00 -0.10430039914E+04  0.10430039914E+04  0.50400000000E-02 0.  1.
    8880023    1    1    2    0    0 -0.63387878170E+02 -0.11361393459E+03 -0.87419552851E+03  0.11022495986E+04  0.65864270000E+03 0.  1.
    8880022    1    1    2    0    0  0.63387878170E+02  0.11361393459E+03  0.12921250846E+03  0.23877536429E+03  0.15294330000E+03 0.  0.
<mgrwt>
<rscale>  0 0.49648722E+03</rscale>
<asrwt>0</asrwt>
<pdfrwt beam="1">  1        1 0.45849381E-01 0.67136902E+03</pdfrwt>
<pdfrwt beam="2">  1       -1 0.16046215E+00 0.67136902E+03</pdfrwt>
<totfact> 0.26455488E+01</totfact>
</mgrwt>
</event>
<event>
 4    1  0.2514307E-008  0.7701674E+03  0.7818608E-02  0.9779462E-01
          1   -1    0    0  501    0  0.00000000000E+00  0.00000000000E+00  0.10707134185E+04  0.10707134185E+04  0.50400000000E-02 0. -1.
         -1   -1    0    0    0  501 -0.00000000000E+00 -0.00000000000E+00 -0.19072775879E+04  0.19072775880E+04  0.50400000000E-02 0.  1.
    8880023    1    1    2    0    0  0.36629126306E+03  0.15867675352E+03 -0.17815046853E+04  0.19408546446E+04  0.65864270000E+03 0.  1.
    8880022    1    1    2    0    0 -0.36629126306E+03 -0.15867675352E+03  0.94494051585E+03  0.10371363618E+04  0.15294330000E+03 0.  0.
<mgrwt>
<rscale>  0 0.66476451E+03</rscale>
<asrwt>0</asrwt>
<pdfrwt beam="1">  1        1 0.16472514E+00 0.77016739E+03</pdfrwt>
<pdfrwt beam="2">  1       -1 0.29342732E+00 0.77016739E+03</pdfrwt>
<totfact> 0.51399373E-01</totfact>
</mgrwt>
</event>
<event>
 4    1  0.2514307E-008  0.7843125E+03  0.7818608E-02  0.9745803E-01
         -1   -1    0    0    0  501 -0.00000000000E+00  0.00000000000E+00  0.12802947443E+04  0.12802947444E+04  0.50400000000E-02 0.  1.
          1   -1    0    0  501    0  0.00000000000E+00 -0.00000000000E+00 -0.15288293695E+04  0.15288293695E+04  0.50400000000E-02 0. -1.
    8880023    1    1    2    0    0 -0.19211161710E+03 -0.38003811840E+03  0.11202360126E+04  0.13675067733E+04  0.65864270000E+03 0.  1.
    8880022    1    1    2    0    0  0.19211161710E+03  0.38003811840E+03 -0.13687706378E+04  0.14416173406E+04  0.15294330000E+03 0.  0.
<mgrwt>
<rscale>  0 0.68353989E+03</rscale>
<asrwt>0</asrwt>
<pdfrwt beam="1">  1        1 0.23520452E+00 0.78431247E+03</pdfrwt>
<pdfrwt beam="2">  1       -1 0.19696842E+00 0.78431247E+03</pdfrwt>
<totfact> 0.10319100E+00</totfact>
</mgrwt>
</event>
<event>
 4    1  0.2514307E-008  0.9760228E+03  0.7818608E-02  0.9413622E-01
          1   -1    0    0  501    0  0.00000000000E+00  0.00000000000E+00  0.17473594679E+04  0.17473594679E+04  0.50400000000E-02 0. -1.
         -1   -1    0    0    0  501 -0.00000000000E+00 -0.00000000000E+00 -0.10163288469E+04  0.10163288469E+04  0.50400000000E-02 0.  1.
    8880023    1    1    2    0    0 -0.70272643730E+03  0.15806888728E+03 -0.66798875031E+03  0.11827211825E+04  0.65864270000E+03 0.  0.
    8880022    1    1    2    0    0  0.70272643730E+03 -0.15806888728E+03  0.13990193713E+04  0.15809671322E+04  0.15294330000E+03 0.  0.
<mgrwt>
<rscale>  0 0.90963065E+03</rscale>
<asrwt>0</asrwt>
<pdfrwt beam="1">  1        1 0.26882453E+00 0.97602276E+03</pdfrwt>
<pdfrwt beam="2">  1       -1 0.15635828E+00 0.97602276E+03</pdfrwt>
<totfact> 0.13945962E+00</totfact>
</mgrwt>
</event>
<event>
 4    1  0.2514307E-008  0.8486098E+03  0.7818608E-02  0.9614155E-01
          1   -1    0    0  501    0  0.00000000000E+00  0.00000000000E+00  0.20240103457E+04  0.20240103457E+04  0.50400000000E-02 0. -1.
         -1   -1    0    0    0  501 -0.00000000000E+00 -0.00000000000E+00 -0.76928548468E+03  0.76928548469E+03  0.50400000000E-02 0.  1.
    8880023    1    1    2    0    0 -0.52676993736E+03 -0.94030671275E+02 -0.47759654763E+03  0.97377461592E+03  0.65864270000E+03 0.  1.
    8880022    1    1    2    0    0  0.52676993736E+03  0.94030671275E+02  0.17323214086E+04  0.18195212144E+04  0.15294330000E+03 0.  0.
<mgrwt>
<rscale>  0 0.76366375E+03</rscale>
<asrwt>0</asrwt>
<pdfrwt beam="1">  1        1 0.31138620E+00 0.84860977E+03</pdfrwt>
<pdfrwt beam="2">  1       -1 0.11835162E+00 0.84860977E+03</pdfrwt>
<totfact> 0.19041281E+00</totfact>
</mgrwt>
</event>
<event>
 4    1  0.2514307E-008  0.9168432E+03  0.7818608E-02  0.9499516E-01
         -1   -1    0    0    0  501 -0.00000000000E+00  0.00000000000E+00  0.93088951709E+03  0.93088951710E+03  0.50400000000E-02 0.  1.
          1   -1    0    0  501    0  0.00000000000E+00 -0.00000000000E+00 -0.18055328112E+04  0.18055328112E+04  0.50400000000E-02 0. -1.
    8880023    1    1    2    0    0 -0.62468797328E+03 -0.12867088372E+03  0.61824076375E+03  0.11058133244E+04  0.65864270000E+03 0.  0.
    8880022    1    1    2    0    0  0.62468797328E+03  0.12867088372E+03 -0.14928840578E+04  0.16306090038E+04  0.15294330000E+03 0.  0.
<mgrwt>
<rscale>  0 0.84319486E+03</rscale>
<asrwt>0</asrwt>
<pdfrwt beam="1">  1        1 0.27777428E+00 0.91684321E+03</pdfrwt>
<pdfrwt beam="2">  1       -1 0.14321377E+00 0.91684321E+03</pdfrwt>
<totfact> 0.16290975E+00</totfact>
</mgrwt>
</event>
<event>
 4    1  0.2514307E-008  0.1183811E+04  0.7818608E-02  0.9173022E-01
         -1   -1    0    0    0  501 -0.00000000000E+00  0.00000000000E+00  0.68529865439E+03  0.68529865440E+03  0.50400000000E-02 0.  1.
          1   -1    0    0  501    0  0.00000000000E+00 -0.00000000000E+00 -0.18663633272E+04  0.18663633272E+04  0.50400000000E-02 0. -1.
    8880023    1    1    2    0    0  0.58646244144E+03  0.78972209653E+03 -0.29750652005E+03  0.12206225955E+04  0.65864270000E+03 0.  0.
    8880022    1    1    2    0    0 -0.58646244144E+03 -0.78972209653E+03 -0.88355815272E+03  0.13310393860E+04  0.15294330000E+03 0.  0.
<mgrwt>
<rscale>  0 0.11336281E+04</rscale>
<asrwt>0</asrwt>
<pdfrwt beam="1">  1        1 0.28713282E+00 0.11838114E+04</pdfrwt>
<pdfrwt beam="2">  1       -1 0.10543056E+00 0.11838114E+04</pdfrwt>
<totfact> 0.30558438E+00</totfact>
</mgrwt>
</event>
<event>
 4    1  0.2514307E-008  0.1321584E+04  0.7818608E-02  0.9047141E-01
          1   -1    0    0  501    0  0.00000000000E+00  0.00000000000E+00  0.13770940022E+04  0.13770940023E+04  0.50400000000E-02 0. -1.
         -1   -1    0    0    0  501 -0.00000000000E+00 -0.00000000000E+00 -0.15398115637E+04  0.15398115637E+04  0.50400000000E-02 0.  1.
    8880023    1    1    2    0    0  0.60433277405E+03  0.97342538670E+03 -0.85072174206E+03  0.15717228680E+04  0.65864270000E+03 0.  0.
    8880022    1    1    2    0    0 -0.60433277405E+03 -0.97342538670E+03  0.68800418061E+03  0.13451826979E+04  0.15294330000E+03 0.  0.
<mgrwt>
<rscale>  0 0.12780674E+04</rscale>
<asrwt>0</asrwt>
<pdfrwt beam="1">  1        1 0.21186061E+00 0.13215844E+04</pdfrwt>
<pdfrwt beam="2">  1       -1 0.23689409E+00 0.13215844E+04</pdfrwt>
<totfact> 0.65450702E-01</totfact>
</mgrwt>
</event>
<event>
 4    1  0.2514307E-008  0.1009527E+04  0.7818608E-02  0.9369198E-01
         -1   -1    0    0    0  501 -0.00000000000E+00  0.00000000000E+00  0.67448940834E+03  0.67448940836E+03  0.50400000000E-02 0.  1.
          1   -1    0    0  501    0  0.00000000000E+00 -0.00000000000E+00 -0.13577880745E+04  0.13577880745E+04  0.50400000000E-02 0. -1.
    8880023    1    1    2    0    0  0.40618761765E+03 -0.64834112584E+03 -0.22402345022E+02  0.10097755530E+04  0.65864270000E+03 0.  1.
    8880022    1    1    2    0    0 -0.40618761765E+03  0.64834112584E+03 -0.66089632110E+03  0.10225019298E+04  0.15294330000E+03 0.  0.
<mgrwt>
<rscale>  0 0.94654489E+03</rscale>
<asrwt>0</asrwt>
<pdfrwt beam="1">  1        1 0.20889047E+00 0.10095270E+04</pdfrwt>
<pdfrwt beam="2">  1       -1 0.10376760E+00 0.10095270E+04</pdfrwt>
<totfact> 0.72247472E+00</totfact>
</mgrwt>
</event>
<event>
 4    1  0.2514307E-008  0.8454887E+03  0.7818608E-02  0.9619916E-01
         -1   -1    0    0    0  501 -0.00000000000E+00  0.00000000000E+00  0.10723425666E+04  0.10723425666E+04  0.50400000000E-02 0.  1.
          1   -1    0    0  501    0  0.00000000000E+00 -0.00000000000E+00 -0.76138154502E+03  0.76138154504E+03  0.50400000000E-02 0. -1.
    8880023    1    1    2    0    0  0.46608706632E+03  0.25259427149E+03  0.74876221839E+03  0.11293786280E+04  0.65864270000E+03 0.  1.
    8880022    1    1    2    0    0 -0.46608706632E+03 -0.25259427149E+03 -0.43780119683E+03  0.70434548366E+03  0.15294330000E+03 0.  0.
<mgrwt>
<rscale>  0 0.75991896E+03</rscale>
<asrwt>0</asrwt>
<pdfrwt beam="1">  1        1 0.11713562E+00 0.84548875E+03</pdfrwt>
<pdfrwt beam="2">  1       -1 0.16497578E+00 0.84548875E+03</pdfrwt>
<totfact> 0.65449595E+00</totfact>
</mgrwt>
</event>
<event>
 4    1  0.2514307E-008  0.1003209E+04  0.7818608E-02  0.9377371E-01
         -1   -1    0    0    0  501 -0.00000000000E+00  0.00000000000E+00  0.10374930128E+04  0.10374930128E+04  0.50400000000E-02 0.  1.
          1   -1    0    0  501    0  0.00000000000E+00 -0.00000000000E+00 -0.99545999643E+03  0.99545999644E+03  0.50400000000E-02 0. -1.
    8880023    1    1    2    0    0 -0.75592004574E+02  0.75293052489E+03  0.51489736129E+03  0.11276293830E+04  0.65864270000E+03 0.  1.
    8880022    1    1    2    0    0  0.75592004574E+02 -0.75293052489E+03 -0.47286434495E+03  0.90532362623E+03  0.15294330000E+03 0.  0.
<mgrwt>
<rscale>  0 0.93961587E+03</rscale>
<asrwt>0</asrwt>
<pdfrwt beam="1">  1        1 0.15314769E+00 0.10032092E+04</pdfrwt>
<pdfrwt beam="2">  1       -1 0.15961431E+00 0.10032092E+04</pdfrwt>
<totfact> 0.44990996E+00</totfact>
</mgrwt>
</event>
<event>
 4    1  0.2514307E-008  0.8235402E+03  0.7818608E-02  0.9662034E-01
         -1   -1    0    0    0  501 -0.00000000000E+00  0.00000000000E+00  0.58653369237E+03  0.58653369239E+03  0.50400000000E-02 0.  1.
          1   -1    0    0  501    0  0.00000000000E+00 -0.00000000000E+00 -0.84428244973E+03  0.84428244974E+03  0.50400000000E-02 0. -1.
    8880023    1    1    2    0    0 -0.16856047283E+03 -0.46475328062E+03  0.56337506446E+02  0.82546493914E+03  0.65864270000E+03 0.  1.
    8880022    1    1    2    0    0  0.16856047283E+03  0.46475328062E+03 -0.31408626380E+03  0.60535120300E+03  0.15294330000E+03 0.  0.
<mgrwt>
<rscale>  0 0.73322945E+03</rscale>
<asrwt>0</asrwt>
<pdfrwt beam="1">  1        1 0.12988961E+00 0.82354019E+03</pdfrwt>
<pdfrwt beam="2">  1       -1 0.90235953E-01 0.82354019E+03</pdfrwt>
<totfact> 0.24779582E+01</totfact>
</mgrwt>
</event>
<event>
 4    1  0.2514307E-008  0.9426467E+03  0.7818608E-02  0.9460774E-01
         -1   -1    0    0    0  501 -0.00000000000E+00  0.00000000000E+00  0.14229427340E+04  0.14229427340E+04  0.50400000000E-02 0.  1.
          1   -1    0    0  501    0  0.00000000000E+00 -0.00000000000E+00 -0.83716350676E+03  0.83716350677E+03  0.50400000000E-02 0. -1.
    8880023    1    1    2    0    0  0.44817837725E+03  0.50389362223E+03  0.10623675825E+04  0.14202843824E+04  0.65864270000E+03 0.  0.
    8880022    1    1    2    0    0 -0.44817837725E+03 -0.50389362223E+03 -0.47658835526E+03  0.83982185834E+03  0.15294330000E+03 0.  0.
<mgrwt>
<rscale>  0 0.87238636E+03</rscale>
<asrwt>0</asrwt>
<pdfrwt beam="1">  1        1 0.12879439E+00 0.94264672E+03</pdfrwt>
<pdfrwt beam="2">  1       -1 0.21891427E+00 0.94264672E+03</pdfrwt>
<totfact> 0.23277413E+00</totfact>
</mgrwt>
</event>
<event>
 4    1  0.2514307E-008  0.7161742E+03  0.7818608E-02  0.9935750E-01
          1   -1    0    0  501    0  0.00000000000E+00  0.00000000000E+00  0.89009672544E+03  0.89009672545E+03  0.50400000000E-02 0. -1.
         -1   -1    0    0    0  501 -0.00000000000E+00 -0.00000000000E+00 -0.66083790381E+03  0.66083790383E+03  0.50400000000E-02 0.  1.
    8880023    1    1    2    0    0 -0.26996999540E+03 -0.78812691759E+02 -0.41771339077E+03  0.82908981533E+03  0.65864270000E+03 0.  1.
    8880022    1    1    2    0    0  0.26996999540E+03  0.78812691759E+02  0.64697221240E+03  0.72184481395E+03  0.15294330000E+03 0.  0.
<mgrwt>
<rscale>  0 0.58559523E+03</rscale>
<asrwt>0</asrwt>
<pdfrwt beam="1">  1        1 0.13693796E+00 0.71617417E+03</pdfrwt>
<pdfrwt beam="2">  1       -1 0.10166737E+00 0.71617417E+03</pdfrwt>
<totfact> 0.17576740E+01</totfact>
</mgrwt>
</event>
<event>
 4    1  0.2514307E-008  0.6883482E+03  0.7818608E-02  0.1004948E+00
          1   -1    0    0  501    0  0.00000000000E+00  0.00000000000E+00  0.99903044003E+03  0.99903044004E+03  0.50400000000E-02 0. -1.
         -1   -1    0    0    0  501 -0.00000000000E+00 -0.00000000000E+00 -0.63178424833E+03  0.63178424835E+03  0.50400000000E-02 0.  1.
    8880023    1    1    2    0    0  0.49779042614E+02 -0.19373975165E+03 -0.41858398256E+03  0.80562758218E+03  0.65864270000E+03 0.  0.
    8880022    1    1    2    0    0 -0.49779042614E+02  0.19373975165E+03  0.78583017426E+03  0.82518710621E+03  0.15294330000E+03 0.  0.
<mgrwt>
<rscale>  0 0.53532967E+03</rscale>
<asrwt>0</asrwt>
<pdfrwt beam="1">  1        1 0.15369699E+00 0.68834820E+03</pdfrwt>
<pdfrwt beam="2">  1       -1 0.97197577E-01 0.68834820E+03</pdfrwt>
<totfact> 0.16009781E+01</totfact>
</mgrwt>
</event>
<event>
 4    1  0.2514307E-008  0.9209343E+03  0.7818608E-02  0.9493228E-01
          1   -1    0    0  501    0  0.00000000000E+00  0.00000000000E+00  0.11307723572E+04  0.11307723572E+04  0.50400000000E-02 0. -1.
         -1   -1    0    0    0  501 -0.00000000000E+00 -0.00000000000E+00 -0.96191960729E+03  0.96191960730E+03  0.50400000000E-02 0.  1.
    8880023    1    1    2    0    0 -0.50552143296E+03  0.39844437802E+03 -0.58396627812E+03  0.10904754292E+04  0.65864270000E+03 0.  1.
    8880022    1    1    2    0    0  0.50552143296E+03 -0.39844437802E+03  0.75281902799E+03  0.10022165352E+04  0.15294330000E+03 0.  0.
<mgrwt>
<rscale>  0 0.84784947E+03</rscale>
<asrwt>0</asrwt>
<pdfrwt beam="1">  1        1 0.17396498E+00 0.92093433E+03</pdfrwt>
<pdfrwt beam="2">  1       -1 0.14798763E+00 0.92093433E+03</pdfrwt>
<totfact> 0.44062041E+00</totfact>
</mgrwt>
</event>
<event>
 4    1  0.2514307E-008  0.1003302E+04  0.7818608E-02  0.9377250E-01
         -1   -1    0    0    0  501 -0.00000000000E+00  0.00000000000E+00  0.12972030787E+04  0.12972030787E+04  0.50400000000E-02 0.  1.
          1   -1    0    0  501    0  0.00000000000E+00 -0.00000000000E+00 -0.15469376380E+04  0.15469376380E+04  0.50400000000E-02 0. -1.
    8880023    1    1    2    0    0 -0.25381688031E+02 -0.75641348068E+03  0.97325604369E+03  0.13977993836E+04  0.65864270000E+03 0.  0.
    8880022    1    1    2    0    0  0.25381688031E+02  0.75641348068E+03 -0.12229906030E+04  0.14463413331E+04  0.15294330000E+03 0.  0.
<mgrwt>
<rscale>  0 0.93971822E+03</rscale>
<asrwt>0</asrwt>
<pdfrwt beam="1">  1        1 0.23799041E+00 0.10033024E+04</pdfrwt>
<pdfrwt beam="2">  1       -1 0.19956970E+00 0.10033024E+04</pdfrwt>
<totfact> 0.92639588E-01</totfact>
</mgrwt>
</event>
<event>
 4    1  0.2514307E-008  0.1269552E+04  0.7818608E-02  0.9092310E-01
         -1   -1    0    0    0  501 -0.00000000000E+00  0.00000000000E+00  0.21609147011E+04  0.21609147011E+04  0.50400000000E-02 0.  1.
          1   -1    0    0  501    0  0.00000000000E+00 -0.00000000000E+00 -0.10149573854E+04  0.10149573854E+04  0.50400000000E-02 0. -1.
    8880023    1    1    2    0    0  0.90932292462E+03  0.59252273155E+03  0.15537026831E+04  0.20064280706E+04  0.65864270000E+03 0.  0.
    8880022    1    1    2    0    0 -0.90932292462E+03 -0.59252273155E+03 -0.40774536750E+03  0.11694440159E+04  0.15294330000E+03 0.  0.
<mgrwt>
<rscale>  0 0.12237598E+04</rscale>
<asrwt>0</asrwt>
<pdfrwt beam="1">  1        1 0.15614729E+00 0.12695517E+04</pdfrwt>
<pdfrwt beam="2">  1       -1 0.33244841E+00 0.12695517E+04</pdfrwt>
<totfact> 0.29236312E-01</totfact>
</mgrwt>
</event>
<event>
 4    1  0.2514307E-008  0.7054553E+03  0.7818608E-02  0.9975281E-01
         -1   -1    0    0    0  501 -0.00000000000E+00  0.00000000000E+00  0.74126912644E+03  0.74126912645E+03  0.50400000000E-02 0.  1.
          1   -1    0    0  501    0  0.00000000000E+00 -0.00000000000E+00 -0.12790537121E+04  0.12790537121E+04  0.50400000000E-02 0. -1.
    8880023    1    1    2    0    0 -0.11356437309E+03 -0.22574354431E+03  0.54913075266E+03  0.89398646769E+03  0.65864270000E+03 0.  1.
    8880022    1    1    2    0    0  0.11356437309E+03  0.22574354431E+03 -0.10869153383E+04  0.11263363708E+04  0.15294330000E+03 0.  0.
<mgrwt>
<rscale>  0 0.56747533E+03</rscale>
<asrwt>0</asrwt>
<pdfrwt beam="1">  1        1 0.19677749E+00 0.70545533E+03</pdfrwt>
<pdfrwt beam="2">  1       -1 0.11404140E+00 0.70545533E+03</pdfrwt>
<totfact> 0.68521127E+00</totfact>
</mgrwt>
</event>
<event>
 4    1  0.2514307E-008  0.7359657E+03  0.7818608E-02  0.9871858E-01
          1   -1    0    0  501    0  0.00000000000E+00  0.00000000000E+00  0.22036222725E+04  0.22036222725E+04  0.50400000000E-02 0. -1.
         -1   -1    0    0    0  501 -0.00000000000E+00 -0.00000000000E+00 -0.11126939364E+04  0.11126939364E+04  0.50400000000E-02 0.  1.
    8880023    1    1    2    0    0 -0.25972625097E+03 -0.20094190653E+03 -0.97347618293E+03  0.12203693950E+04  0.65864270000E+03 0.  1.
    8880022    1    1    2    0    0  0.25972625097E+03  0.20094190653E+03  0.20644045191E+04  0.20959468139E+04  0.15294330000E+03 0.  0.
<mgrwt>
<rscale>  0 0.61644753E+03</rscale>
<asrwt>0</asrwt>
<pdfrwt beam="1">  1        1 0.33901881E+00 0.73596575E+03</pdfrwt>
<pdfrwt beam="2">  1       -1 0.17118368E+00 0.73596575E+03</pdfrwt>
<totfact> 0.55873573E-01</totfact>
</mgrwt>
</event>
<event>
 4    1  0.2514307E-008  0.7594491E+03  0.7818608E-02  0.9806536E-01
          1   -1    0    0  501    0  0.00000000000E+00  0.00000000000E+00  0.27754962706E+04  0.27754962706E+04  0.50400000000E-02 0. -1.
         -1   -1    0    0    0  501 -0.00000000000E+00 -0.00000000000E+00 -0.26212095347E+03  0.26212095352E+03  0.50400000000E-02 0.  1.
    8880023    1    1    2    0    0  0.28639084757E+03  0.24684625985E+03  0.35015507658E+03  0.83628438793E+03  0.65864270000E+03 0.  1.
    8880022    1    1    2    0    0 -0.28639084757E+03 -0.24684625985E+03  0.21632202406E+04  0.22013328362E+04  0.15294330000E+03 0.  0.
<mgrwt>
<rscale>  0 0.65012978E+03</rscale>
<asrwt>0</asrwt>
<pdfrwt beam="1">  1        1 0.42699943E+00 0.75944914E+03</pdfrwt>
<pdfrwt beam="2">  1       -1 0.40326300E-01 0.75944914E+03</pdfrwt>
<totfact> 0.55240507E+00</totfact>
</mgrwt>
</event>
<event>
 4    1  0.2514307E-008  0.6649354E+03  0.7818608E-02  0.1019588E+00
          1   -1    0    0  501    0  0.00000000000E+00  0.00000000000E+00  0.93656244181E+03  0.93656244182E+03  0.50400000000E-02 0. -1.
         -1   -1    0    0    0  501 -0.00000000000E+00 -0.00000000000E+00 -0.25605748230E+03  0.25605748235E+03  0.50400000000E-02 0.  1.
    8880023    1    1    2    0    0  0.14919094619E+02  0.90035100612E+02  0.22245078088E+03  0.70115865173E+03  0.65864270000E+03 0.  1.
    8880022    1    1    2    0    0 -0.14919094619E+02 -0.90035100612E+02  0.45805417863E+03  0.49146127244E+03  0.15294330000E+03 0.  0.
<mgrwt>
<rscale>  0 0.47835706E+03</rscale>
<asrwt>0</asrwt>
<pdfrwt beam="1">  1        1 0.14408653E+00 0.66493541E+03</pdfrwt>
<pdfrwt beam="2">  1       -1 0.39393459E-01 0.66493541E+03</pdfrwt>
<totfact> 0.10913609E+02</totfact>
</mgrwt>
</event>
<event>
 4    1  0.2514307E-008  0.6842248E+03  0.7818608E-02  0.1007028E+00
         -1   -1    0    0    0  501 -0.00000000000E+00  0.00000000000E+00  0.22845132926E+04  0.22845132926E+04  0.50400000000E-02 0.  1.
          1   -1    0    0  501    0  0.00000000000E+00 -0.00000000000E+00 -0.45646408411E+03  0.45646408414E+03  0.50400000000E-02 0. -1.
    8880023    1    1    2    0    0  0.18411066037E+03 -0.21370606393E+02  0.21967713760E+04  0.23008624737E+04  0.65864270000E+03 0.  1.
    8880022    1    1    2    0    0 -0.18411066037E+03  0.21370606393E+02 -0.36872216751E+03  0.44011490307E+03  0.15294330000E+03 0.  0.
<mgrwt>
<rscale>  0 0.52673056E+03</rscale>
<asrwt>0</asrwt>
<pdfrwt beam="1">  1        1 0.70225243E-01 0.68422485E+03</pdfrwt>
<pdfrwt beam="2">  1       -1 0.35146359E+00 0.68422485E+03</pdfrwt>
<totfact> 0.82265662E-01</totfact>
</mgrwt>
</event>
<event>
 4    1  0.2514307E-008  0.7173970E+03  0.7818608E-02  0.9931494E-01
          1   -1    0    0  501    0  0.00000000000E+00  0.00000000000E+00  0.50598718636E+03  0.50598718638E+03  0.50400000000E-02 0. -1.
         -1   -1    0    0    0  501 -0.00000000000E+00 -0.00000000000E+00 -0.80016928305E+03  0.80016928307E+03  0.50400000000E-02 0.  1.
    8880023    1    1    2    0    0 -0.27878121322E+03 -0.55940405552E+02 -0.54202274509E+03  0.89913689518E+03  0.65864270000E+03 0.  1.
    8880022    1    1    2    0    0  0.27878121322E+03  0.55940405552E+02  0.24784064840E+03  0.40701957426E+03  0.15294330000E+03 0.  0.
<mgrwt>
<rscale>  0 0.58758940E+03</rscale>
<asrwt>0</asrwt>
<pdfrwt beam="1">  1        1 0.77844183E-01 0.71739703E+03</pdfrwt>
<pdfrwt beam="2">  1       -1 0.12310297E+00 0.71739703E+03</pdfrwt>
<totfact> 0.26054534E+01</totfact>
</mgrwt>
</event>
<event>
 4    1  0.2514307E-008  0.7596433E+03  0.7818608E-02  0.9806032E-01
          1   -1    0    0  501    0  0.00000000000E+00  0.00000000000E+00  0.57660011369E+03  0.57660011371E+03  0.50400000000E-02 0. -1.
         -1   -1    0    0    0  501 -0.00000000000E+00 -0.00000000000E+00 -0.10600562021E+04  0.10600562021E+04  0.50400000000E-02 0.  1.
    8880023    1    1    2    0    0 -0.22829381981E+03  0.30187699754E+03 -0.81252725392E+03  0.11123212371E+04  0.65864270000E+03 0.  1.
    8880022    1    1    2    0    0  0.22829381981E+03 -0.30187699754E+03  0.32907116552E+03  0.52433507874E+03  0.15294330000E+03 0.  0.
<mgrwt>
<rscale>  0 0.65039849E+03</rscale>
<asrwt>0</asrwt>
<pdfrwt beam="1">  1        1 0.88707710E-01 0.75964333E+03</pdfrwt>
<pdfrwt beam="2">  1       -1 0.16308557E+00 0.75964333E+03</pdfrwt>
<totfact> 0.10337919E+01</totfact>
</mgrwt>
</event>
<event>
 4    1  0.2514307E-008  0.9530102E+03  0.7818608E-02  0.9445796E-01
         -1   -1    0    0    0  501 -0.00000000000E+00  0.00000000000E+00  0.11651580400E+04  0.11651580400E+04  0.50400000000E-02 0.  1.
          1   -1    0    0  501    0  0.00000000000E+00 -0.00000000000E+00 -0.15512330416E+04  0.15512330416E+04  0.50400000000E-02 0. -1.
    8880023    1    1    2    0    0 -0.60075694763E+03 -0.33691150687E+03  0.86048833841E+03  0.12840049301E+04  0.65864270000E+03 0.  1.
    8880022    1    1    2    0    0  0.60075694763E+03  0.33691150687E+03 -0.12465633400E+04  0.14323861516E+04  0.15294330000E+03 0.  0.
<mgrwt>
<rscale>  0 0.88400783E+03</rscale>
<asrwt>0</asrwt>
<pdfrwt beam="1">  1        1 0.23865124E+00 0.95301022E+03</pdfrwt>
<pdfrwt beam="2">  1       -1 0.17925508E+00 0.95301022E+03</pdfrwt>
<totfact> 0.12879604E+00</totfact>
</mgrwt>
</event>
<event>
 4    1  0.2514307E-008  0.9968677E+03  0.7818608E-02  0.9385667E-01
          1   -1    0    0  501    0  0.00000000000E+00  0.00000000000E+00  0.20722531733E+04  0.20722531733E+04  0.50400000000E-02 0. -1.
         -1   -1    0    0    0  501 -0.00000000000E+00 -0.00000000000E+00 -0.44255745452E+03  0.44255745455E+03  0.50400000000E-02 0.  1.
    8880023    1    1    2    0    0 -0.45132464426E+02  0.74692568593E+03  0.41466807619E+03  0.10796734411E+04  0.65864270000E+03 0.  0.
    8880022    1    1    2    0    0  0.45132464426E+02 -0.74692568593E+03  0.12150276426E+04  0.14351371868E+04  0.15294330000E+03 0.  0.
<mgrwt>
<rscale>  0 0.93264657E+03</rscale>
<asrwt>0</asrwt>
<pdfrwt beam="1">  1        1 0.31880818E+00 0.99686766E+03</pdfrwt>
<pdfrwt beam="2">  1       -1 0.68085762E-01 0.99686766E+03</pdfrwt>
<totfact> 0.58869160E+00</totfact>
</mgrwt>
</event>
<event>
 4    1  0.2514307E-008  0.7394789E+03  0.7818608E-02  0.9861468E-01
          1   -1    0    0  501    0  0.00000000000E+00  0.00000000000E+00  0.92172991212E+03  0.92172991214E+03  0.50400000000E-02 0. -1.
         -1   -1    0    0    0  501 -0.00000000000E+00 -0.00000000000E+00 -0.46906389650E+03  0.46906389653E+03  0.50400000000E-02 0.  1.
    8880023    1    1    2    0    0 -0.16106825220E+03 -0.29508628133E+03 -0.78723520378E+02  0.74365751137E+03  0.65864270000E+03 0.  0.
    8880022    1    1    2    0    0  0.16106825220E+03  0.29508628133E+03  0.53138953600E+03  0.64713629730E+03  0.15294330000E+03 0.  0.
<mgrwt>
<rscale>  0 0.62165632E+03</rscale>
<asrwt>0</asrwt>
<pdfrwt beam="1">  1        1 0.14180460E+00 0.73947894E+03</pdfrwt>
<pdfrwt beam="2">  1       -1 0.72163677E-01 0.73947894E+03</pdfrwt>
<totfact> 0.34750618E+01</totfact>
</mgrwt>
</event>
<event>
 4    1  0.2514307E-008  0.8770376E+03  0.7818608E-02  0.9563947E-01
          1   -1    0    0  501    0  0.00000000000E+00  0.00000000000E+00  0.17706952430E+04  0.17706952430E+04  0.50400000000E-02 0. -1.
         -1   -1    0    0    0  501 -0.00000000000E+00 -0.00000000000E+00 -0.17415075086E+04  0.17415075086E+04  0.50400000000E-02 0.  1.
    8880023    1    1    2    0    0  0.40259035378E+03  0.41629997192E+03 -0.15734046477E+04  0.18013320214E+04  0.65864270000E+03 0.  0.
    8880022    1    1    2    0    0 -0.40259035378E+03 -0.41629997192E+03  0.16025923820E+04  0.17108707302E+04  0.15294330000E+03 0.  0.
<mgrwt>
<rscale>  0 0.79729054E+03</rscale>
<asrwt>0</asrwt>
<pdfrwt beam="1">  1        1 0.27241465E+00 0.87703755E+03</pdfrwt>
<pdfrwt beam="2">  1       -1 0.26792423E+00 0.87703755E+03</pdfrwt>
<totfact> 0.23659088E-01</totfact>
</mgrwt>
</event>
<event>
 4    1  0.2514307E-008  0.1589924E+04  0.7818608E-02  0.8848616E-01
          1   -1    0    0  501    0  0.00000000000E+00  0.00000000000E+00  0.12584920321E+04  0.12584920321E+04  0.50400000000E-02 0. -1.
         -1   -1    0    0    0  501 -0.00000000000E+00 -0.00000000000E+00 -0.19486390313E+04  0.19486390313E+04  0.50400000000E-02 0.  1.
    8880023    1    1    2    0    0 -0.11991862067E+04  0.80993918133E+03  0.15316296461E+02  0.15899980601E+04  0.65864270000E+03 0.  0.
    8880022    1    1    2    0    0  0.11991862067E+04 -0.80993918133E+03 -0.70546329568E+03  0.16171330033E+04  0.15294330000E+03 0.  0.
<mgrwt>
<rscale>  0 0.15551015E+04</rscale>
<asrwt>0</asrwt>
<pdfrwt beam="1">  1        1 0.19361416E+00 0.15899243E+04</pdfrwt>
<pdfrwt beam="2">  1       -1 0.29979062E+00 0.15899243E+04</pdfrwt>
<totfact> 0.30136706E-01</totfact>
</mgrwt>
</event>
<event>
 4    1  0.2514307E-008  0.7635908E+03  0.7818608E-02  0.9795899E-01
         -1   -1    0    0    0  501 -0.00000000000E+00  0.00000000000E+00  0.19729556447E+03  0.19729556453E+03  0.50400000000E-02 0.  1.
          1   -1    0    0  501    0  0.00000000000E+00 -0.00000000000E+00 -0.35104239539E+04  0.35104239539E+04  0.50400000000E-02 0. -1.
    8880023    1    1    2    0    0  0.37784277574E+03 -0.80594658632E+02 -0.62245108665E+03  0.98514781820E+03  0.65864270000E+03 0.  1.
    8880022    1    1    2    0    0 -0.37784277574E+03  0.80594658632E+02 -0.26906773027E+04  0.27225717002E+04  0.15294330000E+03 0.  0.
<mgrwt>
<rscale>  0 0.65583117E+03</rscale>
<asrwt>0</asrwt>
<pdfrwt beam="1">  1        1 0.54006518E+00 0.76359077E+03</pdfrwt>
<pdfrwt beam="2">  1       -1 0.30353166E-01 0.76359077E+03</pdfrwt>
<totfact> 0.26490180E+00</totfact>
</mgrwt>
</event>
<event>
 4    1  0.2514307E-008  0.1314265E+04  0.7818608E-02  0.9053338E-01
          1   -1    0    0  501    0  0.00000000000E+00  0.00000000000E+00  0.14894109304E+04  0.14894109304E+04  0.50400000000E-02 0. -1.
         -1   -1    0    0    0  501 -0.00000000000E+00 -0.00000000000E+00 -0.14560661588E+04  0.14560661588E+04  0.50400000000E-02 0.  1.
    8880023    1    1    2    0    0 -0.87493565807E+03  0.72661495381E+03 -0.78971670643E+03  0.15332789634E+04  0.65864270000E+03 0.  0.
    8880022    1    1    2    0    0  0.87493565807E+03 -0.72661495381E+03  0.82306147803E+03  0.14121981258E+04  0.15294330000E+03 0.  0.
<mgrwt>
<rscale>  0 0.12704429E+04</rscale>
<asrwt>0</asrwt>
<pdfrwt beam="1">  1        1 0.22914014E+00 0.13142648E+04</pdfrwt>
<pdfrwt beam="2">  1       -1 0.22401018E+00 0.13142648E+04</pdfrwt>
<totfact> 0.66514556E-01</totfact>
</mgrwt>
</event>
<event>
 4    1  0.2514307E-008  0.7656878E+03  0.7818608E-02  0.9790599E-01
          1   -1    0    0  501    0  0.00000000000E+00  0.00000000000E+00  0.24085231486E+04  0.24085231486E+04  0.50400000000E-02 0. -1.
         -1   -1    0    0    0  501 -0.00000000000E+00 -0.00000000000E+00 -0.46710282629E+03  0.46710282632E+03  0.50400000000E-02 0.  1.
    8880023    1    1    2    0    0 -0.29428168481E+03 -0.25664336321E+03 -0.11730740076E+03  0.77462168730E+03  0.65864270000E+03 0.  0.
    8880022    1    1    2    0    0  0.29428168481E+03  0.25664336321E+03  0.20587277231E+04  0.21010042876E+04  0.15294330000E+03 0.  0.
<mgrwt>
<rscale>  0 0.65869506E+03</rscale>
<asrwt>0</asrwt>
<pdfrwt beam="1">  1        1 0.37054203E+00 0.76568775E+03</pdfrwt>
<pdfrwt beam="2">  1       -1 0.71861973E-01 0.76568775E+03</pdfrwt>
<totfact> 0.32363849E+00</totfact>
</mgrwt>
</event>
<event>
 4    1  0.2514307E-008  0.1044414E+04  0.7818608E-02  0.9325626E-01
         -1   -1    0    0    0  501 -0.00000000000E+00  0.00000000000E+00  0.59176342353E+03  0.59176342355E+03  0.50400000000E-02 0.  1.
          1   -1    0    0  501    0  0.00000000000E+00 -0.00000000000E+00 -0.35293874290E+04  0.35293874290E+04  0.50400000000E-02 0. -1.
    8880023    1    1    2    0    0  0.72195912156E+03  0.36846451797E+03  0.26142524067E+02  0.10447414570E+04  0.65864270000E+03 0.  0.
    8880022    1    1    2    0    0 -0.72195912156E+03 -0.36846451797E+03 -0.29637665295E+04  0.30764093955E+04  0.15294330000E+03 0.  0.
<mgrwt>
<rscale>  0 0.98457493E+03</rscale>
<asrwt>0</asrwt>
<pdfrwt beam="1">  1        1 0.54298267E+00 0.10444143E+04</pdfrwt>
<pdfrwt beam="2">  1       -1 0.91040528E-01 0.10444143E+04</pdfrwt>
<totfact> 0.28784167E-01</totfact>
</mgrwt>
</event>
<event>
 4    1  0.2514307E-008  0.6831412E+03  0.7818608E-02  0.1007600E+00
         -1   -1    0    0    0  501 -0.00000000000E+00  0.00000000000E+00  0.16214274839E+04  0.16214274839E+04  0.50400000000E-02 0.  1.
          1   -1    0    0  501    0  0.00000000000E+00 -0.00000000000E+00 -0.18824713738E+03  0.18824713745E+03  0.50400000000E-02 0. -1.
    8880023    1    1    2    0    0  0.81154552922E+02  0.16212834247E+03  0.14156111581E+04  0.15718259503E+04  0.65864270000E+03 0.  1.
    8880022    1    1    2    0    0 -0.81154552922E+02 -0.16212834247E+03  0.17569188361E+02  0.23784867098E+03  0.15294330000E+03 0.  0.
<mgrwt>
<rscale>  0 0.52439798E+03</rscale>
<asrwt>0</asrwt>
<pdfrwt beam="1">  1        1 0.28961098E-01 0.68314118E+03</pdfrwt>
<pdfrwt beam="2">  1       -1 0.24945038E+00 0.68314118E+03</pdfrwt>
<totfact> 0.11795133E+01</totfact>
</mgrwt>
</event>
<event>
 4    1  0.2514307E-008  0.1234641E+04  0.7818608E-02  0.9124163E-01
          1   -1    0    0  501    0  0.00000000000E+00  0.00000000000E+00  0.66941643748E+03  0.66941643750E+03  0.50400000000E-02 0. -1.
         -1   -1    0    0    0  501 -0.00000000000E+00 -0.00000000000E+00 -0.21052960612E+04  0.21052960612E+04  0.50400000000E-02 0.  1.
    8880023    1    1    2    0    0  0.99443619851E+03 -0.31878694907E+03 -0.11354189063E+04  0.16773535021E+04  0.65864270000E+03 0.  0.
    8880022    1    1    2    0    0 -0.99443619851E+03  0.31878694907E+03 -0.30046071742E+03  0.10973589967E+04  0.15294330000E+03 0.  0.
<mgrwt>
<rscale>  0 0.11871683E+04</rscale>
<asrwt>0</asrwt>
<pdfrwt beam="1">  1        1 0.10298715E+00 0.12346411E+04</pdfrwt>
<pdfrwt beam="2">  1       -1 0.32389170E+00 0.12346411E+04</pdfrwt>
<totfact> 0.66346824E-01</totfact>
</mgrwt>
</event>
<event>
 4    1  0.2514307E-008  0.1037538E+04  0.7818608E-02  0.9334014E-01
          1   -1    0    0  501    0  0.00000000000E+00  0.00000000000E+00  0.12276409998E+04  0.12276409998E+04  0.50400000000E-02 0. -1.
         -1   -1    0    0    0  501 -0.00000000000E+00 -0.00000000000E+00 -0.10183386559E+04  0.10183386559E+04  0.50400000000E-02 0.  1.
    8880023    1    1    2    0    0 -0.27200683769E+03  0.75411416015E+03 -0.51181292574E+03  0.11569090558E+04  0.65864270000E+03 0.  1.
    8880022    1    1    2    0    0  0.27200683769E+03 -0.75411416015E+03  0.72111526970E+03  0.10890705999E+04  0.15294330000E+03 0.  0.
<mgrwt>
<rscale>  0 0.97710884E+03</rscale>
<asrwt>0</asrwt>
<pdfrwt beam="1">  1        1 0.18886785E+00 0.10375385E+04</pdfrwt>
<pdfrwt beam="2">  1       -1 0.15666749E+00 0.10375385E+04</pdfrwt>
<totfact> 0.31574464E+00</totfact>
</mgrwt>
</event>
<event>
 4    1  0.2514307E-008  0.7633693E+03  0.7818608E-02  0.9796461E-01
          1   -1    0    0  501    0  0.00000000000E+00  0.00000000000E+00  0.27884461817E+04  0.27884461817E+04  0.50400000000E-02 0. -1.
         -1   -1    0    0    0  501 -0.00000000000E+00 -0.00000000000E+00 -0.91369102149E+03  0.91369102150E+03  0.50400000000E-02 0.  1.
    8880023    1    1    2    0    0  0.12085483111E+03  0.36649234550E+03 -0.73492729709E+03  0.10596465768E+04  0.65864270000E+03 0.  1.
    8880022    1    1    2    0    0 -0.12085483111E+03 -0.36649234550E+03  0.26096824573E+04  0.26424906264E+04  0.15294330000E+03 0.  0.
<mgrwt>
<rscale>  0 0.65552787E+03</rscale>
<asrwt>0</asrwt>
<pdfrwt beam="1">  1        1 0.42899172E+00 0.76336933E+03</pdfrwt>
<pdfrwt beam="2">  1       -1 0.14056785E+00 0.76336933E+03</pdfrwt>
<totfact> 0.37888403E-01</totfact>
</mgrwt>
</event>
<event>
 4    1  0.2514307E-008  0.7416595E+03  0.7818608E-02  0.9855139E-01
          1   -1    0    0  501    0  0.00000000000E+00  0.00000000000E+00  0.12824643951E+04  0.12824643951E+04  0.50400000000E-02 0. -1.
         -1   -1    0    0    0  501 -0.00000000000E+00 -0.00000000000E+00 -0.12640684190E+04  0.12640684190E+04  0.50400000000E-02 0.  1.
    8880023    1    1    2    0    0 -0.23705314979E+03  0.24505995015E+03 -0.11228425882E+04  0.13456724189E+04  0.65864270000E+03 0.  1.
    8880022    1    1    2    0    0  0.23705314979E+03 -0.24505995015E+03  0.11412385643E+04  0.12008603951E+04  0.15294330000E+03 0.  0.
<mgrwt>
<rscale>  0 0.62485569E+03</rscale>
<asrwt>0</asrwt>
<pdfrwt beam="1">  1        1 0.19730221E+00 0.74165948E+03</pdfrwt>
<pdfrwt beam="2">  1       -1 0.19447206E+00 0.74165948E+03</pdfrwt>
<totfact> 0.16057015E+00</totfact>
</mgrwt>
</event>
<event>
 4    1  0.2514307E-008  0.1164151E+04  0.7818608E-02  0.9192783E-01
          1   -1    0    0  501    0  0.00000000000E+00  0.00000000000E+00  0.11967243513E+04  0.11967243513E+04  0.50400000000E-02 0. -1.
         -1   -1    0    0    0  501 -0.00000000000E+00 -0.00000000000E+00 -0.15966748622E+04  0.15966748622E+04  0.50400000000E-02 0.  1.
    8880023    1    1    2    0    0 -0.53016518971E+03  0.80022645590E+03 -0.10951836722E+04  0.15983350685E+04  0.65864270000E+03 0.  0.
    8880022    1    1    2    0    0  0.53016518971E+03 -0.80022645590E+03  0.69523316132E+03  0.11950641450E+04  0.15294330000E+03 0.  0.
<mgrwt>
<rscale>  0 0.11128232E+04</rscale>
<asrwt>0</asrwt>
<pdfrwt beam="1">  1        1 0.18411144E+00 0.11641511E+04</pdfrwt>
<pdfrwt beam="2">  1       -1 0.24564229E+00 0.11641511E+04</pdfrwt>
<totfact> 0.78848293E-01</totfact>
</mgrwt>
</event>
<event>
 4    1  0.2514307E-008  0.7016218E+03  0.7818608E-02  0.9990539E-01
          1   -1    0    0  501    0  0.00000000000E+00  0.00000000000E+00  0.15658833627E+04  0.15658833627E+04  0.50400000000E-02 0. -1.
         -1   -1    0    0    0  501 -0.00000000000E+00 -0.00000000000E+00 -0.22138376459E+03  0.22138376465E+03  0.50400000000E-02 0.  1.
    8880023    1    1    2    0    0  0.20182846009E+03  0.13314727087E+03  0.41597563056E+03  0.81566467039E+03  0.65864270000E+03 0.  0.
    8880022    1    1    2    0    0 -0.20182846009E+03 -0.13314727087E+03  0.92852396752E+03  0.97160245693E+03  0.15294330000E+03 0.  0.
<mgrwt>
<rscale>  0 0.56067045E+03</rscale>
<asrwt>0</asrwt>
<pdfrwt beam="1">  1        1 0.24090514E+00 0.70162179E+03</pdfrwt>
<pdfrwt beam="2">  1       -1 0.34059040E-01 0.70162179E+03</pdfrwt>
<totfact> 0.49642802E+01</totfact>
</mgrwt>
</event>
<event>
 4    1  0.2514307E-008  0.7367985E+03  0.7818608E-02  0.9869373E-01
         -1   -1    0    0    0  501 -0.00000000000E+00  0.00000000000E+00  0.35059706565E+03  0.35059706569E+03  0.50400000000E-02 0.  1.
          1   -1    0    0  501    0  0.00000000000E+00 -0.00000000000E+00 -0.26620118875E+04  0.26620118875E+04  0.50400000000E-02 0. -1.
    8880023    1    1    2    0    0  0.18788780826E+03  0.27158792372E+03 -0.68071958113E+02  0.73993636655E+03  0.65864270000E+03 0.  1.
    8880022    1    1    2    0    0 -0.18788780826E+03 -0.27158792372E+03 -0.22433428637E+04  0.22726725866E+04  0.15294330000E+03 0.  0.
<mgrwt>
<rscale>  0 0.61768844E+03</rscale>
<asrwt>0</asrwt>
<pdfrwt beam="1">  1        1 0.40954028E+00 0.73679850E+03</pdfrwt>
<pdfrwt beam="2">  1       -1 0.53938012E-01 0.73679850E+03</pdfrwt>
<totfact> 0.38612984E+00</totfact>
</mgrwt>
</event>
<event>
 4    1  0.2514307E-008  0.8529658E+03  0.7818608E-02  0.9606201E-01
          1   -1    0    0  501    0  0.00000000000E+00  0.00000000000E+00  0.20037163621E+04  0.20037163621E+04  0.50400000000E-02 0. -1.
         -1   -1    0    0    0  501 -0.00000000000E+00 -0.00000000000E+00 -0.78247805871E+03  0.78247805872E+03  0.50400000000E-02 0.  1.
    8880023    1    1    2    0    0  0.51040421572E+03  0.18228525805E+03 -0.49067921151E+03  0.98403082960E+03  0.65864270000E+03 0.  0.
    8880022    1    1    2    0    0 -0.51040421572E+03 -0.18228525805E+03  0.17119175149E+04  0.18021635912E+04  0.15294330000E+03 0.  0.
<mgrwt>
<rscale>  0 0.76887141E+03</rscale>
<asrwt>0</asrwt>
<pdfrwt beam="1">  1        1 0.30826405E+00 0.85296576E+03</pdfrwt>
<pdfrwt beam="2">  1       -1 0.12038124E+00 0.85296576E+03</pdfrwt>
<totfact> 0.18833806E+00</totfact>
</mgrwt>
</event>
<event>
 4    1  0.2514307E-008  0.8086960E+03  0.7818608E-02  0.9692300E-01
         -1   -1    0    0    0  501 -0.00000000000E+00  0.00000000000E+00  0.30445077846E+03  0.30445077850E+03  0.50400000000E-02 0.  1.
          1   -1    0    0  501    0  0.00000000000E+00 -0.00000000000E+00 -0.18383448100E+04  0.18383448100E+04  0.50400000000E-02 0. -1.
    8880023    1    1    2    0    0  0.23196721765E+03  0.40788499692E+03 -0.39175558441E+03  0.89858867395E+03  0.65864270000E+03 0.  0.
    8880022    1    1    2    0    0 -0.23196721765E+03 -0.40788499692E+03 -0.11421384472E+04  0.12442069146E+04  0.15294330000E+03 0.  0.
<mgrwt>
<rscale>  0 0.71477124E+03</rscale>
<asrwt>0</asrwt>
<pdfrwt beam="1">  1        1 0.28282227E+00 0.80869597E+03</pdfrwt>
<pdfrwt beam="2">  1       -1 0.46838583E-01 0.80869597E+03</pdfrwt>
<totfact> 0.17975834E+01</totfact>
</mgrwt>
</event>
<event>
 4    1  0.2514307E-008  0.7319795E+03  0.7818608E-02  0.9883958E-01
          1   -1    0    0  501    0  0.00000000000E+00  0.00000000000E+00  0.99056669403E+03  0.99056669404E+03  0.50400000000E-02 0. -1.
         -1   -1    0    0    0  501 -0.00000000000E+00 -0.00000000000E+00 -0.73000579554E+03  0.73000579556E+03  0.50400000000E-02 0.  1.
    8880023    1    1    2    0    0 -0.31353515741E+03  0.60658599082E+02 -0.49671717990E+03  0.88460269254E+03  0.65864270000E+03 0.  1.
    8880022    1    1    2    0    0  0.31353515741E+03 -0.60658599082E+02  0.75727807839E+03  0.83596979706E+03  0.15294330000E+03 0.  0.
<mgrwt>
<rscale>  0 0.61045089E+03</rscale>
<asrwt>0</asrwt>
<pdfrwt beam="1">  1        1 0.15239488E+00 0.73197949E+03</pdfrwt>
<pdfrwt beam="2">  1       -1 0.11230858E+00 0.73197949E+03</pdfrwt>
<totfact> 0.11564154E+01</totfact>
</mgrwt>
</event>
<event>
 4    1  0.2514307E-008  0.1041972E+04  0.7818608E-02  0.9328594E-01
         -1   -1    0    0    0  501 -0.00000000000E+00  0.00000000000E+00  0.11385936058E+04  0.11385936058E+04  0.50400000000E-02 0.  1.
          1   -1    0    0  501    0  0.00000000000E+00 -0.00000000000E+00 -0.13528534225E+04  0.13528534225E+04  0.50400000000E-02 0. -1.
    8880023    1    1    2    0    0 -0.68118484394E+03  0.43345538979E+03 -0.93381152581E+03  0.13991820963E+04  0.65864270000E+03 0. -1.
    8880022    1    1    2    0    0  0.68118484394E+03 -0.43345538979E+03  0.71955170917E+03  0.10922649320E+04  0.15294330000E+03 0.  0.
<mgrwt>
<rscale>  0 0.98192497E+03</rscale>
<asrwt>0</asrwt>
<pdfrwt beam="1">  1        1 0.20813130E+00 0.10419724E+04</pdfrwt>
<pdfrwt beam="2">  1       -1 0.17516825E+00 0.10419724E+04</pdfrwt>
<totfact> 0.18694334E+00</totfact>
</mgrwt>
</event>
<event>
 4    1  0.2514307E-008  0.1098097E+04  0.7818608E-02  0.9263177E-01
         -1   -1    0    0    0  501 -0.00000000000E+00  0.00000000000E+00  0.84234031959E+03  0.84234031961E+03  0.50400000000E-02 0.  1.
          1   -1    0    0  501    0  0.00000000000E+00 -0.00000000000E+00 -0.16347847718E+04  0.16347847718E+04  0.50400000000E-02 0. -1.
    8880023    1    1    2    0    0 -0.76174870393E+03 -0.43788870506E+03 -0.10798624091E+04  0.15401040987E+04  0.65864270000E+03 0.  0.
    8880022    1    1    2    0    0  0.76174870393E+03  0.43788870506E+03  0.28741795684E+03  0.93702099277E+03  0.15294330000E+03 0.  0.
<mgrwt>
<rscale>  0 0.10424465E+04</rscale>
<asrwt>0</asrwt>
<pdfrwt beam="1">  1        1 0.25150535E+00 0.10980974E+04</pdfrwt>
<pdfrwt beam="2">  1       -1 0.12959082E+00 0.10980974E+04</pdfrwt>
<totfact> 0.26840764E+00</totfact>
</mgrwt>
</event>
<event>
 4    1  0.2514307E-008  0.9166843E+03  0.7818608E-02  0.9499762E-01
         -1   -1    0    0    0  501 -0.00000000000E+00  0.00000000000E+00  0.56939327004E+03  0.56939327006E+03  0.50400000000E-02 0.  1.
          1   -1    0    0  501    0  0.00000000000E+00 -0.00000000000E+00 -0.32252085339E+04  0.32252085339E+04  0.50400000000E-02 0. -1.
    8880023    1    1    2    0    0  0.34557421211E+03  0.53579692053E+03  0.13609867132E+03  0.92673239435E+03  0.65864270000E+03 0.  0.
    8880022    1    1    2    0    0 -0.34557421211E+03 -0.53579692053E+03 -0.27919139352E+04  0.28678694096E+04  0.15294330000E+03 0.  0.
<mgrwt>
<rscale>  0 0.84301383E+03</rscale>
<asrwt>0</asrwt>
<pdfrwt beam="1">  1        1 0.49618592E+00 0.91668429E+03</pdfrwt>
<pdfrwt beam="2">  1       -1 0.87598966E-01 0.91668429E+03</pdfrwt>
<totfact> 0.54729369E-01</totfact>
</mgrwt>
</event>
<event>
 4    1  0.2514307E-008  0.8250721E+03  0.7818608E-02  0.9658998E-01
          1   -1    0    0  501    0  0.00000000000E+00  0.00000000000E+00  0.13254360447E+04  0.13254360447E+04  0.50400000000E-02 0. -1.
         -1   -1    0    0    0  501 -0.00000000000E+00 -0.00000000000E+00 -0.53809639076E+03  0.53809639078E+03  0.50400000000E-02 0.  1.
    8880023    1    1    2    0    0 -0.42333070373E+03 -0.26023989974E+03 -0.10403487311E+03  0.83160516546E+03  0.65864270000E+03 0.  0.
    8880022    1    1    2    0    0  0.42333070373E+03  0.26023989974E+03  0.89137452707E+03  0.10319272700E+04  0.15294330000E+03 0.  0.
<mgrwt>
<rscale>  0 0.73511410E+03</rscale>
<asrwt>0</asrwt>
<pdfrwt beam="1">  1        1 0.20391324E+00 0.82507206E+03</pdfrwt>
<pdfrwt beam="2">  1       -1 0.82784060E-01 0.82507206E+03</pdfrwt>
<totfact> 0.12884972E+01</totfact>
</mgrwt>
</event>
<event>
 4    1  0.2514307E-008  0.9890073E+03  0.7818608E-02  0.9396083E-01
         -1   -1    0    0    0  501 -0.00000000000E+00  0.00000000000E+00  0.95017690794E+03  0.95017690795E+03  0.50400000000E-02 0.  1.
          1   -1    0    0  501    0  0.00000000000E+00 -0.00000000000E+00 -0.14993732737E+04  0.14993732737E+04  0.50400000000E-02 0. -1.
    8880023    1    1    2    0    0  0.61739122692E+03  0.40392241585E+03  0.53870361092E+03  0.11262047024E+04  0.65864270000E+03 0.  1.
    8880022    1    1    2    0    0 -0.61739122692E+03 -0.40392241585E+03 -0.10878999767E+04  0.13233454793E+04  0.15294330000E+03 0.  0.
<mgrwt>
<rscale>  0 0.92398751E+03</rscale>
<asrwt>0</asrwt>
<pdfrwt beam="1">  1        1 0.23067281E+00 0.98900731E+03</pdfrwt>
<pdfrwt beam="2">  1       -1 0.14618106E+00 0.98900731E+03</pdfrwt>
<totfact> 0.24655963E+00</totfact>
</mgrwt>
</event>
<event>
 4    1  0.2514307E-008  0.8443843E+03  0.7818608E-02  0.9621968E-01
         -1   -1    0    0    0  501 -0.00000000000E+00  0.00000000000E+00  0.64909464402E+03  0.64909464404E+03  0.50400000000E-02 0.  1.
          1   -1    0    0  501    0  0.00000000000E+00 -0.00000000000E+00 -0.18209801124E+04  0.18209801124E+04  0.50400000000E-02 0. -1.
    8880023    1    1    2    0    0  0.51286921277E+03 -0.12704231404E+03  0.30209897682E+03  0.89679907283E+03  0.65864270000E+03 0.  0.
    8880022    1    1    2    0    0 -0.51286921277E+03  0.12704231404E+03 -0.14739844452E+04  0.15732756836E+04  0.15294330000E+03 0.  0.
<mgrwt>
<rscale>  0 0.75859095E+03</rscale>
<asrwt>0</asrwt>
<pdfrwt beam="1">  1        1 0.28015078E+00 0.84438426E+03</pdfrwt>
<pdfrwt beam="2">  1       -1 0.99860715E-01 0.84438426E+03</pdfrwt>
<totfact> 0.38888505E+00</totfact>
</mgrwt>
</event>
<event>
 4    1  0.2514307E-008  0.8657629E+03  0.7818608E-02  0.9583393E-01
         -1   -1    0    0    0  501 -0.00000000000E+00  0.00000000000E+00  0.17715208307E+04  0.17715208307E+04  0.50400000000E-02 0.  1.
          1   -1    0    0  501    0  0.00000000000E+00 -0.00000000000E+00 -0.13860077439E+04  0.13860077439E+04  0.50400000000E-02 0. -1.
    8880023    1    1    2    0    0 -0.31777217361E+03  0.46341778699E+03  0.15951845035E+04  0.18149818198E+04  0.65864270000E+03 0.  0.
    8880022    1    1    2    0    0  0.31777217361E+03 -0.46341778699E+03 -0.12096714167E+04  0.13425467548E+04  0.15294330000E+03 0.  0.
<mgrwt>
<rscale>  0 0.78405134E+03</rscale>
<asrwt>0</asrwt>
<pdfrwt beam="1">  1        1 0.21323196E+00 0.86576290E+03</pdfrwt>
<pdfrwt beam="2">  1       -1 0.27254167E+00 0.86576290E+03</pdfrwt>
<totfact> 0.40571981E-01</totfact>
</mgrwt>
</event>
<event>
 4    1  0.2514307E-008  0.9897192E+03  0.7818608E-02  0.9395133E-01
          1   -1    0    0  501    0  0.00000000000E+00  0.00000000000E+00  0.18962019435E+04  0.18962019435E+04  0.50400000000E-02 0. -1.
         -1   -1    0    0    0  501 -0.00000000000E+00 -0.00000000000E+00 -0.83843046971E+03  0.83843046973E+03  0.50400000000E-02 0.  1.
    8880023    1    1    2    0    0 -0.54963227745E+03  0.49359723948E+03 -0.42022413181E+03  0.10752359752E+04  0.65864270000E+03 0.  1.
    8880022    1    1    2    0    0  0.54963227745E+03 -0.49359723948E+03  0.14779956056E+04  0.16593964380E+04  0.15294330000E+03 0.  0.
<mgrwt>
<rscale>  0 0.92477270E+03</rscale>
<asrwt>0</asrwt>
<pdfrwt beam="1">  1        1 0.29172338E+00 0.98971919E+03</pdfrwt>
<pdfrwt beam="2">  1       -1 0.12898930E+00 0.98971919E+03</pdfrwt>
<totfact> 0.18330612E+00</totfact>
</mgrwt>
</event>
<event>
 4    1  0.2514307E-008  0.7638447E+03  0.7818608E-02  0.9795254E-01
         -1   -1    0    0    0  501 -0.00000000000E+00  0.00000000000E+00  0.59076517201E+03  0.59076517203E+03  0.50400000000E-02 0.  1.
          1   -1    0    0  501    0  0.00000000000E+00 -0.00000000000E+00 -0.11193056515E+04  0.11193056515E+04  0.50400000000E-02 0. -1.
    8880023    1    1    2    0    0  0.23559837225E+03 -0.30682558576E+03  0.26960519632E+03  0.81002821014E+03  0.65864270000E+03 0.  1.
    8880022    1    1    2    0    0 -0.23559837225E+03  0.30682558576E+03 -0.79814567577E+03  0.90004261335E+03  0.15294330000E+03 0.  0.
<mgrwt>
<rscale>  0 0.65617877E+03</rscale>
<asrwt>0</asrwt>
<pdfrwt beam="1">  1        1 0.17220087E+00 0.76384471E+03</pdfrwt>
<pdfrwt beam="2">  1       -1 0.90886950E-01 0.76384471E+03</pdfrwt>
<totfact> 0.14927284E+01</totfact>
</mgrwt>
</event>
<event>
 4    1  0.2514307E-008  0.7067619E+03  0.7818608E-02  0.9970228E-01
          1   -1    0    0  501    0  0.00000000000E+00  0.00000000000E+00  0.35074881353E+03  0.35074881357E+03  0.50400000000E-02 0. -1.
         -1   -1    0    0    0  501 -0.00000000000E+00 -0.00000000000E+00 -0.20966417758E+04  0.20966417758E+04  0.50400000000E-02 0.  1.
    8880023    1    1    2    0    0  0.21380273933E+03  0.14138804930E+03 -0.19577133958E+04  0.20813827467E+04  0.65864270000E+03 0.  1.
    8880022    1    1    2    0    0 -0.21380273933E+03 -0.14138804930E+03  0.21182043354E+03  0.36600784268E+03  0.15294330000E+03 0.  0.
<mgrwt>
<rscale>  0 0.56975194E+03</rscale>
<asrwt>0</asrwt>
<pdfrwt beam="1">  1        1 0.53961357E-01 0.70676191E+03</pdfrwt>
<pdfrwt beam="2">  1       -1 0.32256027E+00 0.70676191E+03</pdfrwt>
<totfact> 0.17878788E+00</totfact>
</mgrwt>
</event>
<event>
 4    1  0.2514307E-008  0.6731058E+03  0.7818608E-02  0.1013528E+00
          1   -1    0    0  501    0  0.00000000000E+00  0.00000000000E+00  0.25491339891E+04  0.25491339891E+04  0.50400000000E-02 0. -1.
         -1   -1    0    0    0  501 -0.00000000000E+00 -0.00000000000E+00 -0.15286602390E+04  0.15286602390E+04  0.50400000000E-02 0.  1.
    8880023    1    1    2    0    0 -0.82830201203E+01  0.13853760744E+03 -0.14500459547E+04  0.15986571721E+04  0.65864270000E+03 0.  1.
    8880022    1    1    2    0    0  0.82830201203E+01 -0.13853760744E+03  0.24705197048E+04  0.24791370559E+04  0.15294330000E+03 0.  0.
<mgrwt>
<rscale>  0 0.50096355E+03</rscale>
<asrwt>0</asrwt>
<pdfrwt beam="1">  1        1 0.39217446E+00 0.67310585E+03</pdfrwt>
<pdfrwt beam="2">  1       -1 0.23517850E+00 0.67310585E+03</pdfrwt>
<totfact> 0.12133063E-01</totfact>
</mgrwt>
</event>
<event>
 4    1  0.2514307E-008  0.6719142E+03  0.7818608E-02  0.1014326E+00
          1   -1    0    0  501    0  0.00000000000E+00  0.00000000000E+00  0.72424998714E+03  0.72424998716E+03  0.50400000000E-02 0. -1.
         -1   -1    0    0    0  501 -0.00000000000E+00 -0.00000000000E+00 -0.33558390096E+03  0.33558390099E+03  0.50400000000E-02 0.  1.
    8880023    1    1    2    0    0  0.60852254893E+02  0.11813345780E+03  0.61119176242E+02  0.67468827672E+03  0.65864270000E+03 0.  1.
    8880022    1    1    2    0    0 -0.60852254893E+02 -0.11813345780E+03  0.32754690994E+03  0.38514561143E+03  0.15294330000E+03 0.  0.
<mgrwt>
<rscale>  0 0.49790872E+03</rscale>
<asrwt>0</asrwt>
<pdfrwt beam="1">  1        1 0.11142307E+00 0.67191422E+03</pdfrwt>
<pdfrwt beam="2">  1       -1 0.51628293E-01 0.67191422E+03</pdfrwt>
<totfact> 0.10001839E+02</totfact>
</mgrwt>
</event>
<event>
 4    1  0.2514307E-008  0.1769553E+04  0.7818608E-02  0.8739568E-01
         -1   -1    0    0    0  501 -0.00000000000E+00  0.00000000000E+00  0.13044898819E+04  0.13044898819E+04  0.50400000000E-02 0.  1.
          1   -1    0    0  501    0  0.00000000000E+00 -0.00000000000E+00 -0.25566713770E+04  0.25566713770E+04  0.50400000000E-02 0. -1.
    8880023    1    1    2    0    0  0.15461364581E+04 -0.55404854492E+03 -0.13240618829E+04  0.22100809518E+04  0.65864270000E+03 0.  0.
    8880022    1    1    2    0    0 -0.15461364581E+04  0.55404854492E+03  0.71880387792E+02  0.16510803071E+04  0.15294330000E+03 0.  0.
<mgrwt>
<rscale>  0 0.17387484E+04</rscale>
<asrwt>0</asrwt>
<pdfrwt beam="1">  1        1 0.39333406E+00 0.17695530E+04</pdfrwt>
<pdfrwt beam="2">  1       -1 0.20069075E+00 0.17695530E+04</pdfrwt>
<totfact> 0.16890098E-01</totfact>
</mgrwt>
</event>
<event>
 4    1  0.2514307E-008  0.1133003E+04  0.7818608E-02  0.9225172E-01
         -1   -1    0    0    0  501 -0.00000000000E+00  0.00000000000E+00  0.10653962070E+04  0.10653962070E+04  0.50400000000E-02 0.  1.
          1   -1    0    0  501    0  0.00000000000E+00 -0.00000000000E+00 -0.14538525669E+04  0.14538525669E+04  0.50400000000E-02 0. -1.
    8880023    1    1    2    0    0 -0.90279910882E+03 -0.18665167260E+03  0.49209313578E+03  0.12352533903E+04  0.65864270000E+03 0.  0.
    8880022    1    1    2    0    0  0.90279910882E+03  0.18665167260E+03 -0.88054949569E+03  0.12839953836E+04  0.15294330000E+03 0.  0.
<mgrwt>
<rscale>  0 0.10797351E+04</rscale>
<asrwt>0</asrwt>
<pdfrwt beam="1">  1        1 0.22366962E+00 0.11330028E+04</pdfrwt>
<pdfrwt beam="2">  1       -1 0.16390711E+00 0.11330028E+04</pdfrwt>
<totfact> 0.19008551E+00</totfact>
</mgrwt>
</event>
<event>
 4    1  0.2514307E-008  0.8307487E+03  0.7818608E-02  0.9647877E-01
         -1   -1    0    0    0  501 -0.00000000000E+00  0.00000000000E+00  0.86319196387E+03  0.86319196389E+03  0.50400000000E-02 0.  1.
          1   -1    0    0  501    0  0.00000000000E+00 -0.00000000000E+00 -0.18860146209E+04  0.18860146209E+04  0.50400000000E-02 0. -1.
    8880023    1    1    2    0    0 -0.42795682880E+03  0.27052933471E+03  0.61143246144E+03  0.10315003778E+04  0.65864270000E+03 0.  1.
    8880022    1    1    2    0    0  0.42795682880E+03 -0.27052933471E+03 -0.16342551185E+04  0.17177062070E+04  0.15294330000E+03 0.  0.
<mgrwt>
<rscale>  0 0.74206786E+03</rscale>
<asrwt>0</asrwt>
<pdfrwt beam="1">  1        1 0.29015610E+00 0.83074868E+03</pdfrwt>
<pdfrwt beam="2">  1       -1 0.13279876E+00 0.83074868E+03</pdfrwt>
<totfact> 0.17748104E+00</totfact>
</mgrwt>
</event>
<event>
 4    1  0.2514307E-008  0.1202318E+04  0.7818608E-02  0.9154872E-01
         -1   -1    0    0    0  501 -0.00000000000E+00  0.00000000000E+00  0.10538888786E+04  0.10538888786E+04  0.50400000000E-02 0.  1.
          1   -1    0    0  501    0  0.00000000000E+00 -0.00000000000E+00 -0.19168930523E+04  0.19168930523E+04  0.50400000000E-02 0. -1.
    8880023    1    1    2    0    0  0.38249130165E+03 -0.93030065117E+03  0.47254022585E+03  0.12918449476E+04  0.65864270000E+03 0.  0.
    8880022    1    1    2    0    0 -0.38249130165E+03  0.93030065117E+03 -0.13355443996E+04  0.16789369832E+04  0.15294330000E+03 0.  0.
<mgrwt>
<rscale>  0 0.11531612E+04</rscale>
<asrwt>0</asrwt>
<pdfrwt beam="1">  1        1 0.29490662E+00 0.12023182E+04</pdfrwt>
<pdfrwt beam="2">  1       -1 0.16213675E+00 0.12023182E+04</pdfrwt>
<totfact> 0.93789027E-01</totfact>
</mgrwt>
</event>
<event>
 4    1  0.2514307E-008  0.6609791E+03  0.7818608E-02  0.1023175E+00
         -1   -1    0    0    0  501 -0.00000000000E+00  0.00000000000E+00  0.49232682937E+03  0.49232682939E+03  0.50400000000E-02 0.  1.
          1   -1    0    0  501    0  0.00000000000E+00 -0.00000000000E+00 -0.21313351881E+04  0.21313351881E+04  0.50400000000E-02 0. -1.
    8880023    1    1    2    0    0 -0.12334542628E+02  0.54139144675E+02  0.26543210888E+03  0.71228336961E+03  0.65864270000E+03 0.  1.
    8880022    1    1    2    0    0  0.12334542628E+02 -0.54139144675E+02 -0.19044404676E+04  0.19113786479E+04  0.15294330000E+03 0.  0.
<mgrwt>
<rscale>  0 0.46558071E+03</rscale>
<asrwt>0</asrwt>
<pdfrwt beam="1">  1        1 0.32789772E+00 0.66097912E+03</pdfrwt>
<pdfrwt beam="2">  1       -1 0.75742590E-01 0.66097912E+03</pdfrwt>
<totfact> 0.45507518E+00</totfact>
</mgrwt>
</event>
<event>
 4    1  0.2514307E-008  0.7165188E+03  0.7818608E-02  0.9934546E-01
         -1   -1    0    0    0  501 -0.00000000000E+00  0.00000000000E+00  0.57051863693E+03  0.57051863695E+03  0.50400000000E-02 0.  1.
          1   -1    0    0  501    0  0.00000000000E+00 -0.00000000000E+00 -0.97116135281E+03  0.97116135283E+03  0.50400000000E-02 0. -1.
    8880023    1    1    2    0    0  0.23435359455E+03 -0.15705855824E+03  0.29555535922E+03  0.77508204380E+03  0.65864270000E+03 0.  1.
    8880022    1    1    2    0    0 -0.23435359455E+03  0.15705855824E+03 -0.69619807510E+03  0.76659794598E+03  0.15294330000E+03 0.  0.
<mgrwt>
<rscale>  0 0.58615861E+03</rscale>
<asrwt>0</asrwt>
<pdfrwt beam="1">  1        1 0.14940944E+00 0.71651881E+03</pdfrwt>
<pdfrwt beam="2">  1       -1 0.87772098E-01 0.71651881E+03</pdfrwt>
<totfact> 0.21019933E+01</totfact>
</mgrwt>
</event>
<event>
 4    1  0.2514307E-008  0.6629901E+03  0.7818608E-02  0.1021283E+00
         -1   -1    0    0    0  501 -0.00000000000E+00  0.00000000000E+00  0.17205584039E+03  0.17205584047E+03  0.50400000000E-02 0.  1.
          1   -1    0    0  501    0  0.00000000000E+00 -0.00000000000E+00 -0.12970482339E+04  0.12970482339E+04  0.50400000000E-02 0. -1.
    8880023    1    1    2    0    0 -0.15409872400E+01  0.75784904159E+02 -0.52611899724E+03  0.84637883472E+03  0.65864270000E+03 0.  1.
    8880022    1    1    2    0    0  0.15409872400E+01 -0.75784904159E+02 -0.59887339625E+03  0.62272523964E+03  0.15294330000E+03 0.  0.
<mgrwt>
<rscale>  0 0.47226593E+03</rscale>
<asrwt>0</asrwt>
<pdfrwt beam="1">  1        1 0.19954588E+00 0.66299015E+03</pdfrwt>
<pdfrwt beam="2">  1       -1 0.26470130E-01 0.66299015E+03</pdfrwt>
<totfact> 0.11852091E+02</totfact>
</mgrwt>
</event>
<event>
 4    1  0.2514307E-008  0.9150048E+03  0.7818608E-02  0.9502361E-01
          1   -1    0    0  501    0  0.00000000000E+00  0.00000000000E+00  0.13847712355E+04  0.13847712355E+04  0.50400000000E-02 0. -1.
         -1   -1    0    0    0  501 -0.00000000000E+00 -0.00000000000E+00 -0.66001547783E+03  0.66001547785E+03  0.50400000000E-02 0.  1.
    8880023    1    1    2    0    0  0.68674395340E+02 -0.63143282405E+03 -0.17627570158E+03  0.93182987347E+03  0.65864270000E+03 0.  0.
    8880022    1    1    2    0    0 -0.68674395340E+02  0.63143282405E+03  0.90103145920E+03  0.11129568398E+04  0.15294330000E+03 0.  0.
<mgrwt>
<rscale>  0 0.84109978E+03</rscale>
<asrwt>0</asrwt>
<pdfrwt beam="1">  1        1 0.21304173E+00 0.91500480E+03</pdfrwt>
<pdfrwt beam="2">  1       -1 0.10154084E+00 0.91500480E+03</pdfrwt>
<totfact> 0.73541348E+00</totfact>
</mgrwt>
</event>
<event>
 4    1  0.2514307E-008  0.1158554E+04  0.7818608E-02  0.9198502E-01
         -1   -1    0    0    0  501 -0.00000000000E+00  0.00000000000E+00  0.53569339051E+03  0.53569339053E+03  0.50400000000E-02 0.  1.
          1   -1    0    0  501    0  0.00000000000E+00 -0.00000000000E+00 -0.34709860816E+04  0.34709860816E+04  0.50400000000E-02 0. -1.
    8880023    1    1    2    0    0 -0.86521013316E+03  0.39981189708E+03 -0.29509506242E+03  0.11955456619E+04  0.65864270000E+03 0.  0.
    8880022    1    1    2    0    0  0.86521013316E+03 -0.39981189708E+03 -0.26401976286E+04  0.28111338102E+04  0.15294330000E+03 0.  0.
<mgrwt>
<rscale>  0 0.11068898E+04</rscale>
<asrwt>0</asrwt>
<pdfrwt beam="1">  1        1 0.53399785E+00 0.11585544E+04</pdfrwt>
<pdfrwt beam="2">  1       -1 0.82414370E-01 0.11585544E+04</pdfrwt>
<totfact> 0.39002566E-01</totfact>
</mgrwt>
</event>
<event>
 4    1  0.2514307E-008  0.1903243E+04  0.7818608E-02  0.8667478E-01
         -1   -1    0    0    0  501 -0.00000000000E+00  0.00000000000E+00  0.20505225669E+04  0.20505225669E+04  0.50400000000E-02 0.  1.
          1   -1    0    0  501    0  0.00000000000E+00 -0.00000000000E+00 -0.20857048435E+04  0.20857048435E+04  0.50400000000E-02 0. -1.
    8880023    1    1    2    0    0  0.37304074059E+03 -0.17462423801E+04  0.91052657206E+03  0.21098319101E+04  0.65864270000E+03 0.  0.
    8880022    1    1    2    0    0 -0.37304074059E+03  0.17462423801E+04 -0.94570884869E+03  0.20263955003E+04  0.15294330000E+03 0.  0.
<mgrwt>
<rscale>  0 0.18748481E+04</rscale>
<asrwt>0</asrwt>
<pdfrwt beam="1">  1        1 0.32087767E+00 0.19032425E+04</pdfrwt>
<pdfrwt beam="2">  1       -1 0.31546501E+00 0.19032425E+04</pdfrwt>
<totfact> 0.61404735E-02</totfact>
</mgrwt>
</event>
<event>
 4    1  0.2908802E-008  0.1589114E+04  0.7818608E-02  0.8849145E-01
         -1   -1    0    0    0  501 -0.00000000000E+00  0.00000000000E+00  0.24593400691E+04  0.24593400691E+04  0.50400000000E-02 0.  1.
          1   -1    0    0  501    0  0.00000000000E+00 -0.00000000000E+00 -0.22108001103E+04  0.22108001103E+04  0.50400000000E-02 0. -1.
    8880023    1    1    2    0    0 -0.11495946508E+04 -0.87744173035E+03  0.18951827710E+04  0.24732569201E+04  0.65864270000E+03 0.  0.
    8880022    1    1    2    0    0  0.11495946508E+04  0.87744173035E+03 -0.16466428122E+04  0.21968832593E+04  0.15294330000E+03 0.  0.
<mgrwt>
<rscale>  0 0.15542701E+04</rscale>
<asrwt>0</asrwt>
<pdfrwt beam="1">  1        1 0.34012309E+00 0.15891136E+04</pdfrwt>
<pdfrwt beam="2">  1       -1 0.37836001E+00 0.15891136E+04</pdfrwt>
<totfact> 0.20042125E-02</totfact>
</mgrwt>
</event>
<event>
 4    1  0.2514307E-008  0.1674027E+04  0.7818608E-02  0.8795620E-01
         -1   -1    0    0    0  501 -0.00000000000E+00  0.00000000000E+00  0.15895426222E+04  0.15895426222E+04  0.50400000000E-02 0.  1.
          1   -1    0    0  501    0  0.00000000000E+00 -0.00000000000E+00 -0.32025910742E+04  0.32025910742E+04  0.50400000000E-02 0. -1.
    8880023    1    1    2    0    0 -0.14895726933E+04  0.38695006990E+03  0.85485124929E+03  0.18796643397E+04  0.65864270000E+03 0.  0.
    8880022    1    1    2    0    0  0.14895726933E+04 -0.38695006990E+03 -0.24678997013E+04  0.29124693568E+04  0.15294330000E+03 0.  0.
<mgrwt>
<rscale>  0 0.16412165E+04</rscale>
<asrwt>0</asrwt>
<pdfrwt beam="1">  1        1 0.49270632E+00 0.16740273E+04</pdfrwt>
<pdfrwt beam="2">  1       -1 0.24454502E+00 0.16740273E+04</pdfrwt>
<totfact> 0.29616178E-02</totfact>
</mgrwt>
</event>
<event>
 4    1  0.2514307E-008  0.6920293E+03  0.7818608E-02  0.1003203E+00
          1   -1    0    0  501    0  0.00000000000E+00  0.00000000000E+00  0.70557808417E+03  0.70557808419E+03  0.50400000000E-02 0. -1.
         -1   -1    0    0    0  501 -0.00000000000E+00 -0.00000000000E+00 -0.36530583898E+03  0.36530583901E+03  0.50400000000E-02 0.  1.
    8880023    1    1    2    0    0 -0.14974073206E+03 -0.15057233837E+03  0.71437835330E+02  0.69570675324E+03  0.65864270000E+03 0.  0.
    8880022    1    1    2    0    0  0.14974073206E+03  0.15057233837E+03  0.26883440986E+03  0.37517716996E+03  0.15294330000E+03 0.  0.
<mgrwt>
<rscale>  0 0.54267967E+03</rscale>
<asrwt>0</asrwt>
<pdfrwt beam="1">  1        1 0.10855047E+00 0.69202928E+03</pdfrwt>
<pdfrwt beam="2">  1       -1 0.56200898E-01 0.69202928E+03</pdfrwt>
<totfact> 0.88276950E+01</totfact>
</mgrwt>
</event>
<event>
 4    1  0.2514307E-008  0.7265732E+03  0.7818608E-02  0.9900941E-01
         -1   -1    0    0    0  501 -0.00000000000E+00  0.00000000000E+00  0.41188283272E+03  0.41188283275E+03  0.50400000000E-02 0.  1.
          1   -1    0    0  501    0  0.00000000000E+00 -0.00000000000E+00 -0.81908148650E+03  0.81908148652E+03  0.50400000000E-02 0. -1.
    8880023    1    1    2    0    0  0.28584223862E+03 -0.11132194837E+03 -0.38566524852E+02  0.72759600375E+03  0.65864270000E+03 0.  0.
    8880022    1    1    2    0    0 -0.28584223862E+03  0.11132194837E+03 -0.36863212893E+03  0.50336831551E+03  0.15294330000E+03 0.  0.
<mgrwt>
<rscale>  0 0.60215686E+03</rscale>
<asrwt>0</asrwt>
<pdfrwt beam="1">  1        1 0.12601254E+00 0.72657317E+03</pdfrwt>
<pdfrwt beam="2">  1       -1 0.63366590E-01 0.72657317E+03</pdfrwt>
<totfact> 0.55081035E+01</totfact>
</mgrwt>
</event>
<event>
 4    1  0.2514307E-008  0.9823261E+03  0.7818608E-02  0.9405055E-01
          1   -1    0    0  501    0  0.00000000000E+00  0.00000000000E+00  0.15056586610E+04  0.15056586610E+04  0.50400000000E-02 0. -1.
         -1   -1    0    0    0  501 -0.00000000000E+00 -0.00000000000E+00 -0.12203151979E+04  0.12203151979E+04  0.50400000000E-02 0.  1.
    8880023    1    1    2    0    0 -0.63306891526E+03  0.36107896104E+03 -0.89595291510E+03  0.13295473290E+04  0.65864270000E+03 0.  0.
    8880022    1    1    2    0    0  0.63306891526E+03 -0.36107896104E+03  0.11812963782E+04  0.13964265300E+04  0.15294330000E+03 0.  0.
<mgrwt>
<rscale>  0 0.91660862E+03</rscale>
<asrwt>0</asrwt>
<pdfrwt beam="1">  1        1 0.23163979E+00 0.98232605E+03</pdfrwt>
<pdfrwt beam="2">  1       -1 0.18774080E+00 0.98232605E+03</pdfrwt>
<totfact> 0.11993596E+00</totfact>
</mgrwt>
</event>
<event>
 4    1  0.2514307E-008  0.8924261E+03  0.7818608E-02  0.9538301E-01
          1   -1    0    0  501    0  0.00000000000E+00  0.00000000000E+00  0.52185802509E+03  0.52185802511E+03  0.50400000000E-02 0. -1.
         -1   -1    0    0    0  501 -0.00000000000E+00 -0.00000000000E+00 -0.14700332359E+04  0.14700332359E+04  0.50400000000E-02 0.  1.
    8880023    1    1    2    0    0 -0.39391075248E+03 -0.45546512126E+03 -0.10326951679E+04  0.13648749663E+04  0.65864270000E+03 0.  0.
    8880022    1    1    2    0    0  0.39391075248E+03  0.45546512126E+03  0.84519957142E+02  0.62701629466E+03  0.15294330000E+03 0.  0.
<mgrwt>
<rscale>  0 0.81517984E+03</rscale>
<asrwt>0</asrwt>
<pdfrwt beam="1">  1        1 0.80285851E-01 0.89242611E+03</pdfrwt>
<pdfrwt beam="2">  1       -1 0.22615896E+00 0.89242611E+03</pdfrwt>
<totfact> 0.42596560E+00</totfact>
</mgrwt>
</event>
<event>
 4    1  0.2514307E-008  0.6671689E+03  0.7818608E-02  0.1017779E+00
         -1   -1    0    0    0  501 -0.00000000000E+00  0.00000000000E+00  0.29647612265E+03  0.29647612269E+03  0.50400000000E-02 0.  1.
          1   -1    0    0  501    0  0.00000000000E+00 -0.00000000000E+00 -0.22946286142E+04  0.22946286142E+04  0.50400000000E-02 0. -1.
    8880023    1    1    2    0    0  0.98022702281E+02 -0.41179119433E+02 -0.89222472316E+02  0.67310848002E+03  0.65864270000E+03 0.  1.
    8880022    1    1    2    0    0 -0.98022702281E+02  0.41179119433E+02 -0.19089300193E+04  0.19179962569E+04  0.15294330000E+03 0.  0.
<mgrwt>
<rscale>  0 0.48496624E+03</rscale>
<asrwt>0</asrwt>
<pdfrwt beam="1">  1        1 0.35301978E+00 0.66716893E+03</pdfrwt>
<pdfrwt beam="2">  1       -1 0.45611713E-01 0.66716893E+03</pdfrwt>
<totfact> 0.95547021E+00</totfact>
</mgrwt>
</event>
<event>
 4    1  0.2514307E-008  0.1156778E+04  0.7818608E-02  0.9200327E-01
         -1   -1    0    0    0  501 -0.00000000000E+00  0.00000000000E+00  0.10054215739E+04  0.10054215740E+04  0.50400000000E-02 0.  1.
          1   -1    0    0  501    0  0.00000000000E+00 -0.00000000000E+00 -0.15782435578E+04  0.15782435578E+04  0.50400000000E-02 0. -1.
    8880023    1    1    2    0    0 -0.88877655328E+03  0.33823210323E+03  0.39099709543E+03  0.12210706991E+04  0.65864270000E+03 0.  0.
    8880022    1    1    2    0    0  0.88877655328E+03 -0.33823210323E+03 -0.96381907925E+03  0.13625944326E+04  0.15294330000E+03 0.  0.
<mgrwt>
<rscale>  0 0.11050053E+04</rscale>
<asrwt>0</asrwt>
<pdfrwt beam="1">  1        1 0.24280670E+00 0.11567778E+04</pdfrwt>
<pdfrwt beam="2">  1       -1 0.15468024E+00 0.11567778E+04</pdfrwt>
<totfact> 0.18276979E+00</totfact>
</mgrwt>
</event>
<event>
 4    1  0.2514307E-008  0.6822054E+03  0.7818608E-02  0.1008103E+00
         -1   -1    0    0    0  501 -0.00000000000E+00  0.00000000000E+00  0.40632050058E+03  0.40632050061E+03  0.50400000000E-02 0.  1.
          1   -1    0    0  501    0  0.00000000000E+00 -0.00000000000E+00 -0.85666835150E+03  0.85666835152E+03  0.50400000000E-02 0. -1.
    8880023    1    1    2    0    0 -0.11641978256E+03  0.13431463921E+03  0.76336506088E+02  0.68646300447E+03  0.65864270000E+03 0.  1.
    8880022    1    1    2    0    0  0.11641978256E+03 -0.13431463921E+03 -0.52668435701E+03  0.57652584766E+03  0.15294330000E+03 0.  0.
<mgrwt>
<rscale>  0 0.52235712E+03</rscale>
<asrwt>0</asrwt>
<pdfrwt beam="1">  1        1 0.13179513E+00 0.68220539E+03</pdfrwt>
<pdfrwt beam="2">  1       -1 0.62510846E-01 0.68220539E+03</pdfrwt>
<totfact> 0.52840171E+01</totfact>
</mgrwt>
</event>
<event>
 4    1  0.2514307E-008  0.1303747E+04  0.7818608E-02  0.9062331E-01
         -1   -1    0    0    0  501 -0.00000000000E+00  0.00000000000E+00  0.98352534060E+03  0.98352534062E+03  0.50400000000E-02 0.  1.
          1   -1    0    0  501    0  0.00000000000E+00 -0.00000000000E+00 -0.23677452231E+04  0.23677452231E+04  0.50400000000E-02 0. -1.
    8880023    1    1    2    0    0 -0.10904342853E+04  0.27730524192E+03  0.28299656852E+03  0.13341073390E+04  0.65864270000E+03 0.  0.
    8880022    1    1    2    0    0  0.10904342853E+04 -0.27730524192E+03 -0.16672164510E+04  0.20171632248E+04  0.15294330000E+03 0.  0.
<mgrwt>
<rscale>  0 0.12594783E+04</rscale>
<asrwt>0</asrwt>
<pdfrwt beam="1">  1        1 0.36426849E+00 0.13037467E+04</pdfrwt>
<pdfrwt beam="2">  1       -1 0.15131159E+00 0.13037467E+04</pdfrwt>
<totfact> 0.55382356E-01</totfact>
</mgrwt>
</event>
<event>
 4    1  0.2514307E-008  0.7248434E+03  0.7818608E-02  0.9906526E-01
          1   -1    0    0  501    0  0.00000000000E+00  0.00000000000E+00  0.10686397436E+04  0.10686397437E+04  0.50400000000E-02 0. -1.
         -1   -1    0    0    0  501 -0.00000000000E+00 -0.00000000000E+00 -0.66576358731E+03  0.66576358733E+03  0.50400000000E-02 0.  1.
    8880023    1    1    2    0    0 -0.11897327124E+03  0.27826807091E+03 -0.42466744976E+03  0.84008357186E+03  0.65864270000E+03 0.  1.
    8880022    1    1    2    0    0  0.11897327124E+03 -0.27826807091E+03  0.82754360609E+03  0.89431975912E+03  0.15294330000E+03 0.  0.
<mgrwt>
<rscale>  0 0.59946062E+03</rscale>
<asrwt>0</asrwt>
<pdfrwt beam="1">  1        1 0.16440611E+00 0.72484341E+03</pdfrwt>
<pdfrwt beam="2">  1       -1 0.10242517E+00 0.72484341E+03</pdfrwt>
<totfact> 0.12509543E+01</totfact>
</mgrwt>
</event>
<event>
 4    1  0.2514307E-008  0.7628186E+03  0.7818608E-02  0.9797864E-01
          1   -1    0    0  501    0  0.00000000000E+00  0.00000000000E+00  0.87959753880E+03  0.87959753882E+03  0.50400000000E-02 0. -1.
         -1   -1    0    0    0  501 -0.00000000000E+00 -0.00000000000E+00 -0.52967690963E+03  0.52967690965E+03  0.50400000000E-02 0.  1.
    8880023    1    1    2    0    0  0.17382928636E+03  0.34331524937E+03 -0.13170794706E+03  0.77410540034E+03  0.65864270000E+03 0.  1.
    8880022    1    1    2    0    0 -0.17382928636E+03 -0.34331524937E+03  0.48162857623E+03  0.63516904813E+03  0.15294330000E+03 0.  1.
<mgrwt>
<rscale>  0 0.65477278E+03</rscale>
<asrwt>0</asrwt>
<pdfrwt beam="1">  1        1 0.13532270E+00 0.76281858E+03</pdfrwt>
<pdfrwt beam="2">  1       -1 0.81488756E-01 0.76281858E+03</pdfrwt>
<totfact> 0.29071567E+01</totfact>
</mgrwt>
</event>
<event>
 4    1  0.2514307E-008  0.8096390E+03  0.7818608E-02  0.9690329E-01
          1   -1    0    0  501    0  0.00000000000E+00  0.00000000000E+00  0.12085402386E+04  0.12085402386E+04  0.50400000000E-02 0. -1.
         -1   -1    0    0    0  501 -0.00000000000E+00 -0.00000000000E+00 -0.57272009263E+03  0.57272009265E+03  0.50400000000E-02 0.  1.
    8880023    1    1    2    0    0 -0.43185635576E+03  0.18763050877E+03 -0.17772869249E+03  0.82891665095E+03  0.65864270000E+03 0.  1.
    8880022    1    1    2    0    0  0.43185635576E+03 -0.18763050877E+03  0.81354883845E+03  0.95234368029E+03  0.15294330000E+03 0.  0.
<mgrwt>
<rscale>  0 0.71595507E+03</rscale>
<asrwt>0</asrwt>
<pdfrwt beam="1">  1        1 0.18592927E+00 0.80963901E+03</pdfrwt>
<pdfrwt beam="2">  1       -1 0.88110784E-01 0.80963901E+03</pdfrwt>
<totfact> 0.13667976E+01</totfact>
</mgrwt>
</event>
<event>
 4    1  0.2514307E-008  0.1054789E+04  0.7818608E-02  0.9313147E-01
          1   -1    0    0  501    0  0.00000000000E+00  0.00000000000E+00  0.28234353485E+04  0.28234353485E+04  0.50400000000E-02 0. -1.
         -1   -1    0    0    0  501 -0.00000000000E+00 -0.00000000000E+00 -0.14704151414E+04  0.14704151415E+04  0.50400000000E-02 0.  1.
    8880023    1    1    2    0    0  0.15252361405E+03  0.80963321795E+03 -0.12053768432E+04  0.16017218675E+04  0.65864270000E+03 0.  1.
    8880022    1    1    2    0    0 -0.15252361405E+03 -0.80963321795E+03  0.25583970502E+04  0.26921286225E+04  0.15294330000E+03 0.  0.
<mgrwt>
<rscale>  0 0.99581520E+03</rscale>
<asrwt>0</asrwt>
<pdfrwt beam="1">  1        1 0.43437466E+00 0.10547889E+04</pdfrwt>
<pdfrwt beam="2">  1       -1 0.22621772E+00 0.10547889E+04</pdfrwt>
<totfact> 0.81513354E-02</totfact>
</mgrwt>
</event>
<event>
 4    1  0.2514307E-008  0.8203419E+03  0.7818608E-02  0.9668425E-01
          1   -1    0    0  501    0  0.00000000000E+00  0.00000000000E+00  0.10518366535E+04  0.10518366535E+04  0.50400000000E-02 0. -1.
         -1   -1    0    0    0  501 -0.00000000000E+00 -0.00000000000E+00 -0.58763033079E+03  0.58763033081E+03  0.50400000000E-02 0.  1.
    8880023    1    1    2    0    0 -0.27455344995E+03 -0.40468631463E+03 -0.15593496851E+03  0.83503085620E+03  0.65864270000E+03 0.  0.
    8880022    1    1    2    0    0  0.27455344995E+03  0.40468631463E+03  0.62014129119E+03  0.80443612810E+03  0.15294330000E+03 0.  0.
<mgrwt>
<rscale>  0 0.72928297E+03</rscale>
<asrwt>0</asrwt>
<pdfrwt beam="1">  1        1 0.16182102E+00 0.82034189E+03</pdfrwt>
<pdfrwt beam="2">  1       -1 0.90404667E-01 0.82034189E+03</pdfrwt>
<totfact> 0.16857342E+01</totfact>
</mgrwt>
</event>
<event>
 4    1  0.2514307E-008  0.6608271E+03  0.7818608E-02  0.1023325E+00
         -1   -1    0    0    0  501 -0.00000000000E+00  0.00000000000E+00  0.20556411449E+03  0.20556411456E+03  0.50400000000E-02 0.  1.
          1   -1    0    0  501    0  0.00000000000E+00 -0.00000000000E+00 -0.39686861582E+04  0.39686861582E+04  0.50400000000E-02 0. -1.
    8880023    1    1    2    0    0 -0.52185706989E+02 -0.12606461019E+02 -0.33243006731E+03  0.73973118549E+03  0.65864270000E+03 0.  0.
    8880022    1    1    2    0    0  0.52185706989E+02  0.12606461019E+02 -0.34306919764E+04  0.34345190872E+04  0.15294330000E+03 0. -1.
<mgrwt>
<rscale>  0 0.46505735E+03</rscale>
<asrwt>0</asrwt>
<pdfrwt beam="1">  1        1 0.61056704E+00 0.66082712E+03</pdfrwt>
<pdfrwt beam="2">  1       -1 0.31625251E-01 0.66082712E+03</pdfrwt>
<totfact> 0.10722587E+00</totfact>
</mgrwt>
</event>
<event>
 4    1  0.2514307E-008  0.9478884E+03  0.7818608E-02  0.9453159E-01
         -1   -1    0    0    0  501 -0.00000000000E+00  0.00000000000E+00  0.17441027607E+04  0.17441027607E+04  0.50400000000E-02 0.  1.
          1   -1    0    0  501    0  0.00000000000E+00 -0.00000000000E+00 -0.14292358539E+04  0.14292358539E+04  0.50400000000E-02 0. -1.
    8880023    1    1    2    0    0  0.21167167232E+03 -0.64797940986E+03  0.15135833766E+04  0.17858967094E+04  0.65864270000E+03 0.  1.
    8880022    1    1    2    0    0 -0.21167167232E+03  0.64797940986E+03 -0.11987164698E+04  0.13874419052E+04  0.15294330000E+03 0.  0.
<mgrwt>
<rscale>  0 0.87827112E+03</rscale>
<asrwt>0</asrwt>
<pdfrwt beam="1">  1        1 0.21988244E+00 0.94788840E+03</pdfrwt>
<pdfrwt beam="2">  1       -1 0.26832350E+00 0.94788840E+03</pdfrwt>
<totfact> 0.39674900E-01</totfact>
</mgrwt>
</event>
<event>
 4    1  0.2514307E-008  0.6614867E+03  0.7818608E-02  0.1022682E+00
         -1   -1    0    0    0  501 -0.00000000000E+00  0.00000000000E+00  0.69639732994E+03  0.69639732996E+03  0.50400000000E-02 0.  1.
          1   -1    0    0  501    0  0.00000000000E+00 -0.00000000000E+00 -0.44006716300E+03  0.44006716303E+03  0.50400000000E-02 0. -1.
    8880023    1    1    2    0    0  0.16343958453E+02 -0.59053026073E+02  0.50911688985E+03  0.83472426505E+03  0.65864270000E+03 0.  1.
    8880022    1    1    2    0    0 -0.16343958453E+02  0.59053026073E+02 -0.25278672290E+03  0.30174022794E+03  0.15294330000E+03 0.  0.
<mgrwt>
<rscale>  0 0.46730897E+03</rscale>
<asrwt>0</asrwt>
<pdfrwt beam="1">  1        1 0.67702641E-01 0.66148665E+03</pdfrwt>
<pdfrwt beam="2">  1       -1 0.10713805E+00 0.66148665E+03</pdfrwt>
<totfact> 0.44145012E+01</totfact>
</mgrwt>
</event>
<event>
 4    1  0.2514307E-008  0.9342037E+03  0.7818608E-02  0.9473215E-01
         -1   -1    0    0    0  501 -0.00000000000E+00  0.00000000000E+00  0.10658182050E+04  0.10658182050E+04  0.50400000000E-02 0.  1.
          1   -1    0    0  501    0  0.00000000000E+00 -0.00000000000E+00 -0.70353775225E+03  0.70353775226E+03  0.50400000000E-02 0. -1.
    8880023    1    1    2    0    0 -0.32679054334E+02  0.66170866444E+03 -0.11120498535E+03  0.94079914552E+03  0.65864270000E+03 0.  0.
    8880022    1    1    2    0    0  0.32679054334E+02 -0.66170866444E+03  0.47348543810E+03  0.82855681175E+03  0.15294330000E+03 0.  0.
<mgrwt>
<rscale>  0 0.86287675E+03</rscale>
<asrwt>0</asrwt>
<pdfrwt beam="1">  1        1 0.10823658E+00 0.93420366E+03</pdfrwt>
<pdfrwt beam="2">  1       -1 0.16397203E+00 0.93420366E+03</pdfrwt>
<totfact> 0.74457106E+00</totfact>
</mgrwt>
</event>
<event>
 4    1  0.2514307E-008  0.1041754E+04  0.7818608E-02  0.9328861E-01
          1   -1    0    0  501    0  0.00000000000E+00  0.00000000000E+00  0.26944524224E+04  0.26944524224E+04  0.50400000000E-02 0. -1.
         -1   -1    0    0    0  501 -0.00000000000E+00 -0.00000000000E+00 -0.38967239641E+03  0.38967239644E+03  0.50400000000E-02 0.  1.
    8880023    1    1    2    0    0  0.77429934078E+03 -0.22781859079E+03  0.62662492040E+03  0.12156931260E+04  0.65864270000E+03 0.  1.
    8880022    1    1    2    0    0 -0.77429934078E+03  0.22781859079E+03  0.16781551056E+04  0.18684316928E+04  0.15294330000E+03 0.  0.
<mgrwt>
<rscale>  0 0.98168762E+03</rscale>
<asrwt>0</asrwt>
<pdfrwt beam="1">  1        1 0.41453115E+00 0.10417538E+04</pdfrwt>
<pdfrwt beam="2">  1       -1 0.59949598E-01 0.10417538E+04</pdfrwt>
<totfact> 0.28388642E+00</totfact>
</mgrwt>
</event>
<event>
 4    1  0.2514307E-008  0.6645486E+03  0.7818608E-02  0.1019915E+00
          1   -1    0    0  501    0  0.00000000000E+00  0.00000000000E+00  0.12768500548E+04  0.12768500548E+04  0.50400000000E-02 0. -1.
         -1   -1    0    0    0  501 -0.00000000000E+00 -0.00000000000E+00 -0.31689425902E+03  0.31689425906E+03  0.50400000000E-02 0.  1.
    8880023    1    1    2    0    0  0.87399648247E+02 -0.13265071415E+02  0.49588731680E+02  0.66639621038E+03  0.65864270000E+03 0.  1.
    8880022    1    1    2    0    0 -0.87399648247E+02  0.13265071415E+02  0.91036706405E+03  0.92734810344E+03  0.15294330000E+03 0.  0.
<mgrwt>
<rscale>  0 0.47717247E+03</rscale>
<asrwt>0</asrwt>
<pdfrwt beam="1">  1        1 0.19643847E+00 0.66454862E+03</pdfrwt>
<pdfrwt beam="2">  1       -1 0.48752964E-01 0.66454862E+03</pdfrwt>
<totfact> 0.41079601E+01</totfact>
</mgrwt>
</event>
<event>
 4    1  0.2514307E-008  0.9260214E+03  0.7818608E-02  0.9485487E-01
          1   -1    0    0  501    0  0.00000000000E+00  0.00000000000E+00  0.10724379459E+04  0.10724379459E+04  0.50400000000E-02 0. -1.
         -1   -1    0    0    0  501 -0.00000000000E+00 -0.00000000000E+00 -0.13382192862E+04  0.13382192863E+04  0.50400000000E-02 0.  1.
    8880023    1    1    2    0    0  0.61405224292E+03  0.21597520765E+03 -0.10367682584E+04  0.13901093753E+04  0.65864270000E+03 0.  1.
    8880022    1    1    2    0    0 -0.61405224292E+03 -0.21597520765E+03  0.77098691805E+03  0.10205478569E+04  0.15294330000E+03 0.  0.
<mgrwt>
<rscale>  0 0.85362279E+03</rscale>
<asrwt>0</asrwt>
<pdfrwt beam="1">  1        1 0.16499045E+00 0.92602141E+03</pdfrwt>
<pdfrwt beam="2">  1       -1 0.20587989E+00 0.92602141E+03</pdfrwt>
<totfact> 0.18523983E+00</totfact>
</mgrwt>
</event>
<event>
 4    1  0.2514307E-008  0.6962970E+03  0.7818608E-02  0.1001292E+00
          1   -1    0    0  501    0  0.00000000000E+00  0.00000000000E+00  0.15015085052E+04  0.15015085052E+04  0.50400000000E-02 0. -1.
         -1   -1    0    0    0  501 -0.00000000000E+00 -0.00000000000E+00 -0.32719363993E+03  0.32719363997E+03  0.50400000000E-02 0.  1.
    8880023    1    1    2    0    0  0.14393798214E+03 -0.17407223629E+03  0.79973017835E+02  0.70087457936E+03  0.65864270000E+03 0.  1.
    8880022    1    1    2    0    0 -0.14393798214E+03  0.17407223629E+03  0.10943418474E+04  0.11278275658E+04  0.15294330000E+03 0.  0.
<mgrwt>
<rscale>  0 0.55087173E+03</rscale>
<asrwt>0</asrwt>
<pdfrwt beam="1">  1        1 0.23100132E+00 0.69629699E+03</pdfrwt>
<pdfrwt beam="2">  1       -1 0.50337482E-01 0.69629699E+03</pdfrwt>
<totfact> 0.26892655E+01</totfact>
</mgrwt>
</event>
<event>
 4    1  0.2514307E-008  0.9919235E+03  0.7818608E-02  0.9392201E-01
         -1   -1    0    0    0  501 -0.00000000000E+00  0.00000000000E+00  0.66081061158E+03  0.66081061160E+03  0.50400000000E-02 0.  1.
          1   -1    0    0  501    0  0.00000000000E+00 -0.00000000000E+00 -0.14259582923E+04  0.14259582923E+04  0.50400000000E-02 0. -1.
    8880023    1    1    2    0    0  0.46807637368E+03  0.57533162348E+03  0.25103871321E+02  0.99224108925E+03  0.65864270000E+03 0.  1.
    8880022    1    1    2    0    0 -0.46807637368E+03 -0.57533162348E+03 -0.79025155207E+03  0.10945278147E+04  0.15294330000E+03 0.  0.
<mgrwt>
<rscale>  0 0.92720273E+03</rscale>
<asrwt>0</asrwt>
<pdfrwt beam="1">  1        1 0.21937820E+00 0.99192347E+03</pdfrwt>
<pdfrwt beam="2">  1       -1 0.10166317E+00 0.99192347E+03</pdfrwt>
<totfact> 0.68004544E+00</totfact>
</mgrwt>
</event>
<event>
 4    1  0.2514307E-008  0.8920661E+03  0.7818608E-02  0.9538890E-01
          1   -1    0    0  501    0  0.00000000000E+00  0.00000000000E+00  0.16534795206E+04  0.16534795206E+04  0.50400000000E-02 0. -1.
         -1   -1    0    0    0  501 -0.00000000000E+00 -0.00000000000E+00 -0.10785736793E+04  0.10785736793E+04  0.50400000000E-02 0.  1.
    8880023    1    1    2    0    0 -0.50302125739E+03  0.33006259158E+03 -0.81595099498E+03  0.12089491024E+04  0.65864270000E+03 0.  1.
    8880022    1    1    2    0    0  0.50302125739E+03 -0.33006259158E+03  0.13908568362E+04  0.15231040975E+04  0.15294330000E+03 0.  0.
<mgrwt>
<rscale>  0 0.81476352E+03</rscale>
<asrwt>0</asrwt>
<pdfrwt beam="1">  1        1 0.25438146E+00 0.89206609E+03</pdfrwt>
<pdfrwt beam="2">  1       -1 0.16593441E+00 0.89206609E+03</pdfrwt>
<totfact> 0.13855235E+00</totfact>
</mgrwt>
</event>
<event>
 4    1  0.2514307E-008  0.6617094E+03  0.7818608E-02  0.1022470E+00
          1   -1    0    0  501    0  0.00000000000E+00  0.00000000000E+00  0.97387827186E+03  0.97387827187E+03  0.50400000000E-02 0. -1.
         -1   -1    0    0    0  501 -0.00000000000E+00 -0.00000000000E+00 -0.33952725886E+03  0.33952725890E+03  0.50400000000E-02 0.  1.
    8880023    1    1    2    0    0  0.35760494079E+02 -0.52634286279E+02  0.40728045574E+01  0.66172197714E+03  0.65864270000E+03 0.  1.
    8880022    1    1    2    0    0 -0.35760494079E+02  0.52634286279E+02  0.63027820843E+03  0.65168355363E+03  0.15294330000E+03 0.  0.
<mgrwt>
<rscale>  0 0.46805853E+03</rscale>
<asrwt>0</asrwt>
<pdfrwt beam="1">  1        1 0.14982742E+00 0.66170944E+03</pdfrwt>
<pdfrwt beam="2">  1       -1 0.52234964E-01 0.66170944E+03</pdfrwt>
<totfact> 0.60421251E+01</totfact>
</mgrwt>
</event>
<event>
 4    1  0.2514307E-008  0.7315769E+03  0.7818608E-02  0.9885199E-01
          1   -1    0    0  501    0  0.00000000000E+00  0.00000000000E+00  0.13786819385E+04  0.13786819385E+04  0.50400000000E-02 0. -1.
         -1   -1    0    0    0  501 -0.00000000000E+00 -0.00000000000E+00 -0.35978199992E+03  0.35978199996E+03  0.50400000000E-02 0.  1.
    8880023    1    1    2    0    0  0.14284570149E+03 -0.28458690653E+03  0.80760636373E+02  0.73602111957E+03  0.65864270000E+03 0.  0.
    8880022    1    1    2    0    0 -0.14284570149E+03  0.28458690653E+03  0.93813930224E+03  0.10024428189E+04  0.15294330000E+03 0.  0.
<mgrwt>
<rscale>  0 0.60983991E+03</rscale>
<asrwt>0</asrwt>
<pdfrwt beam="1">  1        1 0.21210491E+00 0.73157693E+03</pdfrwt>
<pdfrwt beam="2">  1       -1 0.55351077E-01 0.73157693E+03</pdfrwt>
<totfact> 0.27127915E+01</totfact>
</mgrwt>
</event>
<event>
 4    1  0.2514307E-008  0.9485388E+03  0.7818608E-02  0.9452220E-01
         -1   -1    0    0    0  501 -0.00000000000E+00  0.00000000000E+00  0.28888831110E+03  0.28888831115E+03  0.50400000000E-02 0.  1.
          1   -1    0    0  501    0  0.00000000000E+00 -0.00000000000E+00 -0.24528014864E+04  0.24528014864E+04  0.50400000000E-02 0. -1.
    8880023    1    1    2    0    0  0.31024402459E+03 -0.60800019037E+03 -0.96165129628E+03  0.13507401705E+04  0.65864270000E+03 0.  0.
    8880022    1    1    2    0    0 -0.31024402459E+03  0.60800019037E+03 -0.12022618791E+04  0.13909496271E+04  0.15294330000E+03 0.  0.
<mgrwt>
<rscale>  0 0.87900029E+03</rscale>
<asrwt>0</asrwt>
<pdfrwt beam="1">  1        1 0.37735406E+00 0.94853877E+03</pdfrwt>
<pdfrwt beam="2">  1       -1 0.44444357E-01 0.94853877E+03</pdfrwt>
<totfact> 0.74979980E+00</totfact>
</mgrwt>
</event>
<event>
 4    1  0.2514307E-008  0.1076100E+04  0.7818608E-02  0.9288144E-01
          1   -1    0    0  501    0  0.00000000000E+00  0.00000000000E+00  0.29931017397E+04  0.29931017397E+04  0.50400000000E-02 0. -1.
         -1   -1    0    0    0  501 -0.00000000000E+00 -0.00000000000E+00 -0.35014071662E+03  0.35014071666E+03  0.50400000000E-02 0.  1.
    8880023    1    1    2    0    0 -0.42518626357E+02 -0.84992590089E+03  0.92106550975E+03  0.14164581710E+04  0.65864270000E+03 0. -1.
    8880022    1    1    2    0    0  0.42518626357E+02  0.84992590089E+03  0.17218955133E+04  0.19267842854E+04  0.15294330000E+03 0.  0.
<mgrwt>
<rscale>  0 0.10188174E+04</rscale>
<asrwt>0</asrwt>
<pdfrwt beam="1">  1        1 0.46047719E+00 0.10761004E+04</pdfrwt>
<pdfrwt beam="2">  1       -1 0.53867802E-01 0.10761004E+04</pdfrwt>
<totfact> 0.21384030E+00</totfact>
</mgrwt>
</event>
<event>
 4    1  0.2514307E-008  0.7432166E+03  0.7818608E-02  0.9850675E-01
          1   -1    0    0  501    0  0.00000000000E+00  0.00000000000E+00  0.16594664142E+04  0.16594664142E+04  0.50400000000E-02 0. -1.
         -1   -1    0    0    0  501 -0.00000000000E+00 -0.00000000000E+00 -0.46688824914E+03  0.46688824916E+03  0.50400000000E-02 0.  1.
    8880023    1    1    2    0    0 -0.30216011764E+03  0.16510581788E+03  0.14775586608E+04  0.16539499600E+04  0.65864270000E+03 0. -1.
    8880022    1    1    2    0    0  0.30216011764E+03 -0.16510581788E+03 -0.28498049575E+03  0.47240470337E+03  0.15294330000E+03 0.  0.
<mgrwt>
<rscale>  0 0.62712534E+03</rscale>
<asrwt>0</asrwt>
<pdfrwt beam="1">  1        1 0.25530252E+00 0.74321657E+03</pdfrwt>
<pdfrwt beam="2">  1       -1 0.71828962E-01 0.74321657E+03</pdfrwt>
<totfact> 0.10351246E+01</totfact>
</mgrwt>
</event>
<event>
 4    1  0.2514307E-008  0.8606977E+03  0.7818608E-02  0.9592324E-01
         -1   -1    0    0    0  501 -0.00000000000E+00  0.00000000000E+00  0.10240535447E+04  0.10240535447E+04  0.50400000000E-02 0.  1.
          1   -1    0    0  501    0  0.00000000000E+00 -0.00000000000E+00 -0.51050988089E+03  0.51050988092E+03  0.50400000000E-02 0. -1.
    8880023    1    1    2    0    0  0.44288724172E+03  0.33292829584E+03  0.39805627562E+03  0.94828759555E+03  0.65864270000E+03 0. -1.
    8880022    1    1    2    0    0 -0.44288724172E+03 -0.33292829584E+03  0.11548738814E+03  0.58627583004E+03  0.15294330000E+03 0.  0.
<mgrwt>
<rscale>  0 0.77806349E+03</rscale>
<asrwt>0</asrwt>
<pdfrwt beam="1">  1        1 0.78539982E-01 0.86069772E+03</pdfrwt>
<pdfrwt beam="2">  1       -1 0.15754670E+00 0.86069772E+03</pdfrwt>
<totfact> 0.13349564E+01</totfact>
</mgrwt>
</event>
<event>
 4    1  0.2514307E-008  0.7620393E+03  0.7818608E-02  0.9799856E-01
          1   -1    0    0  501    0  0.00000000000E+00  0.00000000000E+00  0.23491948137E+04  0.23491948137E+04  0.50400000000E-02 0. -1.
         -1   -1    0    0    0  501 -0.00000000000E+00 -0.00000000000E+00 -0.64738376268E+03  0.64738376270E+03  0.50400000000E-02 0.  1.
    8880023    1    1    2    0    0 -0.34190153735E+03 -0.17319652222E+03 -0.39584502980E+03  0.85871834174E+03  0.65864270000E+03 0.  1.
    8880022    1    1    2    0    0  0.34190153735E+03  0.17319652222E+03  0.20976560809E+04  0.21378602347E+04  0.15294330000E+03 0.  0.
<mgrwt>
<rscale>  0 0.65370257E+03</rscale>
<asrwt>0</asrwt>
<pdfrwt beam="1">  1        1 0.36141458E+00 0.76203931E+03</pdfrwt>
<pdfrwt beam="2">  1       -1 0.99597505E-01 0.76203931E+03</pdfrwt>
<totfact> 0.17543413E+00</totfact>
</mgrwt>
</event>
<event>
 4    1  0.2514307E-008  0.1011697E+04  0.7818608E-02  0.9366411E-01
         -1   -1    0    0    0  501 -0.00000000000E+00  0.00000000000E+00  0.12766915016E+04  0.12766915016E+04  0.50400000000E-02 0.  1.
          1   -1    0    0  501    0  0.00000000000E+00 -0.00000000000E+00 -0.13414697161E+04  0.13414697161E+04  0.50400000000E-02 0. -1.
    8880023    1    1    2    0    0 -0.76351789583E+03  0.82229636149E+02  0.91489086945E+03  0.13640222871E+04  0.65864270000E+03 0.  1.
    8880022    1    1    2    0    0  0.76351789583E+03 -0.82229636149E+02 -0.97966908397E+03  0.12541389307E+04  0.15294330000E+03 0.  0.
<mgrwt>
<rscale>  0 0.94892200E+03</rscale>
<asrwt>0</asrwt>
<pdfrwt beam="1">  1        1 0.20637996E+00 0.10116973E+04</pdfrwt>
<pdfrwt beam="2">  1       -1 0.19641408E+00 0.10116973E+04</pdfrwt>
<totfact> 0.13521977E+00</totfact>
</mgrwt>
</event>
<event>
 4    1  0.2514307E-008  0.7668372E+03  0.7818608E-02  0.9787718E-01
         -1   -1    0    0    0  501 -0.00000000000E+00  0.00000000000E+00  0.44473705235E+03  0.44473705238E+03  0.50400000000E-02 0.  1.
          1   -1    0    0  501    0  0.00000000000E+00 -0.00000000000E+00 -0.31179561042E+04  0.31179561042E+04  0.50400000000E-02 0. -1.
    8880023    1    1    2    0    0  0.56917886541E+02 -0.38857350842E+03  0.85844002190E+02  0.77162712253E+03  0.65864270000E+03 0.  1.
    8880022    1    1    2    0    0 -0.56917886541E+02  0.38857350842E+03 -0.27590630540E+04  0.27910660340E+04  0.15294330000E+03 0.  0.
<mgrwt>
<rscale>  0 0.66025857E+03</rscale>
<asrwt>0</asrwt>
<pdfrwt beam="1">  1        1 0.47968554E+00 0.76683716E+03</pdfrwt>
<pdfrwt beam="2">  1       -1 0.68421087E-01 0.76683716E+03</pdfrwt>
<totfact> 0.11395801E+00</totfact>
</mgrwt>
</event>
<event>
 4    1  0.2514307E-008  0.6929662E+03  0.7818608E-02  0.1002773E+00
         -1   -1    0    0    0  501 -0.00000000000E+00  0.00000000000E+00  0.60855221420E+03  0.60855221422E+03  0.50400000000E-02 0.  1.
          1   -1    0    0  501    0  0.00000000000E+00 -0.00000000000E+00 -0.13662783901E+04  0.13662783901E+04  0.50400000000E-02 0. -1.
    8880023    1    1    2    0    0  0.12304154221E+03  0.17678445149E+03  0.39131111788E+03  0.79581817059E+03  0.65864270000E+03 0.  1.
    8880022    1    1    2    0    0 -0.12304154221E+03 -0.17678445149E+03 -0.11490372938E+04  0.11790124337E+04  0.15294330000E+03 0.  0.
<mgrwt>
<rscale>  0 0.54450670E+03</rscale>
<asrwt>0</asrwt>
<pdfrwt beam="1">  1        1 0.21019667E+00 0.69296621E+03</pdfrwt>
<pdfrwt beam="2">  1       -1 0.93623418E-01 0.69296621E+03</pdfrwt>
<totfact> 0.93934527E+00</totfact>
</mgrwt>
</event>
<event>
 4    1  0.2514307E-008  0.8829015E+03  0.7818608E-02  0.9554057E-01
          1   -1    0    0  501    0  0.00000000000E+00  0.00000000000E+00  0.27447066707E+04  0.27447066707E+04  0.50400000000E-02 0. -1.
         -1   -1    0    0    0  501 -0.00000000000E+00 -0.00000000000E+00 -0.26109187581E+03  0.26109187585E+03  0.50400000000E-02 0.  1.
    8880023    1    1    2    0    0  0.42250697658E+03  0.40889209120E+03  0.71614204733E+03  0.11368265152E+04  0.65864270000E+03 0.  1.
    8880022    1    1    2    0    0 -0.42250697658E+03 -0.40889209120E+03  0.17674727475E+04  0.18689720313E+04  0.15294330000E+03 0.  0.
<mgrwt>
<rscale>  0 0.80413080E+03</rscale>
<asrwt>0</asrwt>
<pdfrwt beam="1">  1        1 0.42226256E+00 0.88290152E+03</pdfrwt>
<pdfrwt beam="2">  1       -1 0.40167981E-01 0.88290152E+03</pdfrwt>
<totfact> 0.57295772E+00</totfact>
</mgrwt>
</event>
<event>
 4    1  0.2514307E-008  0.7264994E+03  0.7818608E-02  0.9901178E-01
         -1   -1    0    0    0  501 -0.00000000000E+00  0.00000000000E+00  0.93040481283E+03  0.93040481284E+03  0.50400000000E-02 0.  1.
          1   -1    0    0  501    0  0.00000000000E+00 -0.00000000000E+00 -0.67169640039E+03  0.67169640041E+03  0.50400000000E-02 0. -1.
    8880023    1    1    2    0    0 -0.30167866007E+03 -0.54600331446E+02  0.72308579167E+03  0.10250143797E+04  0.65864270000E+03 0.  1.
    8880022    1    1    2    0    0  0.30167866007E+03  0.54600331446E+02 -0.46437737923E+03  0.57708683358E+03  0.15294330000E+03 0.  0.
<mgrwt>
<rscale>  0 0.60204235E+03</rscale>
<asrwt>0</asrwt>
<pdfrwt beam="1">  1        1 0.10333791E+00 0.72649943E+03</pdfrwt>
<pdfrwt beam="2">  1       -1 0.14313920E+00 0.72649943E+03</pdfrwt>
<totfact> 0.11841094E+01</totfact>
</mgrwt>
</event>
<event>
 4    1  0.2514307E-008  0.7789447E+03  0.7818608E-02  0.9758322E-01
          1   -1    0    0  501    0  0.00000000000E+00  0.00000000000E+00  0.26706564119E+04  0.26706564119E+04  0.50400000000E-02 0. -1.
         -1   -1    0    0    0  501 -0.00000000000E+00 -0.00000000000E+00 -0.32065444963E+03  0.32065444967E+03  0.50400000000E-02 0.  1.
    8880023    1    1    2    0    0  0.67249955399E+02 -0.41039268415E+03  0.21116734896E+03  0.80706044832E+03  0.65864270000E+03 0.  0.
    8880022    1    1    2    0    0 -0.67249955399E+02  0.41039268415E+03  0.21388346133E+04  0.21842504132E+04  0.15294330000E+03 0.  0.
<mgrwt>
<rscale>  0 0.67648019E+03</rscale>
<asrwt>0</asrwt>
<pdfrwt beam="1">  1        1 0.41087023E+00 0.77894475E+03</pdfrwt>
<pdfrwt beam="2">  1       -1 0.49331452E-01 0.77894475E+03</pdfrwt>
<totfact> 0.44803533E+00</totfact>
</mgrwt>
</event>
<event>
 4    1  0.2514307E-008  0.7324285E+03  0.7818608E-02  0.9882578E-01
         -1   -1    0    0    0  501 -0.00000000000E+00  0.00000000000E+00  0.43681507753E+03  0.43681507756E+03  0.50400000000E-02 0.  1.
          1   -1    0    0  501    0  0.00000000000E+00 -0.00000000000E+00 -0.72659014168E+03  0.72659014170E+03  0.50400000000E-02 0. -1.
    8880023    1    1    2    0    0 -0.27521902068E+03 -0.16399916464E+03 -0.48231606071E+02  0.73401480192E+03  0.65864270000E+03 0.  1.
    8880022    1    1    2    0    0  0.27521902068E+03  0.16399916464E+03 -0.24154345808E+03  0.42939041734E+03  0.15294330000E+03 0.  0.
<mgrwt>
<rscale>  0 0.61113111E+03</rscale>
<asrwt>0</asrwt>
<pdfrwt beam="1">  1        1 0.11178310E+00 0.73242845E+03</pdfrwt>
<pdfrwt beam="2">  1       -1 0.67202320E-01 0.73242845E+03</pdfrwt>
<totfact> 0.59044056E+01</totfact>
</mgrwt>
</event>
<event>
 4    1  0.2514307E-008  0.7998331E+03  0.7818608E-02  0.9711157E-01
         -1   -1    0    0    0  501 -0.00000000000E+00  0.00000000000E+00  0.11565973093E+03  0.11565973104E+03  0.50400000000E-02 0.  1.
          1   -1    0    0  501    0  0.00000000000E+00 -0.00000000000E+00 -0.37267679612E+04  0.37267679612E+04  0.50400000000E-02 0. -1.
    8880023    1    1    2    0    0  0.15867933818E+03  0.42513947621E+03 -0.26587798955E+04  0.27764804061E+04  0.65864270000E+03 0.  1.
    8880022    1    1    2    0    0 -0.15867933818E+03 -0.42513947621E+03 -0.95232833483E+03  0.10659472862E+04  0.15294330000E+03 0. -1.
<mgrwt>
<rscale>  0 0.70356369E+03</rscale>
<asrwt>0</asrwt>
<pdfrwt beam="1">  1        1 0.57334882E+00 0.79983305E+03</pdfrwt>
<pdfrwt beam="2">  1       -1 0.17793808E-01 0.79983305E+03</pdfrwt>
<totfact> 0.43846474E+00</totfact>
</mgrwt>
</event>
<event>
 4    1  0.2514307E-008  0.1167311E+04  0.7818608E-02  0.9189572E-01
          1   -1    0    0  501    0  0.00000000000E+00  0.00000000000E+00  0.19283876757E+04  0.19283876757E+04  0.50400000000E-02 0. -1.
         -1   -1    0    0    0  501 -0.00000000000E+00 -0.00000000000E+00 -0.98517505991E+03  0.98517505992E+03  0.50400000000E-02 0.  1.
    8880023    1    1    2    0    0  0.54538322587E+01 -0.96373014534E+03 -0.41697799351E+03  0.12395508826E+04  0.65864270000E+03 0.  0.
    8880022    1    1    2    0    0 -0.54538322587E+01  0.96373014534E+03  0.13601906093E+04  0.16740118530E+04  0.15294330000E+03 0.  0.
<mgrwt>
<rscale>  0 0.11161714E+04</rscale>
<asrwt>0</asrwt>
<pdfrwt beam="1">  1        1 0.29667502E+00 0.11673113E+04</pdfrwt>
<pdfrwt beam="2">  1       -1 0.15156540E+00 0.11673113E+04</pdfrwt>
<totfact> 0.11154189E+00</totfact>
</mgrwt>
</event>
<event>
 4    1  0.2514307E-008  0.1100188E+04  0.7818608E-02  0.9260846E-01
          1   -1    0    0  501    0  0.00000000000E+00  0.00000000000E+00  0.90398039461E+03  0.90398039462E+03  0.50400000000E-02 0. -1.
         -1   -1    0    0    0  501 -0.00000000000E+00 -0.00000000000E+00 -0.27628494780E+04  0.27628494780E+04  0.50400000000E-02 0.  1.
    8880023    1    1    2    0    0 -0.22077044003E+03  0.85314979512E+03 -0.23868430961E+04  0.26281998272E+04  0.65864270000E+03 0.  0.
    8880022    1    1    2    0    0  0.22077044003E+03 -0.85314979512E+03  0.52797401272E+03  0.10386300454E+04  0.15294330000E+03 0.  0.
<mgrwt>
<rscale>  0 0.10446871E+04</rscale>
<asrwt>0</asrwt>
<pdfrwt beam="1">  1        1 0.13907391E+00 0.11001883E+04</pdfrwt>
<pdfrwt beam="2">  1       -1 0.42505376E+00 0.11001883E+04</pdfrwt>
<totfact> 0.87676087E-02</totfact>
</mgrwt>
</event>
<event>
 4    1  0.2514307E-008  0.9712788E+03  0.7818608E-02  0.9420138E-01
          1   -1    0    0  501    0  0.00000000000E+00  0.00000000000E+00  0.11358428622E+04  0.11358428622E+04  0.50400000000E-02 0. -1.
         -1   -1    0    0    0  501 -0.00000000000E+00 -0.00000000000E+00 -0.16726373975E+04  0.16726373975E+04  0.50400000000E-02 0.  1.
    8880023    1    1    2    0    0  0.24921528918E+03 -0.66892759638E+03 -0.13835645655E+04  0.16904536381E+04  0.65864270000E+03 0.  0.
    8880022    1    1    2    0    0 -0.24921528918E+03  0.66892759638E+03  0.84677003013E+03  0.11180266216E+04  0.15294330000E+03 0.  0.
<mgrwt>
<rscale>  0 0.90436800E+03</rscale>
<asrwt>0</asrwt>
<pdfrwt beam="1">  1        1 0.17474505E+00 0.97127885E+03</pdfrwt>
<pdfrwt beam="2">  1       -1 0.25732883E+00 0.97127885E+03</pdfrwt>
<totfact> 0.75475100E-01</totfact>
</mgrwt>
</event>
<event>
 4    1  0.2514307E-008  0.6892915E+03  0.7818608E-02  0.1004491E+00
          1   -1    0    0  501    0  0.00000000000E+00  0.00000000000E+00  0.35793320153E+04  0.35793320153E+04  0.50400000000E-02 0. -1.
         -1   -1    0    0    0  501 -0.00000000000E+00 -0.00000000000E+00 -0.82418089574E+02  0.82418089729E+02  0.50400000000E-02 0.  1.
    8880023    1    1    2    0    0 -0.12291451418E+02 -0.20288298351E+03  0.15255722295E+04  0.16740649385E+04  0.65864270000E+03 0.  1.
    8880022    1    1    2    0    0  0.12291451418E+02  0.20288298351E+03  0.19713416963E+04  0.19876851665E+04  0.15294330000E+03 0.  0.
<mgrwt>
<rscale>  0 0.53724056E+03</rscale>
<asrwt>0</asrwt>
<pdfrwt beam="1">  1        1 0.55066640E+00 0.68929151E+03</pdfrwt>
<pdfrwt beam="2">  1       -1 0.12679708E-01 0.68929151E+03</pdfrwt>
<totfact> 0.10175769E+01</totfact>
</mgrwt>
</event>
<event>
 4    1  0.2514307E-008  0.1174276E+04  0.7818608E-02  0.9182542E-01
         -1   -1    0    0    0  501 -0.00000000000E+00  0.00000000000E+00  0.10713658774E+04  0.10713658774E+04  0.50400000000E-02 0.  1.
          1   -1    0    0  501    0  0.00000000000E+00 -0.00000000000E+00 -0.15343601068E+04  0.15343601068E+04  0.50400000000E-02 0. -1.
    8880023    1    1    2    0    0 -0.71036533284E+03  0.66369818132E+03  0.45554201560E+03  0.12595407561E+04  0.65864270000E+03 0.  0.
    8880022    1    1    2    0    0  0.71036533284E+03 -0.66369818132E+03 -0.91853624507E+03  0.13461852282E+04  0.15294330000E+03 0.  0.
<mgrwt>
<rscale>  0 0.11235449E+04</rscale>
<asrwt>0</asrwt>
<pdfrwt beam="1">  1        1 0.23605540E+00 0.11742761E+04</pdfrwt>
<pdfrwt beam="2">  1       -1 0.16482552E+00 0.11742761E+04</pdfrwt>
<totfact> 0.16371301E+00</totfact>
</mgrwt>
</event>
<event>
 4    1  0.2514307E-008  0.8582436E+03  0.7818608E-02  0.9596695E-01
          1   -1    0    0  501    0  0.00000000000E+00  0.00000000000E+00  0.95226226504E+03  0.95226226505E+03  0.50400000000E-02 0. -1.
         -1   -1    0    0    0  501 -0.00000000000E+00 -0.00000000000E+00 -0.24134817430E+04  0.24134817430E+04  0.50400000000E-02 0.  1.
    8880023    1    1    2    0    0 -0.54297018772E+03  0.89192440640E+02 -0.22406962678E+04  0.23994378273E+04  0.65864270000E+03 0.  0.
    8880022    1    1    2    0    0  0.54297018772E+03 -0.89192440640E+02  0.77947678980E+03  0.96630618081E+03  0.15294330000E+03 0.  0.
<mgrwt>
<rscale>  0 0.77515289E+03</rscale>
<asrwt>0</asrwt>
<pdfrwt beam="1">  1        1 0.14650189E+00 0.85824363E+03</pdfrwt>
<pdfrwt beam="2">  1       -1 0.37130488E+00 0.85824363E+03</pdfrwt>
<totfact> 0.19425993E-01</totfact>
</mgrwt>
</event>
<event>
 4    1  0.2514307E-008  0.1130401E+04  0.7818608E-02  0.9227940E-01
          1   -1    0    0  501    0  0.00000000000E+00  0.00000000000E+00  0.15517335494E+04  0.15517335494E+04  0.50400000000E-02 0. -1.
         -1   -1    0    0    0  501 -0.00000000000E+00 -0.00000000000E+00 -0.18143223964E+04  0.18143223964E+04  0.50400000000E-02 0.  1.
    8880023    1    1    2    0    0  0.27153756402E+03  0.87764672571E+03 -0.14616663246E+04  0.18477757101E+04  0.65864270000E+03 0.  0.
    8880022    1    1    2    0    0 -0.27153756402E+03 -0.87764672571E+03  0.11990774776E+04  0.15182802357E+04  0.15294330000E+03 0.  0.
<mgrwt>
<rscale>  0 0.10769638E+04</rscale>
<asrwt>0</asrwt>
<pdfrwt beam="1">  1        1 0.23872824E+00 0.11304011E+04</pdfrwt>
<pdfrwt beam="2">  1       -1 0.27912652E+00 0.11304011E+04</pdfrwt>
<totfact> 0.26975630E-01</totfact>
</mgrwt>
</event>
<event>
 4    1  0.2514307E-008  0.8426535E+03  0.7818608E-02  0.9625197E-01
          1   -1    0    0  501    0  0.00000000000E+00  0.00000000000E+00  0.26682879616E+04  0.26682879616E+04  0.50400000000E-02 0. -1.
         -1   -1    0    0    0  501 -0.00000000000E+00 -0.00000000000E+00 -0.59789524148E+03  0.59789524150E+03  0.50400000000E-02 0.  1.
    8880023    1    1    2    0    0  0.10008403775E+03 -0.51598250652E+03 -0.25249386378E+03  0.87966932375E+03  0.65864270000E+03 0.  1.
    8880022    1    1    2    0    0 -0.10008403775E+03  0.51598250652E+03  0.23228865839E+04  0.23865138793E+04  0.15294330000E+03 0.  0.
<mgrwt>
<rscale>  0 0.75650694E+03</rscale>
<asrwt>0</asrwt>
<pdfrwt beam="1">  1        1 0.41050584E+00 0.84265353E+03</pdfrwt>
<pdfrwt beam="2">  1       -1 0.91983884E-01 0.84265353E+03</pdfrwt>
<totfact> 0.12485949E+00</totfact>
</mgrwt>
</event>
<event>
 4    1  0.2526509E-008  0.1005487E+04  0.7818608E-02  0.9374414E-01
         -1   -1    0    0    0  501 -0.00000000000E+00  0.00000000000E+00  0.11443943128E+04  0.11443943128E+04  0.50400000000E-02 0.  1.
          1   -1    0    0  501    0  0.00000000000E+00 -0.00000000000E+00 -0.35126543303E+04  0.35126543303E+04  0.50400000000E-02 0. -1.
    8880023    1    1    2    0    0 -0.75722744403E+03 -0.61648133591E+02  0.86859910513E+03  0.13287093384E+04  0.65864270000E+03 0.  0.
    8880022    1    1    2    0    0  0.75722744403E+03  0.61648133591E+02 -0.32368591226E+04  0.33283393047E+04  0.15294330000E+03 0.  0.
<mgrwt>
<rscale>  0 0.94211562E+03</rscale>
<asrwt>0</asrwt>
<pdfrwt beam="1">  1        1 0.54040835E+00 0.10054870E+04</pdfrwt>
<pdfrwt beam="2">  1       -1 0.17606067E+00 0.10054870E+04</pdfrwt>
<totfact> 0.56396770E-02</totfact>
</mgrwt>
</event>
<event>
 4    1  0.2514307E-008  0.9346671E+03  0.7818608E-02  0.9472527E-01
         -1   -1    0    0    0  501 -0.00000000000E+00  0.00000000000E+00  0.10221528682E+04  0.10221528683E+04  0.50400000000E-02 0.  1.
          1   -1    0    0  501    0  0.00000000000E+00 -0.00000000000E+00 -0.19457560891E+04  0.19457560891E+04  0.50400000000E-02 0. -1.
    8880023    1    1    2    0    0 -0.66312249114E+03  0.78007312457E+01  0.72595102015E+03  0.11834725935E+04  0.65864270000E+03 0.  1.
    8880022    1    1    2    0    0  0.66312249114E+03 -0.78007312457E+01 -0.16495542410E+04  0.17844363639E+04  0.15294330000E+03 0.  0.
<mgrwt>
<rscale>  0 0.86339969E+03</rscale>
<asrwt>0</asrwt>
<pdfrwt beam="1">  1        1 0.29934709E+00 0.93466705E+03</pdfrwt>
<pdfrwt beam="2">  1       -1 0.15725429E+00 0.93466705E+03</pdfrwt>
<totfact> 0.10158477E+00</totfact>
</mgrwt>
</event>
<event>
 4    1  0.2514307E-008  0.1356622E+04  0.7818608E-02  0.9018143E-01
          1   -1    0    0  501    0  0.00000000000E+00  0.00000000000E+00  0.20089352328E+04  0.20089352328E+04  0.50400000000E-02 0. -1.
         -1   -1    0    0    0  501 -0.00000000000E+00 -0.00000000000E+00 -0.10188796860E+04  0.10188796860E+04  0.50400000000E-02 0.  1.
    8880023    1    1    2    0    0 -0.11128145397E+04 -0.41019005976E+03 -0.16330661009E+03  0.13664155079E+04  0.65864270000E+03 0.  0.
    8880022    1    1    2    0    0  0.11128145397E+04  0.41019005976E+03  0.11533621568E+04  0.16613994110E+04  0.15294330000E+03 0.  0.
<mgrwt>
<rscale>  0 0.13145019E+04</rscale>
<asrwt>0</asrwt>
<pdfrwt beam="1">  1        1 0.30906695E+00 0.13566216E+04</pdfrwt>
<pdfrwt beam="2">  1       -1 0.15675072E+00 0.13566216E+04</pdfrwt>
<totfact> 0.87648897E-01</totfact>
</mgrwt>
</event>
<event>
 4    1  0.2514307E-008  0.7201772E+03  0.7818608E-02  0.9921987E-01
          1   -1    0    0  501    0  0.00000000000E+00  0.00000000000E+00  0.56509773837E+03  0.56509773840E+03  0.50400000000E-02 0. -1.
         -1   -1    0    0    0  501 -0.00000000000E+00 -0.00000000000E+00 -0.15372578352E+04  0.15372578352E+04  0.50400000000E-02 0.  1.
    8880023    1    1    2    0    0 -0.12679520645E+03  0.26223654079E+03 -0.13930163884E+04  0.15681676863E+04  0.65864270000E+03 0.  1.
    8880022    1    1    2    0    0  0.12679520645E+03 -0.26223654079E+03  0.42085629162E+03  0.53418788728E+03  0.15294330000E+03 0.  0.
<mgrwt>
<rscale>  0 0.59207448E+03</rscale>
<asrwt>0</asrwt>
<pdfrwt beam="1">  1        1 0.86938114E-01 0.72017722E+03</pdfrwt>
<pdfrwt beam="2">  1       -1 0.23650120E+00 0.72017722E+03</pdfrwt>
<totfact> 0.33385795E+00</totfact>
</mgrwt>
</event>
<event>
 4    1  0.2514307E-008  0.1585058E+04  0.7818608E-02  0.8851797E-01
         -1   -1    0    0    0  501 -0.00000000000E+00  0.00000000000E+00  0.13902845055E+04  0.13902845055E+04  0.50400000000E-02 0.  1.
          1   -1    0    0  501    0  0.00000000000E+00 -0.00000000000E+00 -0.17864497189E+04  0.17864497189E+04  0.50400000000E-02 0. -1.
    8880023    1    1    2    0    0  0.76230388458E+03 -0.12237199189E+04  0.22218314631E+03  0.16005540319E+04  0.65864270000E+03 0.  0.
    8880022    1    1    2    0    0 -0.76230388458E+03  0.12237199189E+04 -0.61834835974E+03  0.15761801925E+04  0.15294330000E+03 0.  0.
<mgrwt>
<rscale>  0 0.15501104E+04</rscale>
<asrwt>0</asrwt>
<pdfrwt beam="1">  1        1 0.27483842E+00 0.15850577E+04</pdfrwt>
<pdfrwt beam="2">  1       -1 0.21388992E+00 0.15850577E+04</pdfrwt>
<totfact> 0.47169733E-01</totfact>
</mgrwt>
</event>
<event>
 4    1  0.2514307E-008  0.9728016E+03  0.7818608E-02  0.9418040E-01
         -1   -1    0    0    0  501 -0.00000000000E+00  0.00000000000E+00  0.31393919746E+03  0.31393919750E+03  0.50400000000E-02 0.  1.
          1   -1    0    0  501    0  0.00000000000E+00 -0.00000000000E+00 -0.31636992879E+04  0.31636992879E+04  0.50400000000E-02 0. -1.
    8880023    1    1    2    0    0 -0.58012258958E+03  0.41951225645E+03 -0.67786049658E+03  0.11856803158E+04  0.65864270000E+03 0.  0.
    8880022    1    1    2    0    0  0.58012258958E+03 -0.41951225645E+03 -0.21718995939E+04  0.22919581696E+04  0.15294330000E+03 0.  0.
<mgrwt>
<rscale>  0 0.90605831E+03</rscale>
<asrwt>0</asrwt>
<pdfrwt beam="1">  1        1 0.48672294E+00 0.97280160E+03</pdfrwt>
<pdfrwt beam="2">  1       -1 0.48298340E-01 0.97280160E+03</pdfrwt>
<totfact> 0.20090781E+00</totfact>
</mgrwt>
</event>
<event>
 4    1  0.2514307E-008  0.1362588E+04  0.7818608E-02  0.9013312E-01
         -1   -1    0    0    0  501 -0.00000000000E+00  0.00000000000E+00  0.15195464197E+04  0.15195464197E+04  0.50400000000E-02 0.  1.
          1   -1    0    0  501    0  0.00000000000E+00 -0.00000000000E+00 -0.31489778986E+04  0.31489778987E+04  0.50400000000E-02 0. -1.
    8880023    1    1    2    0    0 -0.67618579010E+03  0.98265384449E+03  0.10574616241E+04  0.17247814626E+04  0.65864270000E+03 0.  0.
    8880022    1    1    2    0    0  0.67618579010E+03 -0.98265384449E+03 -0.26868931031E+04  0.29437428558E+04  0.15294330000E+03 0.  0.
<mgrwt>
<rscale>  0 0.13206964E+04</rscale>
<asrwt>0</asrwt>
<pdfrwt beam="1">  1        1 0.48445814E+00 0.13625880E+04</pdfrwt>
<pdfrwt beam="2">  1       -1 0.23377637E+00 0.13625880E+04</pdfrwt>
<totfact> 0.39994188E-02</totfact>
</mgrwt>
</event>
<event>
 4    1  0.2514307E-008  0.9652684E+03  0.7818608E-02  0.9428478E-01
          1   -1    0    0  501    0  0.00000000000E+00  0.00000000000E+00  0.20923309901E+04  0.20923309901E+04  0.50400000000E-02 0. -1.
         -1   -1    0    0    0  501 -0.00000000000E+00 -0.00000000000E+00 -0.74324851562E+03  0.74324851564E+03  0.50400000000E-02 0.  1.
    8880023    1    1    2    0    0  0.23166089710E+03  0.66653283403E+03 -0.32007400642E+03  0.10169515062E+04  0.65864270000E+03 0.  1.
    8880022    1    1    2    0    0 -0.23166089710E+03 -0.66653283403E+03  0.16691564809E+04  0.18186279996E+04  0.15294330000E+03 0.  0.
<mgrwt>
<rscale>  0 0.89768623E+03</rscale>
<asrwt>0</asrwt>
<pdfrwt beam="1">  1        1 0.32189707E+00 0.96526835E+03</pdfrwt>
<pdfrwt beam="2">  1       -1 0.11434593E+00 0.96526835E+03</pdfrwt>
<totfact> 0.18263324E+00</totfact>
</mgrwt>
</event>
<event>
 4    1  0.2514307E-008  0.7569236E+03  0.7818608E-02  0.9813138E-01
          1   -1    0    0  501    0  0.00000000000E+00  0.00000000000E+00  0.24008093923E+04  0.24008093923E+04  0.50400000000E-02 0. -1.
         -1   -1    0    0    0  501 -0.00000000000E+00 -0.00000000000E+00 -0.62717021354E+03  0.62717021356E+03  0.50400000000E-02 0.  1.
    8880023    1    1    2    0    0  0.21694243269E+03  0.30341244023E+03 -0.37298403320E+03  0.84383080252E+03  0.65864270000E+03 0.  1.
    8880022    1    1    2    0    0 -0.21694243269E+03 -0.30341244023E+03  0.21466232120E+04  0.21841488034E+04  0.15294330000E+03 0.  0.
<mgrwt>
<rscale>  0 0.64662225E+03</rscale>
<asrwt>0</asrwt>
<pdfrwt beam="1">  1        1 0.36935529E+00 0.75692360E+03</pdfrwt>
<pdfrwt beam="2">  1       -1 0.96487726E-01 0.75692360E+03</pdfrwt>
<totfact> 0.17409169E+00</totfact>
</mgrwt>
</event>
<event>
 4    1  0.2514307E-008  0.8431505E+03  0.7818608E-02  0.9624268E-01
          1   -1    0    0  501    0  0.00000000000E+00  0.00000000000E+00  0.12443250578E+04  0.12443250578E+04  0.50400000000E-02 0. -1.
         -1   -1    0    0    0  501 -0.00000000000E+00 -0.00000000000E+00 -0.61074112772E+03  0.61074112774E+03  0.50400000000E-02 0.  1.
    8880023    1    1    2    0    0 -0.51386069506E+03 -0.11419196945E+03 -0.19136952403E+03  0.86459535091E+03  0.65864270000E+03 0.  0.
    8880022    1    1    2    0    0  0.51386069506E+03  0.11419196945E+03  0.82495345416E+03  0.99047083468E+03  0.15294330000E+03 0.  0.
<mgrwt>
<rscale>  0 0.75710577E+03</rscale>
<asrwt>0</asrwt>
<pdfrwt beam="1">  1        1 0.19143462E+00 0.84315054E+03</pdfrwt>
<pdfrwt beam="2">  1       -1 0.93960174E-01 0.84315054E+03</pdfrwt>
<totfact> 0.11126041E+01</totfact>
</mgrwt>
</event>
<event>
 4    1  0.2514307E-008  0.1593968E+04  0.7818608E-02  0.8845982E-01
         -1   -1    0    0    0  501 -0.00000000000E+00  0.00000000000E+00  0.10369387553E+04  0.10369387553E+04  0.50400000000E-02 0.  1.
          1   -1    0    0  501    0  0.00000000000E+00 -0.00000000000E+00 -0.45416215855E+04  0.45416215855E+04  0.50400000000E-02 0. -1.
    8880023    1    1    2    0    0 -0.21727463095E+03 -0.14351713777E+04  0.19074140725E+03  0.16053403500E+04  0.65864270000E+03 0.  1.
    8880022    1    1    2    0    0  0.21727463095E+03  0.14351713777E+04 -0.36954242374E+04  0.39732199909E+04  0.15294330000E+03 0.  0.
<mgrwt>
<rscale>  0 0.15592484E+04</rscale>
<asrwt>0</asrwt>
<pdfrwt beam="1">  1        1 0.69871100E+00 0.15939684E+04</pdfrwt>
<pdfrwt beam="2">  1       -1 0.15952904E+00 0.15939684E+04</pdfrwt>
<totfact> 0.82245782E-03</totfact>
</mgrwt>
</event>
<event>
 4    1  0.2514307E-008  0.7556635E+03  0.7818608E-02  0.9816466E-01
          1   -1    0    0  501    0  0.00000000000E+00  0.00000000000E+00  0.39281014489E+03  0.39281014492E+03  0.50400000000E-02 0. -1.
         -1   -1    0    0    0  501 -0.00000000000E+00 -0.00000000000E+00 -0.17888282771E+04  0.17888282771E+04  0.50400000000E-02 0.  1.
    8880023    1    1    2    0    0 -0.26717201701E+03  0.25658567350E+03 -0.15718067496E+04  0.17440194262E+04  0.65864270000E+03 0.  1.
    8880022    1    1    2    0    0  0.26717201701E+03 -0.25658567350E+03  0.17578861738E+03  0.43761899585E+03  0.15294330000E+03 0.  0.
<mgrwt>
<rscale>  0 0.64486303E+03</rscale>
<asrwt>0</asrwt>
<pdfrwt beam="1">  1        1 0.60432331E-01 0.75566348E+03</pdfrwt>
<pdfrwt beam="2">  1       -1 0.27520435E+00 0.75566348E+03</pdfrwt>
<totfact> 0.30698063E+00</totfact>
</mgrwt>
</event>
<event>
 4    1  0.2514307E-008  0.1927385E+04  0.7818608E-02  0.8655163E-01
         -1   -1    0    0    0  501 -0.00000000000E+00  0.00000000000E+00  0.19151536764E+04  0.19151536764E+04  0.50400000000E-02 0.  1.
          1   -1    0    0  501    0  0.00000000000E+00 -0.00000000000E+00 -0.18516221036E+04  0.18516221036E+04  0.50400000000E-02 0. -1.
    8880023    1    1    2    0    0  0.18068028978E+04  0.12831833555E+03 -0.16610560040E+03  0.19345292925E+04  0.65864270000E+03 0. -1.
    8880022    1    1    2    0    0 -0.18068028978E+04 -0.12831833555E+03  0.22963717329E+03  0.18322464875E+04  0.15294330000E+03 0. -1.
<mgrwt>
<rscale>  0 0.18993842E+04</rscale>
<asrwt>0</asrwt>
<pdfrwt beam="1">  1        1 0.28486494E+00 0.19273849E+04</pdfrwt>
<pdfrwt beam="2">  1       -1 0.29463903E+00 0.19273849E+04</pdfrwt>
<totfact> 0.12106591E-01</totfact>
</mgrwt>
</event>
<event>
 4    1  0.2514307E-008  0.1163144E+04  0.7818608E-02  0.9193809E-01
          1   -1    0    0  501    0  0.00000000000E+00  0.00000000000E+00  0.21162207343E+04  0.21162207343E+04  0.50400000000E-02 0. -1.
         -1   -1    0    0    0  501 -0.00000000000E+00 -0.00000000000E+00 -0.13189938400E+04  0.13189938400E+04  0.50400000000E-02 0.  1.
    8880023    1    1    2    0    0  0.15667122877E+03  0.94580559460E+03 -0.90625430291E+03  0.14745172649E+04  0.65864270000E+03 0.  0.
    8880022    1    1    2    0    0 -0.15667122877E+03 -0.94580559460E+03  0.17034811973E+04  0.19606973094E+04  0.15294330000E+03 0.  0.
<mgrwt>
<rscale>  0 0.11117561E+04</rscale>
<asrwt>0</asrwt>
<pdfrwt beam="1">  1        1 0.32557242E+00 0.11631441E+04</pdfrwt>
<pdfrwt beam="2">  1       -1 0.20292213E+00 0.11631441E+04</pdfrwt>
<totfact> 0.35266504E-01</totfact>
</mgrwt>
</event>
<event>
 4    1  0.2514307E-008  0.7195994E+03  0.7818608E-02  0.9923944E-01
         -1   -1    0    0    0  501 -0.00000000000E+00  0.00000000000E+00  0.33222737670E+03  0.33222737674E+03  0.50400000000E-02 0.  1.
          1   -1    0    0  501    0  0.00000000000E+00 -0.00000000000E+00 -0.17706238136E+04  0.17706238136E+04  0.50400000000E-02 0. -1.
    8880023    1    1    2    0    0  0.14287588173E+02 -0.28949770445E+03 -0.10192237227E+03  0.72678155748E+03  0.65864270000E+03 0.  1.
    8880022    1    1    2    0    0 -0.14287588173E+02  0.28949770445E+03 -0.13364740646E+04  0.13760696328E+04  0.15294330000E+03 0.  0.
<mgrwt>
<rscale>  0 0.59114769E+03</rscale>
<asrwt>0</asrwt>
<pdfrwt beam="1">  1        1 0.27240366E+00 0.71959938E+03</pdfrwt>
<pdfrwt beam="2">  1       -1 0.51111905E-01 0.71959938E+03</pdfrwt>
<totfact> 0.17133273E+01</totfact>
</mgrwt>
</event>
<event>
 4    1  0.2514307E-008  0.7219663E+03  0.7818608E-02  0.9915988E-01
          1   -1    0    0  501    0  0.00000000000E+00  0.00000000000E+00  0.22574135857E+04  0.22574135857E+04  0.50400000000E-02 0. -1.
         -1   -1    0    0    0  501 -0.00000000000E+00 -0.00000000000E+00 -0.77875041074E+03  0.77875041075E+03  0.50400000000E-02 0.  1.
    8880023    1    1    2    0    0 -0.17535369097E+03  0.23806780325E+03 -0.59524466273E+03  0.93570914854E+03  0.65864270000E+03 0.  0.
    8880022    1    1    2    0    0  0.17535369097E+03 -0.23806780325E+03  0.20739078377E+04  0.21004548479E+04  0.15294330000E+03 0.  0.
<mgrwt>
<rscale>  0 0.59492667E+03</rscale>
<asrwt>0</asrwt>
<pdfrwt beam="1">  1        1 0.34729439E+00 0.72196634E+03</pdfrwt>
<pdfrwt beam="2">  1       -1 0.11980776E+00 0.72196634E+03</pdfrwt>
<totfact> 0.13209447E+00</totfact>
</mgrwt>
</event>
<event>
 4    1  0.2514307E-008  0.8558842E+03  0.7818608E-02  0.9600927E-01
          1   -1    0    0  501    0  0.00000000000E+00  0.00000000000E+00  0.15107960056E+04  0.15107960056E+04  0.50400000000E-02 0. -1.
         -1   -1    0    0    0  501 -0.00000000000E+00 -0.00000000000E+00 -0.40932757560E+03  0.40932757563E+03  0.50400000000E-02 0.  1.
    8880023    1    1    2    0    0  0.13607262476E+02  0.54639029379E+03  0.10435176277E+04  0.13496172629E+04  0.65864270000E+03 0.  0.
    8880022    1    1    2    0    0 -0.13607262476E+02 -0.54639029379E+03  0.57950802268E+02  0.57050631832E+03  0.15294330000E+03 0.  0.
<mgrwt>
<rscale>  0 0.77234852E+03</rscale>
<asrwt>0</asrwt>
<pdfrwt beam="1">  1        1 0.23243015E+00 0.85588417E+03</pdfrwt>
<pdfrwt beam="2">  1       -1 0.62973474E-01 0.85588417E+03</pdfrwt>
<totfact> 0.16804297E+01</totfact>
</mgrwt>
</event>
<event>
 4    1  0.2514307E-008  0.8538653E+03  0.7818608E-02  0.9604570E-01
          1   -1    0    0  501    0  0.00000000000E+00  0.00000000000E+00  0.19852736405E+04  0.19852736405E+04  0.50400000000E-02 0. -1.
         -1   -1    0    0    0  501 -0.00000000000E+00 -0.00000000000E+00 -0.27405610524E+03  0.27405610529E+03  0.50400000000E-02 0.  1.
    8880023    1    1    2    0    0  0.94232190131E+02 -0.53515988771E+03  0.71239229672E+03  0.11120201445E+04  0.65864270000E+03 0.  0.
    8880022    1    1    2    0    0 -0.94232190131E+02  0.53515988771E+03  0.99882523855E+03  0.11473096013E+04  0.15294330000E+03 0.  0.
<mgrwt>
<rscale>  0 0.76994420E+03</rscale>
<asrwt>0</asrwt>
<pdfrwt beam="1">  1        1 0.30542671E+00 0.85386534E+03</pdfrwt>
<pdfrwt beam="2">  1       -1 0.42162478E-01 0.85386534E+03</pdfrwt>
<totfact> 0.17317414E+01</totfact>
</mgrwt>
</event>
<event>
 4    1  0.2514307E-008  0.9591394E+03  0.7818608E-02  0.9437085E-01
         -1   -1    0    0    0  501 -0.00000000000E+00  0.00000000000E+00  0.56659918985E+03  0.56659918987E+03  0.50400000000E-02 0.  1.
          1   -1    0    0  501    0  0.00000000000E+00 -0.00000000000E+00 -0.20913406886E+04  0.20913406886E+04  0.50400000000E-02 0. -1.
    8880023    1    1    2    0    0 -0.38036992031E+03  0.58434314727E+03  0.16654617117E+02  0.95928398953E+03  0.65864270000E+03 0.  1.
    8880022    1    1    2    0    0  0.38036992031E+03 -0.58434314727E+03 -0.15413961159E+04  0.16986558890E+04  0.15294330000E+03 0.  0.
<mgrwt>
<rscale>  0 0.89085599E+03</rscale>
<asrwt>0</asrwt>
<pdfrwt beam="1">  1        1 0.32174472E+00 0.95913940E+03</pdfrwt>
<pdfrwt beam="2">  1       -1 0.87169107E-01 0.95913940E+03</pdfrwt>
<totfact> 0.34089543E+00</totfact>
</mgrwt>
</event>
<event>
 4    1  0.2514307E-008  0.1632437E+04  0.7818608E-02  0.8821370E-01
          1   -1    0    0  501    0  0.00000000000E+00  0.00000000000E+00  0.72757830476E+03  0.72757830478E+03  0.50400000000E-02 0. -1.
         -1   -1    0    0    0  501 -0.00000000000E+00 -0.00000000000E+00 -0.46477871317E+04  0.46477871317E+04  0.50400000000E-02 0.  1.
    8880023    1    1    2    0    0  0.10845022267E+03  0.14897243874E+04 -0.34253324320E+04  0.37944370699E+04  0.65864270000E+03 0.  0.
    8880022    1    1    2    0    0 -0.10845022267E+03 -0.14897243874E+04 -0.49487639491E+03  0.15809283666E+04  0.15294330000E+03 0.  0.
<mgrwt>
<rscale>  0 0.15986631E+04</rscale>
<asrwt>0</asrwt>
<pdfrwt beam="1">  1        1 0.11193513E+00 0.16324370E+04</pdfrwt>
<pdfrwt beam="2">  1       -1 0.71504416E+00 0.16324370E+04</pdfrwt>
<totfact> 0.42181838E-03</totfact>
</mgrwt>
</event>
<event>
 4    1  0.2514307E-008  0.7416063E+03  0.7818608E-02  0.9855292E-01
          1   -1    0    0  501    0  0.00000000000E+00  0.00000000000E+00  0.32085357022E+04  0.32085357022E+04  0.50400000000E-02 0. -1.
         -1   -1    0    0    0  501 -0.00000000000E+00 -0.00000000000E+00 -0.40799286749E+03  0.40799286752E+03  0.50400000000E-02 0.  1.
    8880023    1    1    2    0    0 -0.10063550348E+02  0.34068822388E+03 -0.48411883047E+02  0.74318480718E+03  0.65864270000E+03 0.  1.
    8880022    1    1    2    0    0  0.10063550348E+02 -0.34068822388E+03  0.28489547178E+04  0.28733437626E+04  0.15294330000E+03 0.  0.
<mgrwt>
<rscale>  0 0.62477801E+03</rscale>
<asrwt>0</asrwt>
<pdfrwt beam="1">  1        1 0.49362086E+00 0.74160633E+03</pdfrwt>
<pdfrwt beam="2">  1       -1 0.62768136E-01 0.74160633E+03</pdfrwt>
<totfact> 0.11699024E+00</totfact>
</mgrwt>
</event>
<event>
 4    1  0.2514307E-008  0.7586067E+03  0.7818608E-02  0.9808728E-01
         -1   -1    0    0    0  501 -0.00000000000E+00  0.00000000000E+00  0.19203286391E+04  0.19203286391E+04  0.50400000000E-02 0.  1.
          1   -1    0    0  501    0  0.00000000000E+00 -0.00000000000E+00 -0.22186680378E+03  0.22186680383E+03  0.50400000000E-02 0. -1.
    8880023    1    1    2    0    0  0.13815001427E+03  0.35012638401E+03  0.15193012283E+04  0.16981638142E+04  0.65864270000E+03 0.  0.
    8880022    1    1    2    0    0 -0.13815001427E+03 -0.35012638401E+03  0.17916060705E+03  0.44403162878E+03  0.15294330000E+03 0.  0.
<mgrwt>
<rscale>  0 0.64896244E+03</rscale>
<asrwt>0</asrwt>
<pdfrwt beam="1">  1        1 0.34133354E-01 0.75860669E+03</pdfrwt>
<pdfrwt beam="2">  1       -1 0.29543518E+00 0.75860669E+03</pdfrwt>
<totfact> 0.47928174E+00</totfact>
</mgrwt>
</event>
<event>
 4    1  0.2514307E-008  0.1120049E+04  0.7818608E-02  0.9239055E-01
         -1   -1    0    0    0  501 -0.00000000000E+00  0.00000000000E+00  0.72852665976E+03  0.72852665978E+03  0.50400000000E-02 0.  1.
          1   -1    0    0  501    0  0.00000000000E+00 -0.00000000000E+00 -0.20902414215E+04  0.20902414215E+04  0.50400000000E-02 0. -1.
    8880023    1    1    2    0    0  0.68035422472E+03 -0.59817948902E+03  0.64881579472E+02  0.11219270911E+04  0.65864270000E+03 0.  0.
    8880022    1    1    2    0    0 -0.68035422472E+03  0.59817948902E+03 -0.14265963412E+04  0.16968409902E+04  0.15294330000E+03 0.  0.
<mgrwt>
<rscale>  0 0.10659250E+04</rscale>
<asrwt>0</asrwt>
<pdfrwt beam="1">  1        1 0.32157560E+00 0.11200495E+04</pdfrwt>
<pdfrwt beam="2">  1       -1 0.11208103E+00 0.11200495E+04</pdfrwt>
<totfact> 0.18807611E+00</totfact>
</mgrwt>
</event>
<event>
 4    1  0.2514307E-008  0.8920684E+03  0.7818608E-02  0.9538886E-01
         -1   -1    0    0    0  501 -0.00000000000E+00  0.00000000000E+00  0.34694756356E+03  0.34694756360E+03  0.50400000000E-02 0.  1.
          1   -1    0    0  501    0  0.00000000000E+00 -0.00000000000E+00 -0.21341525116E+04  0.21341525116E+04  0.50400000000E-02 0. -1.
    8880023    1    1    2    0    0  0.55639185338E+03  0.22891904371E+03 -0.43345124879E+03  0.99179938214E+03  0.65864270000E+03 0.  1.
    8880022    1    1    2    0    0 -0.55639185338E+03 -0.22891904371E+03 -0.13537536992E+04  0.14893006930E+04  0.15294330000E+03 0.  0.
<mgrwt>
<rscale>  0 0.81476619E+03</rscale>
<asrwt>0</asrwt>
<pdfrwt beam="1">  1        1 0.32833115E+00 0.89206840E+03</pdfrwt>
<pdfrwt beam="2">  1       -1 0.53376550E-01 0.89206840E+03</pdfrwt>
<totfact> 0.87834035E+00</totfact>
</mgrwt>
</event>
<event>
 4    1  0.2514307E-008  0.1025435E+04  0.7818608E-02  0.9349012E-01
         -1   -1    0    0    0  501 -0.00000000000E+00  0.00000000000E+00  0.66192128133E+03  0.66192128135E+03  0.50400000000E-02 0.  1.
          1   -1    0    0  501    0  0.00000000000E+00 -0.00000000000E+00 -0.30418160453E+04  0.30418160453E+04  0.50400000000E-02 0. -1.
    8880023    1    1    2    0    0  0.33133346386E+03 -0.71268874989E+03  0.16250914968E+03  0.10382324154E+04  0.65864270000E+03 0.  0.
    8880022    1    1    2    0    0 -0.33133346386E+03  0.71268874989E+03 -0.25424039137E+04  0.26655049112E+04  0.15294330000E+03 0.  0.
<mgrwt>
<rscale>  0 0.96393285E+03</rscale>
<asrwt>0</asrwt>
<pdfrwt beam="1">  1        1 0.46797169E+00 0.10254352E+04</pdfrwt>
<pdfrwt beam="2">  1       -1 0.10183404E+00 0.10254352E+04</pdfrwt>
<totfact> 0.52153062E-01</totfact>
</mgrwt>
</event>
<event>
 4    1  0.6439185E-008  0.2412045E+04  0.7818608E-02  0.8443223E-01
          1   -1    0    0  501    0  0.00000000000E+00  0.00000000000E+00  0.15867639146E+04  0.15867639146E+04  0.50400000000E-02 0. -1.
         -1   -1    0    0    0  501 -0.00000000000E+00 -0.00000000000E+00 -0.50351139500E+04  0.50351139500E+04  0.50400000000E-02 0.  1.
    8880023    1    1    2    0    0 -0.15381920822E+04  0.17372726550E+04 -0.35526831706E+04  0.42941261133E+04  0.65864270000E+03 0.  0.
    8880022    1    1    2    0    0  0.15381920822E+04 -0.17372726550E+04  0.10433313514E+03  0.23277517513E+04  0.15294330000E+03 0.  0.
<mgrwt>
<rscale>  0 0.23900889E+04</rscale>
<asrwt>0</asrwt>
<pdfrwt beam="1">  1        1 0.24411753E+00 0.24120451E+04</pdfrwt>
<pdfrwt beam="2">  1       -1 0.77463291E+00 0.24120451E+04</pdfrwt>
<totfact> 0.46847923E-04</totfact>
</mgrwt>
</event>
<event>
 4    1  0.2514307E-008  0.7146667E+03  0.7818608E-02  0.9941063E-01
         -1   -1    0    0    0  501 -0.00000000000E+00  0.00000000000E+00  0.43410390501E+03  0.43410390503E+03  0.50400000000E-02 0.  1.
          1   -1    0    0  501    0  0.00000000000E+00 -0.00000000000E+00 -0.12230741634E+04  0.12230741635E+04  0.50400000000E-02 0. -1.
    8880023    1    1    2    0    0 -0.51296461585E+02  0.27259308520E+03  0.92403236347E+02  0.72061562669E+03  0.65864270000E+03 0.  0.
    8880022    1    1    2    0    0  0.51296461585E+02 -0.27259308520E+03 -0.88137349479E+03  0.93656244181E+03  0.15294330000E+03 0.  0.
<mgrwt>
<rscale>  0 0.58311808E+03</rscale>
<asrwt>0</asrwt>
<pdfrwt beam="1">  1        1 0.18816525E+00 0.71466672E+03</pdfrwt>
<pdfrwt beam="2">  1       -1 0.66785217E-01 0.71466672E+03</pdfrwt>
<totfact> 0.24163177E+01</totfact>
</mgrwt>
</event>
<event>
 4    1  0.2514307E-008  0.6601418E+03  0.7818608E-02  0.1024012E+00
         -1   -1    0    0    0  501 -0.00000000000E+00  0.00000000000E+00  0.17777623850E+03  0.17777623858E+03  0.50400000000E-02 0.  1.
          1   -1    0    0  501    0  0.00000000000E+00 -0.00000000000E+00 -0.11482498516E+04  0.11482498516E+04  0.50400000000E-02 0. -1.
    8880023    1    1    2    0    0  0.40465866526E+02  0.18425863863E+02 -0.49652233157E+03  0.82602762110E+03  0.65864270000E+03 0.  1.
    8880022    1    1    2    0    0 -0.40465866526E+02 -0.18425863863E+02 -0.47395128155E+03  0.49999846911E+03  0.15294330000E+03 0.  0.
<mgrwt>
<rscale>  0 0.46266335E+03</rscale>
<asrwt>0</asrwt>
<pdfrwt beam="1">  1        1 0.17665382E+00 0.66014181E+03</pdfrwt>
<pdfrwt beam="2">  1       -1 0.27350191E-01 0.66014181E+03</pdfrwt>
<totfact> 0.14332454E+02</totfact>
</mgrwt>
</event>
<event>
 4    1  0.2514307E-008  0.7326291E+03  0.7818608E-02  0.9881963E-01
          1   -1    0    0  501    0  0.00000000000E+00  0.00000000000E+00  0.21942859023E+03  0.21942859028E+03  0.50400000000E-02 0. -1.
         -1   -1    0    0    0  501 -0.00000000000E+00 -0.00000000000E+00 -0.13576827324E+04  0.13576827324E+04  0.50400000000E-02 0.  1.
    8880023    1    1    2    0    0  0.20383207377E+03 -0.24776533346E+03 -0.70528658894E+03  0.10169437318E+04  0.65864270000E+03 0.  0.
    8880022    1    1    2    0    0 -0.20383207377E+03  0.24776533346E+03 -0.43296755321E+03  0.56016759091E+03  0.15294330000E+03 0.  1.
<mgrwt>
<rscale>  0 0.61143468E+03</rscale>
<asrwt>0</asrwt>
<pdfrwt beam="1">  1        1 0.33758245E-01 0.73262909E+03</pdfrwt>
<pdfrwt beam="2">  1       -1 0.20887426E+00 0.73262909E+03</pdfrwt>
<totfact> 0.17756729E+01</totfact>
</mgrwt>
</event>
<event>
 4    1  0.2514307E-008  0.7133371E+03  0.7818608E-02  0.9945812E-01
          1   -1    0    0  501    0  0.00000000000E+00  0.00000000000E+00  0.12431627522E+04  0.12431627522E+04  0.50400000000E-02 0. -1.
         -1   -1    0    0    0  501 -0.00000000000E+00 -0.00000000000E+00 -0.62528286612E+03  0.62528286614E+03  0.50400000000E-02 0.  1.
    8880023    1    1    2    0    0 -0.50820808101E+01 -0.27388639775E+03 -0.38991324476E+03  0.81294657335E+03  0.65864270000E+03 0.  1.
    8880022    1    1    2    0    0  0.50820808101E+01  0.27388639775E+03  0.10077931309E+04  0.10554990450E+04  0.15294330000E+03 0.  0.
<mgrwt>
<rscale>  0 0.58091517E+03</rscale>
<asrwt>0</asrwt>
<pdfrwt beam="1">  1        1 0.19125581E+00 0.71333708E+03</pdfrwt>
<pdfrwt beam="2">  1       -1 0.96197365E-01 0.71333708E+03</pdfrwt>
<totfact> 0.10763637E+01</totfact>
</mgrwt>
</event>
<event>
 4    1  0.2514307E-008  0.1398999E+04  0.7818608E-02  0.8984461E-01
          1   -1    0    0  501    0  0.00000000000E+00  0.00000000000E+00  0.12665183844E+04  0.12665183844E+04  0.50400000000E-02 0. -1.
         -1   -1    0    0    0  501 -0.00000000000E+00 -0.00000000000E+00 -0.19164599975E+04  0.19164599975E+04  0.50400000000E-02 0.  1.
    8880023    1    1    2    0    0  0.50156670021E+03 -0.11277495504E+04  0.50340104473E+03  0.14868123692E+04  0.65864270000E+03 0.  0.
    8880022    1    1    2    0    0 -0.50156670021E+03  0.11277495504E+04 -0.11533426579E+04  0.16961660127E+04  0.15294330000E+03 0.  0.
<mgrwt>
<rscale>  0 0.13584437E+04</rscale>
<asrwt>0</asrwt>
<pdfrwt beam="1">  1        1 0.19484898E+00 0.13989991E+04</pdfrwt>
<pdfrwt beam="2">  1       -1 0.29484000E+00 0.13989991E+04</pdfrwt>
<totfact> 0.32701490E-01</totfact>
</mgrwt>
</event>
<event>
 4    1  0.2514307E-008  0.8589298E+03  0.7818608E-02  0.9595470E-01
          1   -1    0    0  501    0  0.00000000000E+00  0.00000000000E+00  0.21839857443E+04  0.21839857443E+04  0.50400000000E-02 0. -1.
         -1   -1    0    0    0  501 -0.00000000000E+00 -0.00000000000E+00 -0.27220040857E+03  0.27220040862E+03  0.50400000000E-02 0.  1.
    8880023    1    1    2    0    0 -0.33443431999E+03 -0.43829652101E+03  0.67137779942E+03  0.10901873740E+04  0.65864270000E+03 0.  0.
    8880022    1    1    2    0    0  0.33443431999E+03  0.43829652101E+03  0.12404075363E+04  0.13659987788E+04  0.15294330000E+03 0.  0.
<mgrwt>
<rscale>  0 0.77596732E+03</rscale>
<asrwt>0</asrwt>
<pdfrwt beam="1">  1        1 0.33599780E+00 0.85892978E+03</pdfrwt>
<pdfrwt beam="2">  1       -1 0.41876987E-01 0.85892978E+03</pdfrwt>
<totfact> 0.12887722E+01</totfact>
</mgrwt>
</event>
<event>
 4    1  0.2514307E-008  0.1125872E+04  0.7818608E-02  0.9232783E-01
          1   -1    0    0  501    0  0.00000000000E+00  0.00000000000E+00  0.32525973586E+04  0.32525973586E+04  0.50400000000E-02 0. -1.
         -1   -1    0    0    0  501 -0.00000000000E+00 -0.00000000000E+00 -0.83641414932E+03  0.83641414933E+03  0.50400000000E-02 0.  1.
    8880023    1    1    2    0    0  0.86773087652E+03  0.28428948176E+03 -0.34435438603E+03  0.11773561623E+04  0.65864270000E+03 0.  0.
    8880022    1    1    2    0    0 -0.86773087652E+03 -0.28428948176E+03  0.27605375953E+04  0.29116553456E+04  0.15294330000E+03 0.  0.
<mgrwt>
<rscale>  0 0.10721364E+04</rscale>
<asrwt>0</asrwt>
<pdfrwt beam="1">  1        1 0.50039959E+00 0.11258719E+04</pdfrwt>
<pdfrwt beam="2">  1       -1 0.12867910E+00 0.11258719E+04</pdfrwt>
<totfact> 0.20393596E-01</totfact>
</mgrwt>
</event>
<event>
 4    1  0.2514307E-008  0.9554015E+03  0.7818608E-02  0.9442385E-01
          1   -1    0    0  501    0  0.00000000000E+00  0.00000000000E+00  0.46245867375E+03  0.46245867378E+03  0.50400000000E-02 0. -1.
         -1   -1    0    0    0  501 -0.00000000000E+00 -0.00000000000E+00 -0.17076265624E+04  0.17076265624E+04  0.50400000000E-02 0.  1.
    8880023    1    1    2    0    0  0.55849237017E+03  0.40873958532E+03 -0.10807111618E+04  0.14424730839E+04  0.65864270000E+03 0.  0.
    8880022    1    1    2    0    0 -0.55849237017E+03 -0.40873958532E+03 -0.16445672680E+03  0.72761215228E+03  0.15294330000E+03 0.  0.
<mgrwt>
<rscale>  0 0.88668174E+03</rscale>
<asrwt>0</asrwt>
<pdfrwt beam="1">  1        1 0.71147489E-01 0.95540148E+03</pdfrwt>
<pdfrwt beam="2">  1       -1 0.26271177E+00 0.95540148E+03</pdfrwt>
<totfact> 0.28862017E+00</totfact>
</mgrwt>
</event>
<event>
 4    1  0.2514307E-008  0.1421541E+04  0.7818608E-02  0.8967123E-01
         -1   -1    0    0    0  501 -0.00000000000E+00  0.00000000000E+00  0.12690148598E+04  0.12690148598E+04  0.50400000000E-02 0.  1.
          1   -1    0    0  501    0  0.00000000000E+00 -0.00000000000E+00 -0.28202287245E+04  0.28202287245E+04  0.50400000000E-02 0. -1.
    8880023    1    1    2    0    0  0.11088171455E+04  0.59790711517E+03 -0.22342178171E+04  0.26481140159E+04  0.65864270000E+03 0. -1.
    8880022    1    1    2    0    0 -0.11088171455E+04 -0.59790711517E+03  0.68300395246E+03  0.14411295683E+04  0.15294330000E+03 0.  0.
<mgrwt>
<rscale>  0 0.13817673E+04</rscale>
<asrwt>0</asrwt>
<pdfrwt beam="1">  1        1 0.43388134E+00 0.14215409E+04</pdfrwt>
<pdfrwt beam="2">  1       -1 0.19523306E+00 0.14215409E+04</pdfrwt>
<totfact> 0.12528759E-01</totfact>
</mgrwt>
</event>
<event>
 4    1  0.2514307E-008  0.7881053E+03  0.7818608E-02  0.9737131E-01
         -1   -1    0    0    0  501 -0.00000000000E+00  0.00000000000E+00  0.13161500388E+04  0.13161500388E+04  0.50400000000E-02 0.  1.
          1   -1    0    0  501    0  0.00000000000E+00 -0.00000000000E+00 -0.18272200571E+04  0.18272200571E+04  0.50400000000E-02 0. -1.
    8880023    1    1    2    0    0  0.34812115321E+03 -0.25712143640E+03  0.11644703903E+04  0.14060943306E+04  0.65864270000E+03 0.  1.
    8880022    1    1    2    0    0 -0.34812115321E+03  0.25712143640E+03 -0.16755404087E+04  0.17372757653E+04  0.15294330000E+03 0.  0.
<mgrwt>
<rscale>  0 0.68848431E+03</rscale>
<asrwt>0</asrwt>
<pdfrwt beam="1">  1        1 0.28111078E+00 0.78810531E+03</pdfrwt>
<pdfrwt beam="2">  1       -1 0.20248462E+00 0.78810531E+03</pdfrwt>
<totfact> 0.59421860E-01</totfact>
</mgrwt>
</event>
<event>
 4    1  0.2514307E-008  0.7781865E+03  0.7818608E-02  0.9760114E-01
          1   -1    0    0  501    0  0.00000000000E+00  0.00000000000E+00  0.77563406836E+03  0.77563406838E+03  0.50400000000E-02 0. -1.
         -1   -1    0    0    0  501 -0.00000000000E+00 -0.00000000000E+00 -0.71621041755E+03  0.71621041757E+03  0.50400000000E-02 0.  1.
    8880023    1    1    2    0    0 -0.21548555680E+03  0.35401987667E+03 -0.38238872450E+03  0.86706138258E+03  0.65864270000E+03 0.  0.
    8880022    1    1    2    0    0  0.21548555680E+03 -0.35401987667E+03  0.44181237531E+03  0.62478310337E+03  0.15294330000E+03 0.  0.
<mgrwt>
<rscale>  0 0.67547683E+03</rscale>
<asrwt>0</asrwt>
<pdfrwt beam="1">  1        1 0.11932832E+00 0.77818655E+03</pdfrwt>
<pdfrwt beam="2">  1       -1 0.11018622E+00 0.77818655E+03</pdfrwt>
<totfact> 0.18091151E+01</totfact>
</mgrwt>
</event>
<event>
 4    1  0.2514307E-008  0.1003258E+04  0.7818608E-02  0.9377307E-01
          1   -1    0    0  501    0  0.00000000000E+00  0.00000000000E+00  0.17503146814E+04  0.17503146814E+04  0.50400000000E-02 0. -1.
         -1   -1    0    0    0  501 -0.00000000000E+00 -0.00000000000E+00 -0.16954441315E+04  0.16954441315E+04  0.50400000000E-02 0.  1.
    8880023    1    1    2    0    0 -0.32100301831E+03  0.68532750127E+03 -0.14448238802E+04  0.17589891907E+04  0.65864270000E+03 0.  1.
    8880022    1    1    2    0    0  0.32100301831E+03 -0.68532750127E+03  0.14996944301E+04  0.16867696222E+04  0.15294330000E+03 0.  0.
<mgrwt>
<rscale>  0 0.93966960E+03</rscale>
<asrwt>0</asrwt>
<pdfrwt beam="1">  1        1 0.26927918E+00 0.10032582E+04</pdfrwt>
<pdfrwt beam="2">  1       -1 0.26083756E+00 0.10032582E+04</pdfrwt>
<totfact> 0.26466979E-01</totfact>
</mgrwt>
</event>
<event>
 4    1  0.2514307E-008  0.7086209E+03  0.7818608E-02  0.9963158E-01
         -1   -1    0    0    0  501 -0.00000000000E+00  0.00000000000E+00  0.22953182416E+03  0.22953182422E+03  0.50400000000E-02 0.  1.
          1   -1    0    0  501    0  0.00000000000E+00 -0.00000000000E+00 -0.12161008965E+04  0.12161008965E+04  0.50400000000E-02 0. -1.
    8880023    1    1    2    0    0  0.26121873586E+03 -0.99100597852E+01 -0.48153782665E+03  0.85675102685E+03  0.65864270000E+03 0.  1.
    8880022    1    1    2    0    0 -0.26121873586E+03  0.99100597852E+01 -0.50503124571E+03  0.58888169390E+03  0.15294330000E+03 0. -1.
<mgrwt>
<rscale>  0 0.57295631E+03</rscale>
<asrwt>0</asrwt>
<pdfrwt beam="1">  1        1 0.18709244E+00 0.70862094E+03</pdfrwt>
<pdfrwt beam="2">  1       -1 0.35312589E-01 0.70862094E+03</pdfrwt>
<totfact> 0.81475906E+01</totfact>
</mgrwt>
</event>
<event>
 4    1  0.2514307E-008  0.8815154E+03  0.7818608E-02  0.9556382E-01
          1   -1    0    0  501    0  0.00000000000E+00  0.00000000000E+00  0.25980089971E+04  0.25980089971E+04  0.50400000000E-02 0. -1.
         -1   -1    0    0    0  501 -0.00000000000E+00 -0.00000000000E+00 -0.61098086270E+03  0.61098086272E+03  0.50400000000E-02 0.  1.
    8880023    1    1    2    0    0 -0.19456586601E+02 -0.58556017597E+03 -0.22978018137E+03  0.91097113920E+03  0.65864270000E+03 0.  0.
    8880022    1    1    2    0    0  0.19456586601E+02  0.58556017597E+03  0.22168083158E+04  0.22980187206E+04  0.15294330000E+03 0.  0.
<mgrwt>
<rscale>  0 0.80251664E+03</rscale>
<asrwt>0</asrwt>
<pdfrwt beam="1">  1        1 0.39969370E+00 0.88151545E+03</pdfrwt>
<pdfrwt beam="2">  1       -1 0.93997055E-01 0.88151545E+03</pdfrwt>
<totfact> 0.13211977E+00</totfact>
</mgrwt>
</event>
<event>
 4    1  0.2514307E-008  0.9686797E+03  0.7818608E-02  0.9423733E-01
          1   -1    0    0  501    0  0.00000000000E+00  0.00000000000E+00  0.14114006618E+04  0.14114006618E+04  0.50400000000E-02 0. -1.
         -1   -1    0    0    0  501 -0.00000000000E+00 -0.00000000000E+00 -0.11390723121E+04  0.11390723122E+04  0.50400000000E-02 0.  1.
    8880023    1    1    2    0    0 -0.54317354617E+03  0.45770376070E+03 -0.79921448969E+03  0.12558201466E+04  0.65864270000E+03 0.  0.
    8880022    1    1    2    0    0  0.54317354617E+03 -0.45770376070E+03  0.10715428393E+04  0.12946528273E+04  0.15294330000E+03 0.  0.
<mgrwt>
<rscale>  0 0.90148057E+03</rscale>
<asrwt>0</asrwt>
<pdfrwt beam="1">  1        1 0.21713856E+00 0.96867974E+03</pdfrwt>
<pdfrwt beam="2">  1       -1 0.17524190E+00 0.96867974E+03</pdfrwt>
<totfact> 0.17159619E+00</totfact>
</mgrwt>
</event>
<event>
 4    1  0.2514307E-008  0.8193562E+03  0.7818608E-02  0.9670408E-01
         -1   -1    0    0    0  501 -0.00000000000E+00  0.00000000000E+00  0.93613946369E+03  0.93613946371E+03  0.50400000000E-02 0.  1.
          1   -1    0    0  501    0  0.00000000000E+00 -0.00000000000E+00 -0.14016103335E+04  0.14016103335E+04  0.50400000000E-02 0. -1.
    8880023    1    1    2    0    0 -0.38126796609E+03  0.30359355471E+03  0.69206296868E+03  0.10725183762E+04  0.65864270000E+03 0.  1.
    8880022    1    1    2    0    0  0.38126796609E+03 -0.30359355471E+03 -0.11575338385E+04  0.12652314210E+04  0.15294330000E+03 0.  0.
<mgrwt>
<rscale>  0 0.72806341E+03</rscale>
<asrwt>0</asrwt>
<pdfrwt beam="1">  1        1 0.21563236E+00 0.81935616E+03</pdfrwt>
<pdfrwt beam="2">  1       -1 0.14402146E+00 0.81935616E+03</pdfrwt>
<totfact> 0.30739217E+00</totfact>
</mgrwt>
</event>
<event>
 4    1  0.2514307E-008  0.1954903E+04  0.7818608E-02  0.8641367E-01
         -1   -1    0    0    0  501 -0.00000000000E+00  0.00000000000E+00  0.18616664268E+04  0.18616664268E+04  0.50400000000E-02 0.  1.
          1   -1    0    0  501    0  0.00000000000E+00 -0.00000000000E+00 -0.28572499456E+04  0.28572499456E+04  0.50400000000E-02 0. -1.
    8880023    1    1    2    0    0 -0.10806084184E+04 -0.14900066020E+04 -0.18431362478E+04  0.26867816551E+04  0.65864270000E+03 0.  0.
    8880022    1    1    2    0    0  0.10806084184E+04  0.14900066020E+04  0.84755272893E+03  0.20321347173E+04  0.15294330000E+03 0.  0.
<mgrwt>
<rscale>  0 0.19273370E+04</rscale>
<asrwt>0</asrwt>
<pdfrwt beam="1">  1        1 0.43957691E+00 0.19549027E+04</pdfrwt>
<pdfrwt beam="2">  1       -1 0.28641022E+00 0.19549027E+04</pdfrwt>
<totfact> 0.27343723E-02</totfact>
</mgrwt>
</event>
<event>
 4    1  0.2514307E-008  0.7094932E+03  0.7818608E-02  0.9959888E-01
          1   -1    0    0  501    0  0.00000000000E+00  0.00000000000E+00  0.11543486937E+04  0.11543486937E+04  0.50400000000E-02 0. -1.
         -1   -1    0    0    0  501 -0.00000000000E+00 -0.00000000000E+00 -0.41608363706E+03  0.41608363709E+03  0.50400000000E-02 0.  1.
    8880023    1    1    2    0    0  0.25353964849E+03  0.72718531936E+02 -0.63814077897E+02  0.71235720046E+03  0.65864270000E+03 0.  1.
    8880022    1    1    2    0    0 -0.25353964849E+03 -0.72718531936E+02  0.80207913449E+03  0.85807513030E+03  0.15294330000E+03 0.  0.
<mgrwt>
<rscale>  0 0.57444617E+03</rscale>
<asrwt>0</asrwt>
<pdfrwt beam="1">  1        1 0.17759210E+00 0.70949316E+03</pdfrwt>
<pdfrwt beam="2">  1       -1 0.64012869E-01 0.70949316E+03</pdfrwt>
<totfact> 0.29531746E+01</totfact>
</mgrwt>
</event>
<event>
 4    1  0.2514307E-008  0.9041349E+03  0.7818608E-02  0.9519426E-01
         -1   -1    0    0    0  501 -0.00000000000E+00  0.00000000000E+00  0.16032145865E+04  0.16032145865E+04  0.50400000000E-02 0.  1.
          1   -1    0    0  501    0  0.00000000000E+00 -0.00000000000E+00 -0.84242288344E+03  0.84242288345E+03  0.50400000000E-02 0. -1.
    8880023    1    1    2    0    0 -0.16526432193E+03 -0.59694010755E+03  0.13181779774E+04  0.15984533695E+04  0.65864270000E+03 0.  1.
    8880022    1    1    2    0    0  0.16526432193E+03  0.59694010755E+03 -0.55738627439E+03  0.84718410041E+03  0.15294330000E+03 0.  0.
<mgrwt>
<rscale>  0 0.82866647E+03</rscale>
<asrwt>0</asrwt>
<pdfrwt beam="1">  1        1 0.12960352E+00 0.90413494E+03</pdfrwt>
<pdfrwt beam="2">  1       -1 0.24664840E+00 0.90413494E+03</pdfrwt>
<totfact> 0.15225532E+00</totfact>
</mgrwt>
</event>
<event>
 4    1  0.2514307E-008  0.9305804E+03  0.7818608E-02  0.9478623E-01
         -1   -1    0    0    0  501 -0.00000000000E+00  0.00000000000E+00  0.50027230911E+03  0.50027230914E+03  0.50400000000E-02 0.  1.
          1   -1    0    0  501    0  0.00000000000E+00 -0.00000000000E+00 -0.21898988797E+04  0.21898988797E+04  0.50400000000E-02 0. -1.
    8880023    1    1    2    0    0  0.62865377086E+03  0.19226075927E+03 -0.67264057403E+02  0.93300826516E+03  0.65864270000E+03 0.  1.
    8880022    1    1    2    0    0 -0.62865377086E+03 -0.19226075927E+03 -0.16223625132E+04  0.17571629237E+04  0.15294330000E+03 0.  0.
<mgrwt>
<rscale>  0 0.85878373E+03</rscale>
<asrwt>0</asrwt>
<pdfrwt beam="1">  1        1 0.33690751E+00 0.93058045E+03</pdfrwt>
<pdfrwt beam="2">  1       -1 0.76964972E-01 0.93058045E+03</pdfrwt>
<totfact> 0.38375718E+00</totfact>
</mgrwt>
</event>
<event>
 4    1  0.2514307E-008  0.1026793E+04  0.7818608E-02  0.9347314E-01
          1   -1    0    0  501    0  0.00000000000E+00  0.00000000000E+00  0.17370688836E+04  0.17370688836E+04  0.50400000000E-02 0. -1.
         -1   -1    0    0    0  501 -0.00000000000E+00 -0.00000000000E+00 -0.48832441994E+03  0.48832441997E+03  0.50400000000E-02 0.  1.
    8880023    1    1    2    0    0 -0.26037289179E+03 -0.74343829459E+03  0.56995203240E+03  0.11743722009E+04  0.65864270000E+03 0.  0.
    8880022    1    1    2    0    0  0.26037289179E+03  0.74343829459E+03  0.67879243130E+03  0.10510211028E+04  0.15294330000E+03 0.  0.
<mgrwt>
<rscale>  0 0.96541368E+03</rscale>
<asrwt>0</asrwt>
<pdfrwt beam="1">  1        1 0.26724137E+00 0.10267934E+04</pdfrwt>
<pdfrwt beam="2">  1       -1 0.75126834E-01 0.10267934E+04</pdfrwt>
<totfact> 0.80515615E+00</totfact>
</mgrwt>
</event>
<event>
 4    1  0.2514307E-008  0.9293805E+03  0.7818608E-02  0.9480423E-01
          1   -1    0    0  501    0  0.00000000000E+00  0.00000000000E+00  0.20109873587E+04  0.20109873587E+04  0.50400000000E-02 0. -1.
         -1   -1    0    0    0  501 -0.00000000000E+00 -0.00000000000E+00 -0.53057630898E+03  0.53057630900E+03  0.50400000000E-02 0.  1.
    8880023    1    1    2    0    0  0.24366425406E+03 -0.60874102940E+03  0.16070720604E+04  0.18564559578E+04  0.65864270000E+03 0.  0.
    8880022    1    1    2    0    0 -0.24366425406E+03  0.60874102940E+03 -0.12666101067E+03  0.68510770994E+03  0.15294330000E+03 0.  1.
<mgrwt>
<rscale>  0 0.85742654E+03</rscale>
<asrwt>0</asrwt>
<pdfrwt beam="1">  1        1 0.30938267E+00 0.92938050E+03</pdfrwt>
<pdfrwt beam="2">  1       -1 0.81627124E-01 0.92938050E+03</pdfrwt>
<totfact> 0.44696332E+00</totfact>
</mgrwt>
</event>
<event>
 4    1  0.2514307E-008  0.1154340E+04  0.7818608E-02  0.9202838E-01
          1   -1    0    0  501    0  0.00000000000E+00  0.00000000000E+00  0.89400819481E+03  0.89400819482E+03  0.50400000000E-02 0. -1.
         -1   -1    0    0    0  501 -0.00000000000E+00 -0.00000000000E+00 -0.14951390626E+04  0.14951390626E+04  0.50400000000E-02 0.  1.
    8880023    1    1    2    0    0 -0.82724647274E+03  0.46298304765E+03  0.15795880996E+03  0.11650970865E+04  0.65864270000E+03 0. -1.
    8880022    1    1    2    0    0  0.82724647274E+03 -0.46298304765E+03 -0.75908967778E+03  0.12240501709E+04  0.15294330000E+03 0.  0.
<mgrwt>
<rscale>  0 0.11024183E+04</rscale>
<asrwt>0</asrwt>
<pdfrwt beam="1">  1        1 0.13753972E+00 0.11543397E+04</pdfrwt>
<pdfrwt beam="2">  1       -1 0.23002139E+00 0.11543397E+04</pdfrwt>
<totfact> 0.17146300E+00</totfact>
</mgrwt>
</event>
<event>
 4    1  0.2514307E-008  0.9234366E+03  0.7818608E-02  0.9489410E-01
          1   -1    0    0  501    0  0.00000000000E+00  0.00000000000E+00  0.54337719122E+03  0.54337719124E+03  0.50400000000E-02 0. -1.
         -1   -1    0    0    0  501 -0.00000000000E+00 -0.00000000000E+00 -0.19610179461E+04  0.19610179461E+04  0.50400000000E-02 0.  1.
    8880023    1    1    2    0    0  0.44626071433E+03  0.46880312206E+03 -0.15706077831E+04  0.18219615822E+04  0.65864270000E+03 0.  0.
    8880022    1    1    2    0    0 -0.44626071433E+03 -0.46880312206E+03  0.15296702824E+03  0.68243355512E+03  0.15294330000E+03 0.  0.
<mgrwt>
<rscale>  0 0.85069128E+03</rscale>
<asrwt>0</asrwt>
<pdfrwt beam="1">  1        1 0.83596492E-01 0.92343662E+03</pdfrwt>
<pdfrwt beam="2">  1       -1 0.30169506E+00 0.92343662E+03</pdfrwt>
<totfact> 0.13028137E+00</totfact>
</mgrwt>
</event>
<event>
 4    1  0.2514307E-008  0.7868199E+03  0.7818608E-02  0.9740054E-01
         -1   -1    0    0    0  501 -0.00000000000E+00  0.00000000000E+00  0.11015756620E+04  0.11015756621E+04  0.50400000000E-02 0.  1.
          1   -1    0    0  501    0  0.00000000000E+00 -0.00000000000E+00 -0.61716491520E+03  0.61716491522E+03  0.50400000000E-02 0. -1.
    8880023    1    1    2    0    0  0.84837023358E+02  0.42199300057E+03  0.83170579045E+03  0.11449105385E+04  0.65864270000E+03 0.  1.
    8880022    1    1    2    0    0 -0.84837023358E+02 -0.42199300057E+03 -0.34729504360E+03  0.57383003876E+03  0.15294330000E+03 0.  0.
<mgrwt>
<rscale>  0 0.68681261E+03</rscale>
<asrwt>0</asrwt>
<pdfrwt beam="1">  1        1 0.94948448E-01 0.78681994E+03</pdfrwt>
<pdfrwt beam="2">  1       -1 0.16947318E+00 0.78681994E+03</pdfrwt>
<totfact> 0.83810285E+00</totfact>
</mgrwt>
</event>
<event>
 4    1  0.2514307E-008  0.1018724E+04  0.7818608E-02  0.9357460E-01
         -1   -1    0    0    0  501 -0.00000000000E+00  0.00000000000E+00  0.74114989324E+03  0.74114989326E+03  0.50400000000E-02 0.  1.
          1   -1    0    0  501    0  0.00000000000E+00 -0.00000000000E+00 -0.19686227532E+04  0.19686227532E+04  0.50400000000E-02 0. -1.
    8880023    1    1    2    0    0 -0.61770691400E+03 -0.47162214416E+03 -0.15497907124E+04  0.18546295417E+04  0.65864270000E+03 0.  0.
    8880022    1    1    2    0    0  0.61770691400E+03  0.47162214416E+03  0.32231785250E+03  0.85514310470E+03  0.15294330000E+03 0.  0.
<mgrwt>
<rscale>  0 0.95660789E+03</rscale>
<asrwt>0</asrwt>
<pdfrwt beam="1">  1        1 0.30286504E+00 0.10187244E+04</pdfrwt>
<pdfrwt beam="2">  1       -1 0.11402306E+00 0.10187244E+04</pdfrwt>
<totfact> 0.22100997E+00</totfact>
</mgrwt>
</event>
<event>
 4    1  0.2514307E-008  0.8715632E+03  0.7818608E-02  0.9573317E-01
          1   -1    0    0  501    0  0.00000000000E+00  0.00000000000E+00  0.24552340029E+04  0.24552340029E+04  0.50400000000E-02 0. -1.
         -1   -1    0    0    0  501 -0.00000000000E+00 -0.00000000000E+00 -0.24519874500E+03  0.24519874506E+03  0.50400000000E-02 0.  1.
    8880023    1    1    2    0    0 -0.50772423731E+03  0.26082235835E+03  0.17373366174E+04  0.19436977471E+04  0.65864270000E+03 0.  0.
    8880022    1    1    2    0    0  0.50772423731E+03 -0.26082235835E+03  0.47269864054E+03  0.75673500087E+03  0.15294330000E+03 0.  0.
<mgrwt>
<rscale>  0 0.79087718E+03</rscale>
<asrwt>0</asrwt>
<pdfrwt beam="1">  1        1 0.37772830E+00 0.87156320E+03</pdfrwt>
<pdfrwt beam="2">  1       -1 0.37722885E-01 0.87156320E+03</pdfrwt>
<totfact> 0.10193262E+01</totfact>
</mgrwt>
</event>
<event>
 4    1  0.2514307E-008  0.1142527E+04  0.7818608E-02  0.9215121E-01
         -1   -1    0    0    0  501 -0.00000000000E+00  0.00000000000E+00  0.77419279516E+03  0.77419279518E+03  0.50400000000E-02 0.  1.
          1   -1    0    0  501    0  0.00000000000E+00 -0.00000000000E+00 -0.22865583831E+04  0.22865583831E+04  0.50400000000E-02 0. -1.
    8880023    1    1    2    0    0 -0.54467302412E+03  0.75821502072E+03  0.14571018116E+03  0.11517813959E+04  0.65864270000E+03 0.  1.
    8880022    1    1    2    0    0  0.54467302412E+03 -0.75821502072E+03 -0.16580757691E+04  0.19089697824E+04  0.15294330000E+03 0.  0.
<mgrwt>
<rscale>  0 0.10898704E+04</rscale>
<asrwt>0</asrwt>
<pdfrwt beam="1">  1        1 0.35177821E+00 0.11425274E+04</pdfrwt>
<pdfrwt beam="2">  1       -1 0.11910659E+00 0.11425274E+04</pdfrwt>
<totfact> 0.11917874E+00</totfact>
</mgrwt>
</event>
<event>
 4    1  0.2514307E-008  0.7848559E+03  0.7818608E-02  0.9744552E-01
         -1   -1    0    0    0  501 -0.00000000000E+00  0.00000000000E+00  0.18001388713E+03  0.18001388720E+03  0.50400000000E-02 0.  1.
          1   -1    0    0  501    0  0.00000000000E+00 -0.00000000000E+00 -0.40671932785E+04  0.40671932785E+04  0.50400000000E-02 0. -1.
    8880023    1    1    2    0    0  0.14247855091E+03  0.40235356889E+03 -0.77791287658E+03  0.11050552844E+04  0.65864270000E+03 0.  1.
    8880022    1    1    2    0    0 -0.14247855091E+03 -0.40235356889E+03 -0.31092665148E+04  0.31421518813E+04  0.15294330000E+03 0.  0.
<mgrwt>
<rscale>  0 0.68425045E+03</rscale>
<asrwt>0</asrwt>
<pdfrwt beam="1">  1        1 0.62572198E+00 0.78485587E+03</pdfrwt>
<pdfrwt beam="2">  1       -1 0.27694447E-01 0.78485587E+03</pdfrwt>
<totfact> 0.10776127E+00</totfact>
</mgrwt>
</event>
<event>
 4    1  0.2514307E-008  0.7971486E+03  0.7818608E-02  0.9716996E-01
          1   -1    0    0  501    0  0.00000000000E+00  0.00000000000E+00  0.16754358930E+04  0.16754358930E+04  0.50400000000E-02 0. -1.
         -1   -1    0    0    0  501 -0.00000000000E+00 -0.00000000000E+00 -0.53398639747E+03  0.53398639749E+03  0.50400000000E-02 0.  1.
    8880023    1    1    2    0    0 -0.44893929353E+03 -0.94474970664E+01 -0.16977509727E+03  0.81502732126E+03  0.65864270000E+03 0.  0.
    8880022    1    1    2    0    0  0.44893929353E+03  0.94474970664E+01  0.13112245928E+04  0.13943949693E+04  0.15294330000E+03 0.  0.
<mgrwt>
<rscale>  0 0.70013841E+03</rscale>
<asrwt>0</asrwt>
<pdfrwt beam="1">  1        1 0.25775937E+00 0.79714864E+03</pdfrwt>
<pdfrwt beam="2">  1       -1 0.82151754E-01 0.79714864E+03</pdfrwt>
<totfact> 0.75551499E+00</totfact>
</mgrwt>
</event>
<event>
 4    1  0.2514307E-008  0.8480992E+03  0.7818608E-02  0.9615094E-01
          1   -1    0    0  501    0  0.00000000000E+00  0.00000000000E+00  0.18570592371E+04  0.18570592371E+04  0.50400000000E-02 0. -1.
         -1   -1    0    0    0  501 -0.00000000000E+00 -0.00000000000E+00 -0.17993046099E+04  0.17993046099E+04  0.50400000000E-02 0.  1.
    8880023    1    1    2    0    0  0.49218396515E+03 -0.20788699573E+03 -0.16528557330E+04  0.18577417310E+04  0.65864270000E+03 0.  1.
    8880022    1    1    2    0    0 -0.49218396515E+03  0.20788699573E+03  0.17106103602E+04  0.17986221160E+04  0.15294330000E+03 0.  0.
<mgrwt>
<rscale>  0 0.76305193E+03</rscale>
<asrwt>0</asrwt>
<pdfrwt beam="1">  1        1 0.28570142E+00 0.84809921E+03</pdfrwt>
<pdfrwt beam="2">  1       -1 0.27681609E+00 0.84809921E+03</pdfrwt>
<totfact> 0.18267193E-01</totfact>
</mgrwt>
</event>
<event>
 4    1  0.2514307E-008  0.6709186E+03  0.7818608E-02  0.1015013E+00
         -1   -1    0    0    0  501 -0.00000000000E+00  0.00000000000E+00  0.59805347960E+03  0.59805347962E+03  0.50400000000E-02 0.  1.
          1   -1    0    0  501    0  0.00000000000E+00 -0.00000000000E+00 -0.13026170300E+04  0.13026170300E+04  0.50400000000E-02 0. -1.
    8880023    1    1    2    0    0  0.26282243057E+02  0.12502313735E+03  0.39810385845E+03  0.78014000638E+03  0.65864270000E+03 0.  1.
    8880022    1    1    2    0    0 -0.26282243057E+02 -0.12502313735E+03 -0.11026674089E+04  0.11205305033E+04  0.15294330000E+03 0.  0.
<mgrwt>
<rscale>  0 0.49530102E+03</rscale>
<asrwt>0</asrwt>
<pdfrwt beam="1">  1        1 0.20040262E+00 0.67091858E+03</pdfrwt>
<pdfrwt beam="2">  1       -1 0.92008228E-01 0.67091858E+03</pdfrwt>
<totfact> 0.10857483E+01</totfact>
</mgrwt>
</event>
<event>
 4    1  0.2514307E-008  0.1888200E+04  0.7818608E-02  0.8675255E-01
         -1   -1    0    0    0  501 -0.00000000000E+00  0.00000000000E+00  0.13986697042E+04  0.13986697042E+04  0.50400000000E-02 0.  1.
          1   -1    0    0  501    0  0.00000000000E+00 -0.00000000000E+00 -0.30672577061E+04  0.30672577061E+04  0.50400000000E-02 0. -1.
    8880023    1    1    2    0    0 -0.88783109016E+03 -0.15307665492E+04  0.18677497853E+03  0.18974154452E+04  0.65864270000E+03 0.  0.
    8880022    1    1    2    0    0  0.88783109016E+03  0.15307665492E+04 -0.18553629804E+04  0.25685119651E+04  0.15294330000E+03 0.  0.
<mgrwt>
<rscale>  0 0.18595546E+04</rscale>
<asrwt>0</asrwt>
<pdfrwt beam="1">  1        1 0.47188580E+00 0.18882003E+04</pdfrwt>
<pdfrwt beam="2">  1       -1 0.21517996E+00 0.18882003E+04</pdfrwt>
<totfact> 0.57152396E-02</totfact>
</mgrwt>
</event>
<event>
 4    1  0.2514307E-008  0.1038888E+04  0.7818608E-02  0.9332360E-01
         -1   -1    0    0    0  501 -0.00000000000E+00  0.00000000000E+00  0.35986744487E+03  0.35986744490E+03  0.50400000000E-02 0.  1.
          1   -1    0    0  501    0  0.00000000000E+00 -0.00000000000E+00 -0.40632204998E+04  0.40632204998E+04  0.50400000000E-02 0. -1.
    8880023    1    1    2    0    0  0.44953064357E+03  0.66588336634E+03 -0.57046303284E+03  0.11852074650E+04  0.65864270000E+03 0.  1.
    8880022    1    1    2    0    0 -0.44953064357E+03 -0.66588336634E+03 -0.31328900221E+04  0.32378804797E+04  0.15294330000E+03 0.  0.
<mgrwt>
<rscale>  0 0.97857548E+03</rscale>
<asrwt>0</asrwt>
<pdfrwt beam="1">  1        1 0.62511082E+00 0.10388882E+04</pdfrwt>
<pdfrwt beam="2">  1       -1 0.55364225E-01 0.10388882E+04</pdfrwt>
<totfact> 0.29168139E-01</totfact>
</mgrwt>
</event>
<event>
 4    1  0.2514307E-008  0.7033880E+03  0.7818608E-02  0.9983426E-01
         -1   -1    0    0    0  501 -0.00000000000E+00  0.00000000000E+00  0.81775691673E+03  0.81775691675E+03  0.50400000000E-02 0.  1.
          1   -1    0    0  501    0  0.00000000000E+00 -0.00000000000E+00 -0.14123806466E+04  0.14123806466E+04  0.50400000000E-02 0. -1.
    8880023    1    1    2    0    0  0.24117172758E+03  0.52732139541E+02  0.64657794751E+03  0.95541495131E+03  0.65864270000E+03 0.  1.
    8880022    1    1    2    0    0 -0.24117172758E+03 -0.52732139541E+02 -0.12412016774E+04  0.12747226120E+04  0.15294330000E+03 0.  0.
<mgrwt>
<rscale>  0 0.56382968E+03</rscale>
<asrwt>0</asrwt>
<pdfrwt beam="1">  1        1 0.21728933E+00 0.70338801E+03</pdfrwt>
<pdfrwt beam="2">  1       -1 0.12580876E+00 0.70338801E+03</pdfrwt>
<totfact> 0.43543448E+00</totfact>
</mgrwt>
</event>
<event>
 4    1  0.2514307E-008  0.8817594E+03  0.7818608E-02  0.9555972E-01
         -1   -1    0    0    0  501 -0.00000000000E+00  0.00000000000E+00  0.68639918459E+03  0.68639918461E+03  0.50400000000E-02 0.  1.
          1   -1    0    0  501    0  0.00000000000E+00 -0.00000000000E+00 -0.18059238280E+04  0.18059238280E+04  0.50400000000E-02 0. -1.
    8880023    1    1    2    0    0 -0.60600358990E+02  0.58310976993E+03  0.31401738520E+03  0.93600562593E+03  0.65864270000E+03 0.  1.
    8880022    1    1    2    0    0  0.60600358990E+02 -0.58310976993E+03 -0.14335420286E+04  0.15563173866E+04  0.15294330000E+03 0.  0.
<mgrwt>
<rscale>  0 0.80280083E+03</rscale>
<asrwt>0</asrwt>
<pdfrwt beam="1">  1        1 0.27783443E+00 0.88175939E+03</pdfrwt>
<pdfrwt beam="2">  1       -1 0.10559988E+00 0.88175939E+03</pdfrwt>
<totfact> 0.34782448E+00</totfact>
</mgrwt>
</event>
<event>
 4    1  0.2514307E-008  0.7452097E+03  0.7818608E-02  0.9845023E-01
          1   -1    0    0  501    0  0.00000000000E+00  0.00000000000E+00  0.10741398896E+04  0.10741398896E+04  0.50400000000E-02 0. -1.
         -1   -1    0    0    0  501 -0.00000000000E+00 -0.00000000000E+00 -0.44647710822E+03  0.44647710824E+03  0.50400000000E-02 0.  1.
    8880023    1    1    2    0    0  0.64264504884E+02  0.34263294995E+03 -0.46220631550E+02  0.74664169320E+03  0.65864270000E+03 0.  1.
    8880022    1    1    2    0    0 -0.64264504884E+02 -0.34263294995E+03  0.67388341294E+03  0.77397530467E+03  0.15294330000E+03 0.  0.
<mgrwt>
<rscale>  0 0.63001299E+03</rscale>
<asrwt>0</asrwt>
<pdfrwt beam="1">  1        1 0.16525229E+00 0.74520968E+03</pdfrwt>
<pdfrwt beam="2">  1       -1 0.68688786E-01 0.74520968E+03</pdfrwt>
<totfact> 0.29256662E+01</totfact>
</mgrwt>
</event>
<event>
 4    1  0.2514307E-008  0.7230123E+03  0.7818608E-02  0.9912522E-01
          1   -1    0    0  501    0  0.00000000000E+00  0.00000000000E+00  0.14125768062E+04  0.14125768063E+04  0.50400000000E-02 0. -1.
         -1   -1    0    0    0  501 -0.00000000000E+00 -0.00000000000E+00 -0.60933195960E+03  0.60933195962E+03  0.50400000000E-02 0.  1.
    8880023    1    1    2    0    0 -0.90742481594E+02 -0.28408161330E+03 -0.36260243868E+03  0.80884318368E+03  0.65864270000E+03 0.  1.
    8880022    1    1    2    0    0  0.90742481594E+02  0.28408161330E+03  0.11658472853E+04  0.12130655822E+04  0.15294330000E+03 0.  0.
<mgrwt>
<rscale>  0 0.59658230E+03</rscale>
<asrwt>0</asrwt>
<pdfrwt beam="1">  1        1 0.21731951E+00 0.72301229E+03</pdfrwt>
<pdfrwt beam="2">  1       -1 0.93743379E-01 0.72301229E+03</pdfrwt>
<totfact> 0.86565974E+00</totfact>
</mgrwt>
</event>
<event>
 4    1  0.2514307E-008  0.1049427E+04  0.7818608E-02  0.9319571E-01
          1   -1    0    0  501    0  0.00000000000E+00  0.00000000000E+00  0.16055322009E+04  0.16055322009E+04  0.50400000000E-02 0. -1.
         -1   -1    0    0    0  501 -0.00000000000E+00 -0.00000000000E+00 -0.61790710054E+03  0.61790710056E+03  0.50400000000E-02 0.  1.
    8880023    1    1    2    0    0  0.66992965818E+03 -0.46763250141E+03  0.18047346237E+03  0.10648318084E+04  0.65864270000E+03 0.  1.
    8880022    1    1    2    0    0 -0.66992965818E+03  0.46763250141E+03  0.80715163801E+03  0.11586074931E+04  0.15294330000E+03 0.  0.
<mgrwt>
<rscale>  0 0.99000907E+03</rscale>
<asrwt>0</asrwt>
<pdfrwt beam="1">  1        1 0.24700495E+00 0.10494266E+04</pdfrwt>
<pdfrwt beam="2">  1       -1 0.95062632E-01 0.10494266E+04</pdfrwt>
<totfact> 0.59188353E+00</totfact>
</mgrwt>
</event>
<event>
 4    1  0.2514307E-008  0.1271421E+04  0.7818608E-02  0.9090641E-01
          1   -1    0    0  501    0  0.00000000000E+00  0.00000000000E+00  0.21715855527E+04  0.21715855527E+04  0.50400000000E-02 0. -1.
         -1   -1    0    0    0  501 -0.00000000000E+00 -0.00000000000E+00 -0.87572401342E+03  0.87572401343E+03  0.50400000000E-02 0.  1.
    8880023    1    1    2    0    0 -0.98074756504E+03 -0.46993077859E+03 -0.95202478728E+02  0.12749801729E+04  0.65864270000E+03 0.  1.
    8880022    1    1    2    0    0  0.98074756504E+03  0.46993077859E+03  0.13910640180E+04  0.17723293932E+04  0.15294330000E+03 0.  0.
<mgrwt>
<rscale>  0 0.12257152E+04</rscale>
<asrwt>0</asrwt>
<pdfrwt beam="1">  1        1 0.33409008E+00 0.12714208E+04</pdfrwt>
<pdfrwt beam="2">  1       -1 0.13472677E+00 0.12714208E+04</pdfrwt>
<totfact> 0.10294292E+00</totfact>
</mgrwt>
</event>
<event>
 4    1  0.2514307E-008  0.2194113E+04  0.7818608E-02  0.8531100E-01
          1   -1    0    0  501    0  0.00000000000E+00  0.00000000000E+00  0.38224208476E+04  0.38224208476E+04  0.50400000000E-02 0. -1.
         -1   -1    0    0    0  501 -0.00000000000E+00 -0.00000000000E+00 -0.12673078622E+04  0.12673078622E+04  0.50400000000E-02 0.  1.
    8880023    1    1    2    0    0 -0.17838972728E+04 -0.10945463602E+04  0.18680293279E+04  0.28816080564E+04  0.65864270000E+03 0. -1.
    8880022    1    1    2    0    0  0.17838972728E+04  0.10945463602E+04  0.68708365748E+03  0.22081206534E+04  0.15294330000E+03 0.  0.
<mgrwt>
<rscale>  0 0.21698095E+04</rscale>
<asrwt>0</asrwt>
<pdfrwt beam="1">  1        1 0.58806475E+00 0.21941129E+04</pdfrwt>
<pdfrwt beam="2">  1       -1 0.19497044E+00 0.21941129E+04</pdfrwt>
<totfact> 0.19530716E-02</totfact>
</mgrwt>
</event>
<event>
 4    1  0.2514307E-008  0.1529798E+04  0.7818608E-02  0.8888876E-01
         -1   -1    0    0    0  501 -0.00000000000E+00  0.00000000000E+00  0.21858168461E+04  0.21858168461E+04  0.50400000000E-02 0.  1.
          1   -1    0    0  501    0  0.00000000000E+00 -0.00000000000E+00 -0.11350718474E+04  0.11350718474E+04  0.50400000000E-02 0. -1.
    8880023    1    1    2    0    0 -0.13600605477E+04 -0.23813493543E+03  0.11709513013E+04  0.19265020366E+04  0.65864270000E+03 0.  0.
    8880022    1    1    2    0    0  0.13600605477E+04  0.23813493543E+03 -0.12020630260E+03  0.13943866569E+04  0.15294330000E+03 0.  0.
<mgrwt>
<rscale>  0 0.14933669E+04</rscale>
<asrwt>0</asrwt>
<pdfrwt beam="1">  1        1 0.17462644E+00 0.15297984E+04</pdfrwt>
<pdfrwt beam="2">  1       -1 0.33627951E+00 0.15297984E+04</pdfrwt>
<totfact> 0.21633021E-01</totfact>
</mgrwt>
</event>
<event>
 4    1  0.2514307E-008  0.8079696E+03  0.7818608E-02  0.9693822E-01
          1   -1    0    0  501    0  0.00000000000E+00  0.00000000000E+00  0.39375110989E+04  0.39375110989E+04  0.50400000000E-02 0. -1.
         -1   -1    0    0    0  501 -0.00000000000E+00 -0.00000000000E+00 -0.11701061613E+03  0.11701061624E+03  0.50400000000E-02 0.  1.
    8880023    1    1    2    0    0  0.46795204485E+03 -0.50593921967E+01  0.29021451667E+04  0.30125174669E+04  0.65864270000E+03 0.  0.
    8880022    1    1    2    0    0 -0.46795204485E+03  0.50593921967E+01  0.91835531609E+03  0.10420042482E+04  0.15294330000E+03 0.  0.
<mgrwt>
<rscale>  0 0.71385834E+03</rscale>
<asrwt>0</asrwt>
<pdfrwt beam="1">  1        1 0.60577078E+00 0.80796963E+03</pdfrwt>
<pdfrwt beam="2">  1       -1 0.18001638E-01 0.80796963E+03</pdfrwt>
<totfact> 0.28721535E+00</totfact>
</mgrwt>
</event>
<event>
 4    1  0.2514307E-008  0.9183277E+03  0.7818608E-02  0.9497228E-01
          1   -1    0    0  501    0  0.00000000000E+00  0.00000000000E+00  0.14320217462E+04  0.14320217462E+04  0.50400000000E-02 0. -1.
         -1   -1    0    0    0  501 -0.00000000000E+00 -0.00000000000E+00 -0.93893744084E+03  0.93893744086E+03  0.50400000000E-02 0.  1.
    8880023    1    1    2    0    0 -0.44710640491E+03 -0.45783331985E+03 -0.59869427912E+03  0.10962483898E+04  0.65864270000E+03 0.  1.
    8880022    1    1    2    0    0  0.44710640491E+03  0.45783331985E+03  0.10917785844E+04  0.12747107972E+04  0.15294330000E+03 0.  0.
<mgrwt>
<rscale>  0 0.84488499E+03</rscale>
<asrwt>0</asrwt>
<pdfrwt beam="1">  1        1 0.22031104E+00 0.91832766E+03</pdfrwt>
<pdfrwt beam="2">  1       -1 0.14445191E+00 0.91832766E+03</pdfrwt>
<totfact> 0.28614661E+00</totfact>
</mgrwt>
</event>
<event>
 4    1  0.2514307E-008  0.8783961E+03  0.7818608E-02  0.9561643E-01
          1   -1    0    0  501    0  0.00000000000E+00  0.00000000000E+00  0.73220232521E+03  0.73220232523E+03  0.50400000000E-02 0. -1.
         -1   -1    0    0    0  501 -0.00000000000E+00 -0.00000000000E+00 -0.10256922057E+04  0.10256922058E+04  0.50400000000E-02 0.  1.
    8880023    1    1    2    0    0  0.48200085018E+03  0.32472236946E+03 -0.61885333031E+03  0.10745041124E+04  0.65864270000E+03 0.  0.
    8880022    1    1    2    0    0 -0.48200085018E+03 -0.32472236946E+03  0.32536344978E+03  0.68339041862E+03  0.15294330000E+03 0.  0.
<mgrwt>
<rscale>  0 0.79887790E+03</rscale>
<asrwt>0</asrwt>
<pdfrwt beam="1">  1        1 0.11264651E+00 0.87839606E+03</pdfrwt>
<pdfrwt beam="2">  1       -1 0.15779880E+00 0.87839606E+03</pdfrwt>
<totfact> 0.78442392E+00</totfact>
</mgrwt>
</event>
<event>
 4    1  0.2514307E-008  0.7105193E+03  0.7818608E-02  0.9956078E-01
          1   -1    0    0  501    0  0.00000000000E+00  0.00000000000E+00  0.32126409164E+04  0.32126409164E+04  0.50400000000E-02 0. -1.
         -1   -1    0    0    0  501 -0.00000000000E+00 -0.00000000000E+00 -0.17503872665E+03  0.17503872672E+03  0.50400000000E-02 0.  1.
    8880023    1    1    2    0    0  0.26097181275E+03 -0.54047954586E+02  0.59764149495E+03  0.92844656885E+03  0.65864270000E+03 0.  1.
    8880022    1    1    2    0    0 -0.26097181275E+03  0.54047954586E+02  0.24399606948E+04  0.24592330743E+04  0.15294330000E+03 0.  0.
<mgrwt>
<rscale>  0 0.57618826E+03</rscale>
<asrwt>0</asrwt>
<pdfrwt beam="1">  1        1 0.49425248E+00 0.71051930E+03</pdfrwt>
<pdfrwt beam="2">  1       -1 0.26929033E-01 0.71051930E+03</pdfrwt>
<totfact> 0.55285483E+00</totfact>
</mgrwt>
</event>
<event>
 4    1  0.2514307E-008  0.7839525E+03  0.7818608E-02  0.9746633E-01
         -1   -1    0    0    0  501 -0.00000000000E+00  0.00000000000E+00  0.85836612277E+03  0.85836612278E+03  0.50400000000E-02 0.  1.
          1   -1    0    0  501    0  0.00000000000E+00 -0.00000000000E+00 -0.25076742333E+04  0.25076742333E+04  0.50400000000E-02 0. -1.
    8880023    1    1    2    0    0 -0.68125480244E+02 -0.41967876491E+03  0.65270574489E+03  0.10201011432E+04  0.65864270000E+03 0.  0.
    8880022    1    1    2    0    0  0.68125480244E+02  0.41967876491E+03 -0.23020138554E+04  0.23459392128E+04  0.15294330000E+03 0. -1.
<mgrwt>
<rscale>  0 0.68306880E+03</rscale>
<asrwt>0</asrwt>
<pdfrwt beam="1">  1        1 0.38579603E+00 0.78395252E+03</pdfrwt>
<pdfrwt beam="2">  1       -1 0.13205633E+00 0.78395252E+03</pdfrwt>
<totfact> 0.69239439E-01</totfact>
</mgrwt>
</event>
<event>
 4    1  0.2514307E-008  0.8351437E+03  0.7818608E-02  0.9639406E-01
          1   -1    0    0  501    0  0.00000000000E+00  0.00000000000E+00  0.98487134117E+03  0.98487134119E+03  0.50400000000E-02 0. -1.
         -1   -1    0    0    0  501 -0.00000000000E+00 -0.00000000000E+00 -0.21229222231E+04  0.21229222231E+04  0.50400000000E-02 0.  1.
    8880023    1    1    2    0    0  0.21263187058E+03 -0.46737831304E+03 -0.19578033035E+04  0.21284874398E+04  0.65864270000E+03 0.  0.
    8880022    1    1    2    0    0 -0.21263187058E+03  0.46737831304E+03  0.81975242155E+03  0.97930612453E+03  0.15294330000E+03 0.  0.
<mgrwt>
<rscale>  0 0.74742037E+03</rscale>
<asrwt>0</asrwt>
<pdfrwt beam="1">  1        1 0.15151867E+00 0.83514370E+03</pdfrwt>
<pdfrwt beam="2">  1       -1 0.32660342E+00 0.83514370E+03</pdfrwt>
<totfact> 0.36135132E-01</totfact>
</mgrwt>
</event>
<event>
 4    1  0.2514307E-008  0.1096619E+04  0.7818608E-02  0.9264830E-01
         -1   -1    0    0    0  501 -0.00000000000E+00  0.00000000000E+00  0.17869277610E+04  0.17869277610E+04  0.50400000000E-02 0.  1.
          1   -1    0    0  501    0  0.00000000000E+00 -0.00000000000E+00 -0.15735017508E+04  0.15735017508E+04  0.50400000000E-02 0. -1.
    8880023    1    1    2    0    0 -0.43268354526E+03  0.76259302110E+03  0.14617094692E+04  0.18273390339E+04  0.65864270000E+03 0.  1.
    8880022    1    1    2    0    0  0.43268354526E+03 -0.76259302110E+03 -0.12482834590E+04  0.15330904778E+04  0.15294330000E+03 0.  0.
<mgrwt>
<rscale>  0 0.10408619E+04</rscale>
<asrwt>0</asrwt>
<pdfrwt beam="1">  1        1 0.24207719E+00 0.10966191E+04</pdfrwt>
<pdfrwt beam="2">  1       -1 0.27491196E+00 0.10966191E+04</pdfrwt>
<totfact> 0.27890927E-01</totfact>
</mgrwt>
</event>
<event>
 4    1  0.2514307E-008  0.1707835E+04  0.7818608E-02  0.8775308E-01
         -1   -1    0    0    0  501 -0.00000000000E+00  0.00000000000E+00  0.29139715154E+04  0.29139715154E+04  0.50400000000E-02 0.  1.
          1   -1    0    0  501    0  0.00000000000E+00 -0.00000000000E+00 -0.18224056097E+04  0.18224056097E+04  0.50400000000E-02 0. -1.
    8880023    1    1    2    0    0  0.56994371446E+03 -0.14690323519E+04  0.22136820571E+04  0.27959059971E+04  0.65864270000E+03 0.  1.
    8880022    1    1    2    0    0 -0.56994371446E+03  0.14690323519E+04 -0.11221161514E+04  0.19404711280E+04  0.15294330000E+03 0.  0.
<mgrwt>
<rscale>  0 0.16757657E+04</rscale>
<asrwt>0</asrwt>
<pdfrwt beam="1">  1        1 0.28037009E+00 0.17078355E+04</pdfrwt>
<pdfrwt beam="2">  1       -1 0.44830331E+00 0.17078355E+04</pdfrwt>
<totfact> 0.11992636E-02</totfact>
</mgrwt>
</event>
<event>
 4    1  0.2514307E-008  0.1193923E+04  0.7818608E-02  0.9163053E-01
          1   -1    0    0  501    0  0.00000000000E+00  0.00000000000E+00  0.11044750029E+04  0.11044750029E+04  0.50400000000E-02 0. -1.
         -1   -1    0    0    0  501 -0.00000000000E+00 -0.00000000000E+00 -0.11154216491E+04  0.11154216491E+04  0.50400000000E-02 0.  1.
    8880023    1    1    2    0    0 -0.89836214524E+03 -0.42963579656E+03  0.13640480256E+03  0.12016896180E+04  0.65864270000E+03 0.  0.
    8880022    1    1    2    0    0  0.89836214524E+03  0.42963579656E+03 -0.14735144877E+03  0.10182070340E+04  0.15294330000E+03 0.  0.
<mgrwt>
<rscale>  0 0.11443061E+04</rscale>
<asrwt>0</asrwt>
<pdfrwt beam="1">  1        1 0.16991923E+00 0.11939228E+04</pdfrwt>
<pdfrwt beam="2">  1       -1 0.17160333E+00 0.11939228E+04</pdfrwt>
<totfact> 0.29571835E+00</totfact>
</mgrwt>
</event>
<event>
 4    1  0.2514307E-008  0.6626584E+03  0.7818608E-02  0.1021584E+00
         -1   -1    0    0    0  501 -0.00000000000E+00  0.00000000000E+00  0.90203815819E+03  0.90203815821E+03  0.50400000000E-02 0.  1.
          1   -1    0    0  501    0  0.00000000000E+00 -0.00000000000E+00 -0.52038802255E+03  0.52038802257E+03  0.50400000000E-02 0. -1.
    8880023    1    1    2    0    0  0.46721363754E+02 -0.55884419788E+02  0.75973554963E+03  0.10081241322E+04  0.65864270000E+03 0.  1.
    8880022    1    1    2    0    0 -0.46721363754E+02  0.55884419788E+02 -0.37808541399E+03  0.41430204862E+03  0.15294330000E+03 0.  0.
<mgrwt>
<rscale>  0 0.47119209E+03</rscale>
<asrwt>0</asrwt>
<pdfrwt beam="1">  1        1 0.80059696E-01 0.66265840E+03</pdfrwt>
<pdfrwt beam="2">  1       -1 0.13877510E+00 0.66265840E+03</pdfrwt>
<totfact> 0.18649381E+01</totfact>
</mgrwt>
</event>
<event>
 4    1  0.2514307E-008  0.8787866E+03  0.7818608E-02  0.9560982E-01
         -1   -1    0    0    0  501 -0.00000000000E+00  0.00000000000E+00  0.20756221810E+04  0.20756221810E+04  0.50400000000E-02 0.  1.
          1   -1    0    0  501    0  0.00000000000E+00 -0.00000000000E+00 -0.39810993702E+03  0.39810993705E+03  0.50400000000E-02 0. -1.
    8880023    1    1    2    0    0  0.51026197478E+03  0.27944287600E+03  0.16525460200E+04  0.18716768306E+04  0.65864270000E+03 0.  1.
    8880022    1    1    2    0    0 -0.51026197478E+03 -0.27944287600E+03  0.24966224066E+02  0.60205528751E+03  0.15294330000E+03 0.  0.
<mgrwt>
<rscale>  0 0.79933387E+03</rscale>
<asrwt>0</asrwt>
<pdfrwt beam="1">  1        1 0.61247681E-01 0.87878656E+03</pdfrwt>
<pdfrwt beam="2">  1       -1 0.31932650E+00 0.87878656E+03</pdfrwt>
<totfact> 0.15436577E+00</totfact>
</mgrwt>
</event>
<event>
 4    1  0.2514307E-008  0.9473767E+03  0.7818608E-02  0.9453898E-01
         -1   -1    0    0    0  501 -0.00000000000E+00  0.00000000000E+00  0.60448155641E+03  0.60448155643E+03  0.50400000000E-02 0.  1.
          1   -1    0    0  501    0  0.00000000000E+00 -0.00000000000E+00 -0.13135423790E+04  0.13135423790E+04  0.50400000000E-02 0. -1.
    8880023    1    1    2    0    0  0.59344532651E+03 -0.33396870680E+03 -0.76524852789E+03  0.12178374146E+04  0.65864270000E+03 0.  0.
    8880022    1    1    2    0    0 -0.59344532651E+03  0.33396870680E+03  0.56187705336E+02  0.70018652081E+03  0.15294330000E+03 0.  0.
<mgrwt>
<rscale>  0 0.87769729E+03</rscale>
<asrwt>0</asrwt>
<pdfrwt beam="1">  1        1 0.20208344E+00 0.94737672E+03</pdfrwt>
<pdfrwt beam="2">  1       -1 0.92997163E-01 0.94737672E+03</pdfrwt>
<totfact> 0.10035969E+01</totfact>
</mgrwt>
</event>
<event>
 4    1  0.2914346E-008  0.8669078E+03  0.7818608E-02  0.9581392E-01
         -1   -1    0    0    0  501 -0.00000000000E+00  0.00000000000E+00  0.92147810290E+03  0.92147810291E+03  0.50400000000E-02 0.  1.
          1   -1    0    0  501    0  0.00000000000E+00 -0.00000000000E+00 -0.31628442117E+04  0.31628442117E+04  0.50400000000E-02 0. -1.
    8880023    1    1    2    0    0 -0.56261198610E+03 -0.34447674426E+02  0.68210317236E+03  0.11030837834E+04  0.65864270000E+03 0.  1.
    8880022    1    1    2    0    0  0.56261198610E+03  0.34447674426E+02 -0.29234692811E+04  0.29812385312E+04  0.15294330000E+03 0.  0.
<mgrwt>
<rscale>  0 0.78540121E+03</rscale>
<asrwt>0</asrwt>
<pdfrwt beam="1">  1        1 0.48659141E+00 0.86690778E+03</pdfrwt>
<pdfrwt beam="2">  1       -1 0.14176586E+00 0.86690778E+03</pdfrwt>
<totfact> 0.19492888E-01</totfact>
</mgrwt>
</event>
<event>
 4    1  0.2514307E-008  0.7094885E+03  0.7818608E-02  0.9959905E-01
         -1   -1    0    0    0  501 -0.00000000000E+00  0.00000000000E+00  0.58855247326E+03  0.58855247328E+03  0.50400000000E-02 0.  1.
          1   -1    0    0  501    0  0.00000000000E+00 -0.00000000000E+00 -0.12296043007E+04  0.12296043007E+04  0.50400000000E-02 0. -1.
    8880023    1    1    2    0    0 -0.92205329060E+02 -0.24710704380E+03  0.34293243462E+03  0.78802066900E+03  0.65864270000E+03 0.  1.
    8880022    1    1    2    0    0  0.92205329060E+02  0.24710704380E+03 -0.98398426204E+03  0.10301361050E+04  0.15294330000E+03 0.  0.
<mgrwt>
<rscale>  0 0.57443822E+03</rscale>
<asrwt>0</asrwt>
<pdfrwt beam="1">  1        1 0.18916989E+00 0.70948849E+03</pdfrwt>
<pdfrwt beam="2">  1       -1 0.90546534E-01 0.70948849E+03</pdfrwt>
<totfact> 0.12600295E+01</totfact>
</mgrwt>
</event>
<event>
 4    1  0.2514307E-008  0.8709998E+03  0.7818608E-02  0.9574289E-01
         -1   -1    0    0    0  501 -0.00000000000E+00  0.00000000000E+00  0.88428304133E+03  0.88428304135E+03  0.50400000000E-02 0.  1.
          1   -1    0    0  501    0  0.00000000000E+00 -0.00000000000E+00 -0.16969166149E+04  0.16969166149E+04  0.50400000000E-02 0. -1.
    8880023    1    1    2    0    0 -0.28614855212E+03 -0.49289910017E+03  0.59503322621E+03  0.10548484552E+04  0.65864270000E+03 0.  1.
    8880022    1    1    2    0    0  0.28614855212E+03  0.49289910017E+03 -0.14076667998E+04  0.15263512011E+04  0.15294330000E+03 0.  0.
<mgrwt>
<rscale>  0 0.79021562E+03</rscale>
<asrwt>0</asrwt>
<pdfrwt beam="1">  1        1 0.26106409E+00 0.87099984E+03</pdfrwt>
<pdfrwt beam="2">  1       -1 0.13604354E+00 0.87099984E+03</pdfrwt>
<totfact> 0.22211465E+00</totfact>
</mgrwt>
</event>
<event>
 4    1  0.2514307E-008  0.9112772E+03  0.7818608E-02  0.9508165E-01
         -1   -1    0    0    0  501 -0.00000000000E+00  0.00000000000E+00  0.10348805604E+04  0.10348805604E+04  0.50400000000E-02 0.  1.
          1   -1    0    0  501    0  0.00000000000E+00 -0.00000000000E+00 -0.11477901330E+04  0.11477901330E+04  0.50400000000E-02 0. -1.
    8880023    1    1    2    0    0  0.55346886515E+03  0.30047999334E+03  0.69563965651E+03  0.11464470110E+04  0.65864270000E+03 0.  1.
    8880022    1    1    2    0    0 -0.55346886515E+03 -0.30047999334E+03 -0.80854922909E+03  0.10362236824E+04  0.15294330000E+03 0.  0.
<mgrwt>
<rscale>  0 0.83684504E+03</rscale>
<asrwt>0</asrwt>
<pdfrwt beam="1">  1        1 0.17658310E+00 0.91127725E+03</pdfrwt>
<pdfrwt beam="2">  1       -1 0.15921239E+00 0.91127725E+03</pdfrwt>
<totfact> 0.35111897E+00</totfact>
</mgrwt>
</event>
<event>
 4    1  0.2514307E-008  0.7723951E+03  0.7818608E-02  0.9774014E-01
         -1   -1    0    0    0  501 -0.00000000000E+00  0.00000000000E+00  0.23508569238E+03  0.23508569244E+03  0.50400000000E-02 0.  1.
          1   -1    0    0  501    0  0.00000000000E+00 -0.00000000000E+00 -0.18806612645E+04  0.18806612645E+04  0.50400000000E-02 0. -1.
    8880023    1    1    2    0    0  0.36905835175E+03  0.16303362397E+03 -0.57935617422E+03  0.96552980918E+03  0.65864270000E+03 0.  1.
    8880022    1    1    2    0    0 -0.36905835175E+03 -0.16303362397E+03 -0.10662193979E+04  0.11502171477E+04  0.15294330000E+03 0.  0.
<mgrwt>
<rscale>  0 0.66775941E+03</rscale>
<asrwt>0</asrwt>
<pdfrwt beam="1">  1        1 0.28933249E+00 0.77239513E+03</pdfrwt>
<pdfrwt beam="2">  1       -1 0.36167031E-01 0.77239513E+03</pdfrwt>
<totfact> 0.27159304E+01</totfact>
</mgrwt>
</event>
<event>
 4    1  0.2514307E-008  0.1334832E+04  0.7818608E-02  0.9036049E-01
          1   -1    0    0  501    0  0.00000000000E+00  0.00000000000E+00  0.17454603722E+04  0.17454603722E+04  0.50400000000E-02 0. -1.
         -1   -1    0    0    0  501 -0.00000000000E+00 -0.00000000000E+00 -0.12061166319E+04  0.12061166319E+04  0.50400000000E-02 0.  1.
    8880023    1    1    2    0    0  0.86752767825E+02 -0.11577743143E+04 -0.46021646368E+03  0.14119407938E+04  0.65864270000E+03 0.  0.
    8880022    1    1    2    0    0 -0.86752767825E+02  0.11577743143E+04  0.99956020396E+03  0.15396362103E+04  0.15294330000E+03 0.  0.
<mgrwt>
<rscale>  0 0.12918556E+04</rscale>
<asrwt>0</asrwt>
<pdfrwt beam="1">  1        1 0.26853237E+00 0.13348324E+04</pdfrwt>
<pdfrwt beam="2">  1       -1 0.18555640E+00 0.13348324E+04</pdfrwt>
<totfact> 0.81293833E-01</totfact>
</mgrwt>
</event>
<event>
 4    1  0.2514307E-008  0.7454611E+03  0.7818608E-02  0.9844315E-01
          1   -1    0    0  501    0  0.00000000000E+00  0.00000000000E+00  0.13434205573E+04  0.13434205574E+04  0.50400000000E-02 0. -1.
         -1   -1    0    0    0  501 -0.00000000000E+00 -0.00000000000E+00 -0.55025625555E+03  0.55025625558E+03  0.50400000000E-02 0.  1.
    8880023    1    1    2    0    0  0.15818292723E+03  0.31125596001E+03 -0.24744197075E+03  0.78545518412E+03  0.65864270000E+03 0.  0.
    8880022    1    1    2    0    0 -0.15818292723E+03 -0.31125596001E+03  0.10406062725E+04  0.11082216288E+04  0.15294330000E+03 0.  0.
<mgrwt>
<rscale>  0 0.63037594E+03</rscale>
<asrwt>0</asrwt>
<pdfrwt beam="1">  1        1 0.20668009E+00 0.74546114E+03</pdfrwt>
<pdfrwt beam="2">  1       -1 0.84654808E-01 0.74546114E+03</pdfrwt>
<totfact> 0.12054763E+01</totfact>
</mgrwt>
</event>
<event>
 4    1  0.2514307E-008  0.7976396E+03  0.7818608E-02  0.9715923E-01
          1   -1    0    0  501    0  0.00000000000E+00  0.00000000000E+00  0.21423977685E+03  0.21423977691E+03  0.50400000000E-02 0. -1.
         -1   -1    0    0    0  501 -0.00000000000E+00 -0.00000000000E+00 -0.19129366221E+04  0.19129366221E+04  0.50400000000E-02 0.  1.
    8880023    1    1    2    0    0 -0.24523260955E+03  0.37719976573E+03 -0.11733881267E+04  0.14188264863E+04  0.65864270000E+03 0.  1.
    8880022    1    1    2    0    0  0.24523260955E+03 -0.37719976573E+03 -0.52530871854E+03  0.70834991272E+03  0.15294330000E+03 0. -1.
<mgrwt>
<rscale>  0 0.70076597E+03</rscale>
<asrwt>0</asrwt>
<pdfrwt beam="1">  1        1 0.32959967E-01 0.79763958E+03</pdfrwt>
<pdfrwt beam="2">  1       -1 0.29429793E+00 0.79763958E+03</pdfrwt>
<totfact> 0.50735278E+00</totfact>
</mgrwt>
</event>
<event>
 4    1  0.2514307E-008  0.1774203E+04  0.7818608E-02  0.8736942E-01
          1   -1    0    0  501    0  0.00000000000E+00  0.00000000000E+00  0.25621609083E+04  0.25621609083E+04  0.50400000000E-02 0. -1.
         -1   -1    0    0    0  501 -0.00000000000E+00 -0.00000000000E+00 -0.18689323360E+04  0.18689323360E+04  0.50400000000E-02 0.  1.
    8880023    1    1    2    0    0 -0.62473144812E+03 -0.15243680449E+04 -0.10223612919E+04  0.20476865326E+04  0.65864270000E+03 0.  0.
    8880022    1    1    2    0    0  0.62473144812E+03  0.15243680449E+04  0.17155898642E+04  0.23834067117E+04  0.15294330000E+03 0.  0.
<mgrwt>
<rscale>  0 0.17434898E+04</rscale>
<asrwt>0</asrwt>
<pdfrwt beam="1">  1        1 0.39417860E+00 0.17742033E+04</pdfrwt>
<pdfrwt beam="2">  1       -1 0.28752805E+00 0.17742033E+04</pdfrwt>
<totfact> 0.44428165E-02</totfact>
</mgrwt>
</event>
<event>
 4    1  0.2514307E-008  0.8200410E+03  0.7818608E-02  0.9669029E-01
          1   -1    0    0  501    0  0.00000000000E+00  0.00000000000E+00  0.21742230932E+04  0.21742230932E+04  0.50400000000E-02 0. -1.
         -1   -1    0    0    0  501 -0.00000000000E+00 -0.00000000000E+00 -0.34852077561E+03  0.34852077565E+03  0.50400000000E-02 0.  1.
    8880023    1    1    2    0    0 -0.67237922386E+02 -0.48387615247E+03  0.23699511414E+03  0.85360058547E+03  0.65864270000E+03 0.  1.
    8880022    1    1    2    0    0  0.67237922386E+02  0.48387615247E+03  0.15887072034E+04  0.16691432834E+04  0.15294330000E+03 0.  0.
<mgrwt>
<rscale>  0 0.72891089E+03</rscale>
<asrwt>0</asrwt>
<pdfrwt beam="1">  1        1 0.33449587E+00 0.82004102E+03</pdfrwt>
<pdfrwt beam="2">  1       -1 0.53618580E-01 0.82004102E+03</pdfrwt>
<totfact> 0.82676756E+00</totfact>
</mgrwt>
</event>
<event>
 4    1  0.2514307E-008  0.9916523E+03  0.7818608E-02  0.9392561E-01
         -1   -1    0    0    0  501 -0.00000000000E+00  0.00000000000E+00  0.72559714125E+03  0.72559714127E+03  0.50400000000E-02 0.  1.
          1   -1    0    0  501    0  0.00000000000E+00 -0.00000000000E+00 -0.16643297854E+04  0.16643297854E+04  0.50400000000E-02 0. -1.
    8880023    1    1    2    0    0 -0.56372421286E+03  0.48143450617E+03  0.21056182946E+03  0.10137606533E+04  0.65864270000E+03 0.  0.
    8880022    1    1    2    0    0  0.56372421286E+03 -0.48143450617E+03 -0.11492944736E+04  0.13761662734E+04  0.15294330000E+03 0.  0.
<mgrwt>
<rscale>  0 0.92690393E+03</rscale>
<asrwt>0</asrwt>
<pdfrwt beam="1">  1        1 0.25605074E+00 0.99165235E+03</pdfrwt>
<pdfrwt beam="2">  1       -1 0.11163033E+00 0.99165235E+03</pdfrwt>
<totfact> 0.37457263E+00</totfact>
</mgrwt>
</event>
<event>
 4    1  0.2514307E-008  0.9941990E+03  0.7818608E-02  0.9389187E-01
          1   -1    0    0  501    0  0.00000000000E+00  0.00000000000E+00  0.36464925494E+04  0.36464925494E+04  0.50400000000E-02 0. -1.
         -1   -1    0    0    0  501 -0.00000000000E+00 -0.00000000000E+00 -0.45479700434E+03  0.45479700437E+03  0.50400000000E-02 0.  1.
    8880023    1    1    2    0    0 -0.63058495999E+03  0.39621207474E+03  0.19949991883E+03  0.10140176645E+04  0.65864270000E+03 0.  0.
    8880022    1    1    2    0    0  0.63058495999E+03 -0.39621207474E+03  0.29921956262E+04  0.30872718893E+04  0.15294330000E+03 0.  0.
<mgrwt>
<rscale>  0 0.92970933E+03</rscale>
<asrwt>0</asrwt>
<pdfrwt beam="1">  1        1 0.56099887E+00 0.99419898E+03</pdfrwt>
<pdfrwt beam="2">  1       -1 0.69968768E-01 0.99419898E+03</pdfrwt>
<totfact> 0.41172619E-01</totfact>
</mgrwt>
</event>
<event>
 4    1  0.2514307E-008  0.7602837E+03  0.7818608E-02  0.9804374E-01
          1   -1    0    0  501    0  0.00000000000E+00  0.00000000000E+00  0.37156349986E+03  0.37156349990E+03  0.50400000000E-02 0. -1.
         -1   -1    0    0    0  501 -0.00000000000E+00 -0.00000000000E+00 -0.94479071450E+03  0.94479071451E+03  0.50400000000E-02 0.  1.
    8880023    1    1    2    0    0  0.36575243656E+03  0.10220688001E+03 -0.47108127051E+03  0.89439860290E+03  0.65864270000E+03 0. -1.
    8880022    1    1    2    0    0 -0.36575243656E+03 -0.10220688001E+03 -0.10214594412E+03  0.42195561151E+03  0.15294330000E+03 0.  1.
<mgrwt>
<rscale>  0 0.65128359E+03</rscale>
<asrwt>0</asrwt>
<pdfrwt beam="1">  1        1 0.57163616E-01 0.76028370E+03</pdfrwt>
<pdfrwt beam="2">  1       -1 0.14535242E+00 0.76028370E+03</pdfrwt>
<totfact> 0.25704666E+01</totfact>
</mgrwt>
</event>
<event>
 4    1  0.2806402E-008  0.1314968E+04  0.7818608E-02  0.9052740E-01
         -1   -1    0    0    0  501 -0.00000000000E+00  0.00000000000E+00  0.19148507600E+04  0.19148507600E+04  0.50400000000E-02 0.  1.
          1   -1    0    0  501    0  0.00000000000E+00 -0.00000000000E+00 -0.19667712026E+04  0.19667712026E+04  0.50400000000E-02 0. -1.
    8880023    1    1    2    0    0 -0.82454786576E+03  0.78450769206E+03  0.14717777129E+04  0.19736441787E+04  0.65864270000E+03 0.  1.
    8880022    1    1    2    0    0  0.82454786576E+03 -0.78450769206E+03 -0.15236981555E+04  0.19079777839E+04  0.15294330000E+03 0.  0.
<mgrwt>
<rscale>  0 0.12711760E+04</rscale>
<asrwt>0</asrwt>
<pdfrwt beam="1">  1        1 0.30258019E+00 0.13149683E+04</pdfrwt>
<pdfrwt beam="2">  1       -1 0.29459242E+00 0.13149683E+04</pdfrwt>
<totfact> 0.10875692E-01</totfact>
</mgrwt>
</event>
<event>
 4    1  0.2514307E-008  0.8109858E+03  0.7818608E-02  0.9687527E-01
          1   -1    0    0  501    0  0.00000000000E+00  0.00000000000E+00  0.26922625422E+04  0.26922625423E+04  0.50400000000E-02 0. -1.
         -1   -1    0    0    0  501 -0.00000000000E+00 -0.00000000000E+00 -0.22931233412E+03  0.22931233418E+03  0.50400000000E-02 0.  1.
    8880023    1    1    2    0    0  0.14463956018E+03  0.45051878262E+03  0.64314760562E+03  0.10350540202E+04  0.65864270000E+03 0.  0.
    8880022    1    1    2    0    0 -0.14463956018E+03 -0.45051878262E+03  0.18198026025E+04  0.18865208562E+04  0.15294330000E+03 0.  0.
<mgrwt>
<rscale>  0 0.71764298E+03</rscale>
<asrwt>0</asrwt>
<pdfrwt beam="1">  1        1 0.41419424E+00 0.81098581E+03</pdfrwt>
<pdfrwt beam="2">  1       -1 0.35278820E-01 0.81098581E+03</pdfrwt>
<totfact> 0.79665293E+00</totfact>
</mgrwt>
</event>
<event>
 4    1  0.2514307E-008  0.7269790E+03  0.7818608E-02  0.9899642E-01
         -1   -1    0    0    0  501 -0.00000000000E+00  0.00000000000E+00  0.12791612594E+04  0.12791612594E+04  0.50400000000E-02 0.  1.
          1   -1    0    0  501    0  0.00000000000E+00 -0.00000000000E+00 -0.61812433417E+03  0.61812433420E+03  0.50400000000E-02 0. -1.
    8880023    1    1    2    0    0  0.94861183396E+02  0.29272782338E+03  0.11130858959E+04  0.13294580251E+04  0.65864270000E+03 0.  0.
    8880022    1    1    2    0    0 -0.94861183396E+02 -0.29272782338E+03 -0.45204897063E+03  0.56782756851E+03  0.15294330000E+03 0. -1.
<mgrwt>
<rscale>  0 0.60278630E+03</rscale>
<asrwt>0</asrwt>
<pdfrwt beam="1">  1        1 0.95096053E-01 0.72697897E+03</pdfrwt>
<pdfrwt beam="2">  1       -1 0.19679404E+00 0.72697897E+03</pdfrwt>
<totfact> 0.53978050E+00</totfact>
</mgrwt>
</event>
<event>
 4    1  0.2514307E-008  0.1135529E+04  0.7818608E-02  0.9222493E-01
         -1   -1    0    0    0  501 -0.00000000000E+00  0.00000000000E+00  0.95321617353E+03  0.95321617355E+03  0.50400000000E-02 0.  1.
          1   -1    0    0  501    0  0.00000000000E+00 -0.00000000000E+00 -0.35387901017E+04  0.35387901017E+04  0.50400000000E-02 0. -1.
    8880023    1    1    2    0    0  0.83282459922E+03  0.40251711575E+03  0.51932022948E+03  0.12486474877E+04  0.65864270000E+03 0.  0.
    8880022    1    1    2    0    0 -0.83282459922E+03 -0.40251711575E+03 -0.31048941577E+04  0.32433587876E+04  0.15294330000E+03 0.  0.
<mgrwt>
<rscale>  0 0.10824253E+04</rscale>
<asrwt>0</asrwt>
<pdfrwt beam="1">  1        1 0.54442924E+00 0.11355294E+04</pdfrwt>
<pdfrwt beam="2">  1       -1 0.14664864E+00 0.11355294E+04</pdfrwt>
<totfact> 0.87469848E-02</totfact>
</mgrwt>
</event>
<event>
 4    1  0.2514307E-008  0.7404018E+03  0.7818608E-02  0.9858778E-01
         -1   -1    0    0    0  501 -0.00000000000E+00  0.00000000000E+00  0.66295682643E+03  0.66295682645E+03  0.50400000000E-02 0.  1.
          1   -1    0    0  501    0  0.00000000000E+00 -0.00000000000E+00 -0.13725983028E+04  0.13725983028E+04  0.50400000000E-02 0. -1.
    8880023    1    1    2    0    0 -0.32963082506E+03 -0.75684088830E+02  0.41671445825E+03  0.84961503524E+03  0.65864270000E+03 0.  1.
    8880022    1    1    2    0    0  0.32963082506E+03  0.75684088830E+02 -0.11263559346E+04  0.11859400940E+04  0.15294330000E+03 0.  0.
<mgrwt>
<rscale>  0 0.62301337E+03</rscale>
<asrwt>0</asrwt>
<pdfrwt beam="1">  1        1 0.21116897E+00 0.74040176E+03</pdfrwt>
<pdfrwt beam="2">  1       -1 0.10199336E+00 0.74040176E+03</pdfrwt>
<totfact> 0.76054626E+00</totfact>
</mgrwt>
</event>
<event>
 4    1  0.2514307E-008  0.9256393E+03  0.7818608E-02  0.9486066E-01
         -1   -1    0    0    0  501 -0.00000000000E+00  0.00000000000E+00  0.57027763169E+03  0.57027763172E+03  0.50400000000E-02 0.  1.
          1   -1    0    0  501    0  0.00000000000E+00 -0.00000000000E+00 -0.13494778537E+04  0.13494778537E+04  0.50400000000E-02 0. -1.
    8880023    1    1    2    0    0  0.19966290666E+03 -0.61897706481E+03 -0.44522788196E+02  0.92670943018E+03  0.65864270000E+03 0.  0.
    8880022    1    1    2    0    0 -0.19966290666E+03  0.61897706481E+03 -0.73467743380E+03  0.99304605523E+03  0.15294330000E+03 0.  0.
<mgrwt>
<rscale>  0 0.85318966E+03</rscale>
<asrwt>0</asrwt>
<pdfrwt beam="1">  1        1 0.20761198E+00 0.92563929E+03</pdfrwt>
<pdfrwt beam="2">  1       -1 0.87735021E-01 0.92563929E+03</pdfrwt>
<totfact> 0.10793560E+01</totfact>
</mgrwt>
</event>
<event>
 4    1  0.2514307E-008  0.1300736E+04  0.7818608E-02  0.9064925E-01
          1   -1    0    0  501    0  0.00000000000E+00  0.00000000000E+00  0.14590312768E+04  0.14590312768E+04  0.50400000000E-02 0. -1.
         -1   -1    0    0    0  501 -0.00000000000E+00 -0.00000000000E+00 -0.19244955160E+04  0.19244955160E+04  0.50400000000E-02 0.  1.
    8880023    1    1    2    0    0  0.47952687731E+03  0.10139807152E+04 -0.14033478121E+04  0.19134519082E+04  0.65864270000E+03 0.  1.
    8880022    1    1    2    0    0 -0.47952687731E+03 -0.10139807152E+04  0.93788357296E+03  0.14700748846E+04  0.15294330000E+03 0.  0.
<mgrwt>
<rscale>  0 0.12563376E+04</rscale>
<asrwt>0</asrwt>
<pdfrwt beam="1">  1        1 0.22446635E+00 0.13007356E+04</pdfrwt>
<pdfrwt beam="2">  1       -1 0.29607623E+00 0.13007356E+04</pdfrwt>
<totfact> 0.23723171E-01</totfact>
</mgrwt>
</event>
<event>
 4    1  0.2514307E-008  0.1251510E+04  0.7818608E-02  0.9108607E-01
          1   -1    0    0  501    0  0.00000000000E+00  0.00000000000E+00  0.13614712624E+04  0.13614712624E+04  0.50400000000E-02 0. -1.
         -1   -1    0    0    0  501 -0.00000000000E+00 -0.00000000000E+00 -0.11041383478E+04  0.11041383478E+04  0.50400000000E-02 0.  1.
    8880023    1    1    2    0    0 -0.65088537226E+03 -0.84191222339E+03 -0.25091978430E+03  0.12764164305E+04  0.65864270000E+03 0.  0.
    8880022    1    1    2    0    0  0.65088537226E+03  0.84191222339E+03  0.50825269889E+03  0.11891931797E+04  0.15294330000E+03 0.  0.
<mgrwt>
<rscale>  0 0.12048666E+04</rscale>
<asrwt>0</asrwt>
<pdfrwt beam="1">  1        1 0.20945712E+00 0.12515104E+04</pdfrwt>
<pdfrwt beam="2">  1       -1 0.16986744E+00 0.12515104E+04</pdfrwt>
<totfact> 0.19660557E+00</totfact>
</mgrwt>
</event>
<event>
 4    1  0.2514307E-008  0.7662639E+03  0.7818608E-02  0.9789153E-01
         -1   -1    0    0    0  501 -0.00000000000E+00  0.00000000000E+00  0.23588792117E+03  0.23588792123E+03  0.50400000000E-02 0.  1.
          1   -1    0    0  501    0  0.00000000000E+00 -0.00000000000E+00 -0.33608300290E+04  0.33608300290E+04  0.50400000000E-02 0. -1.
    8880023    1    1    2    0    0 -0.97913266443E+01 -0.39147706359E+03 -0.44935145356E+03  0.88830011622E+03  0.65864270000E+03 0.  0.
    8880022    1    1    2    0    0  0.97913266443E+01  0.39147706359E+03 -0.26755906543E+04  0.27084178340E+04  0.15294330000E+03 0. -1.
<mgrwt>
<rscale>  0 0.65947933E+03</rscale>
<asrwt>0</asrwt>
<pdfrwt beam="1">  1        1 0.51705074E+00 0.76626390E+03</pdfrwt>
<pdfrwt beam="2">  1       -1 0.36290452E-01 0.76626390E+03</pdfrwt>
<totfact> 0.25124657E+00</totfact>
</mgrwt>
</event>
<event>
 4    1  0.2514307E-008  0.6759618E+03  0.7818608E-02  0.1011707E+00
          1   -1    0    0  501    0  0.00000000000E+00  0.00000000000E+00  0.32882713258E+03  0.32882713262E+03  0.50400000000E-02 0. -1.
         -1   -1    0    0    0  501 -0.00000000000E+00 -0.00000000000E+00 -0.64105872713E+03  0.64105872715E+03  0.50400000000E-02 0.  1.
    8880023    1    1    2    0    0 -0.11909895403E+03  0.94496172531E+02 -0.33244489995E+03  0.75328872635E+03  0.65864270000E+03 0.  1.
    8880022    1    1    2    0    0  0.11909895403E+03 -0.94496172531E+02  0.20213305412E+02  0.21659713342E+03  0.15294330000E+03 0.  1.
<mgrwt>
<rscale>  0 0.50801895E+03</rscale>
<asrwt>0</asrwt>
<pdfrwt beam="1">  1        1 0.50588790E-01 0.67596175E+03</pdfrwt>
<pdfrwt beam="2">  1       -1 0.98624419E-01 0.67596175E+03</pdfrwt>
<totfact> 0.78278224E+01</totfact>
</mgrwt>
</event>
<event>
 4    1  0.2514307E-008  0.1720497E+04  0.7818608E-02  0.8767838E-01
         -1   -1    0    0    0  501 -0.00000000000E+00  0.00000000000E+00  0.10223378115E+04  0.10223378115E+04  0.50400000000E-02 0.  1.
          1   -1    0    0  501    0  0.00000000000E+00 -0.00000000000E+00 -0.29396855373E+04  0.29396855373E+04  0.50400000000E-02 0. -1.
    8880023    1    1    2    0    0 -0.11549836027E+04 -0.10919314033E+04 -0.41554538866E+03  0.17699687817E+04  0.65864270000E+03 0. -1.
    8880022    1    1    2    0    0  0.11549836027E+04  0.10919314033E+04 -0.15018023372E+04  0.21920545671E+04  0.15294330000E+03 0.  0.
<mgrwt>
<rscale>  0 0.16886961E+04</rscale>
<asrwt>0</asrwt>
<pdfrwt beam="1">  1        1 0.45225931E+00 0.17204975E+04</pdfrwt>
<pdfrwt beam="2">  1       -1 0.15728274E+00 0.17204975E+04</pdfrwt>
<totfact> 0.18791314E-01</totfact>
</mgrwt>
</event>
<event>
 4    1  0.2514307E-008  0.7463332E+03  0.7818608E-02  0.9841869E-01
         -1   -1    0    0    0  501 -0.00000000000E+00  0.00000000000E+00  0.57540607567E+03  0.57540607569E+03  0.50400000000E-02 0.  1.
          1   -1    0    0  501    0  0.00000000000E+00 -0.00000000000E+00 -0.19049466491E+04  0.19049466491E+04  0.50400000000E-02 0. -1.
    8880023    1    1    2    0    0  0.28522061596E+03  0.20457806421E+03  0.30153249548E+03  0.80494411993E+03  0.65864270000E+03 0.  0.
    8880022    1    1    2    0    0 -0.28522061596E+03 -0.20457806421E+03 -0.16310730689E+04  0.16754086049E+04  0.15294330000E+03 0.  0.
<mgrwt>
<rscale>  0 0.63163228E+03</rscale>
<asrwt>0</asrwt>
<pdfrwt beam="1">  1        1 0.29306871E+00 0.74633316E+03</pdfrwt>
<pdfrwt beam="2">  1       -1 0.88524012E-01 0.74633316E+03</pdfrwt>
<totfact> 0.45452612E+00</totfact>
</mgrwt>
</event>
<event>
 4    1  0.2514307E-008  0.7139027E+03  0.7818608E-02  0.9943784E-01
          1   -1    0    0  501    0  0.00000000000E+00  0.00000000000E+00  0.26550909035E+04  0.26550909035E+04  0.50400000000E-02 0. -1.
         -1   -1    0    0    0  501 -0.00000000000E+00 -0.00000000000E+00 -0.35448357437E+03  0.35448357441E+03  0.50400000000E-02 0.  1.
    8880023    1    1    2    0    0  0.27296566960E+03 -0.36560452689E+02  0.27174544114E+02  0.71441975448E+03  0.65864270000E+03 0.  1.
    8880022    1    1    2    0    0 -0.27296566960E+03  0.36560452689E+02  0.22734327850E+04  0.22951547234E+04  0.15294330000E+03 0.  0.
<mgrwt>
<rscale>  0 0.58185444E+03</rscale>
<asrwt>0</asrwt>
<pdfrwt beam="1">  1        1 0.40847551E+00 0.71390275E+03</pdfrwt>
<pdfrwt beam="2">  1       -1 0.54535936E-01 0.71390275E+03</pdfrwt>
<totfact> 0.38391399E+00</totfact>
</mgrwt>
</event>
<event>
 4    1  0.2514307E-008  0.7871327E+03  0.7818608E-02  0.9739341E-01
          1   -1    0    0  501    0  0.00000000000E+00  0.00000000000E+00  0.14451086853E+04  0.14451086853E+04  0.50400000000E-02 0. -1.
         -1   -1    0    0    0  501 -0.00000000000E+00 -0.00000000000E+00 -0.58819557455E+03  0.58819557457E+03  0.50400000000E-02 0.  1.
    8880023    1    1    2    0    0 -0.40128170204E+03 -0.15729172656E+03 -0.25791810338E+03  0.82831132188E+03  0.65864270000E+03 0.  1.
    8880022    1    1    2    0    0  0.40128170204E+03  0.15729172656E+03  0.11148312141E+04  0.12049929380E+04  0.15294330000E+03 0.  0.
<mgrwt>
<rscale>  0 0.68721974E+03</rscale>
<asrwt>0</asrwt>
<pdfrwt beam="1">  1        1 0.22232441E+00 0.78713271E+03</pdfrwt>
<pdfrwt beam="2">  1       -1 0.90491628E-01 0.78713271E+03</pdfrwt>
<totfact> 0.88039795E+00</totfact>
</mgrwt>
</event>
<event>
 4    1  0.2514307E-008  0.8932163E+03  0.7818608E-02  0.9537011E-01
          1   -1    0    0  501    0  0.00000000000E+00  0.00000000000E+00  0.53527632496E+03  0.53527632498E+03  0.50400000000E-02 0. -1.
         -1   -1    0    0    0  501 -0.00000000000E+00 -0.00000000000E+00 -0.17529422664E+04  0.17529422664E+04  0.50400000000E-02 0.  1.
    8880023    1    1    2    0    0 -0.60332323007E+03 -0.51214685037E+01 -0.13810267799E+04  0.16447097989E+04  0.65864270000E+03 0.  0.
    8880022    1    1    2    0    0  0.60332323007E+03  0.51214685037E+01  0.16336083854E+03  0.64350879246E+03  0.15294330000E+03 0. -1.
<mgrwt>
<rscale>  0 0.81609325E+03</rscale>
<asrwt>0</asrwt>
<pdfrwt beam="1">  1        1 0.82350205E-01 0.89321630E+03</pdfrwt>
<pdfrwt beam="2">  1       -1 0.26968342E+00 0.89321630E+03</pdfrwt>
<totfact> 0.21441016E+00</totfact>
</mgrwt>
</event>
<event>
 4    1  0.2514307E-008  0.6665997E+03  0.7818608E-02  0.1018227E+00
          1   -1    0    0  501    0  0.00000000000E+00  0.00000000000E+00  0.16825383737E+04  0.16825383737E+04  0.50400000000E-02 0. -1.
         -1   -1    0    0    0  501 -0.00000000000E+00 -0.00000000000E+00 -0.16775501830E+03  0.16775501837E+03  0.50400000000E-02 0.  1.
    8880023    1    1    2    0    0  0.88197778150E+02 -0.52593196007E+02  0.53893288811E+03  0.85720695079E+03  0.65864270000E+03 0.  1.
    8880022    1    1    2    0    0 -0.88197778150E+02  0.52593196007E+02  0.97585046728E+03  0.99308644128E+03  0.15294330000E+03 0.  0.
<mgrwt>
<rscale>  0 0.48331722E+03</rscale>
<asrwt>0</asrwt>
<pdfrwt beam="1">  1        1 0.25885206E+00 0.66659965E+03</pdfrwt>
<pdfrwt beam="2">  1       -1 0.25808464E-01 0.66659965E+03</pdfrwt>
<totfact> 0.67356852E+01</totfact>
</mgrwt>
</event>
<event>
 4    1  0.2514307E-008  0.6631520E+03  0.7818608E-02  0.1021137E+00
         -1   -1    0    0    0  501 -0.00000000000E+00  0.00000000000E+00  0.45057675242E+03  0.45057675245E+03  0.50400000000E-02 0.  1.
          1   -1    0    0  501    0  0.00000000000E+00 -0.00000000000E+00 -0.11097945742E+04  0.11097945742E+04  0.50400000000E-02 0. -1.
    8880023    1    1    2    0    0 -0.77095418022E+02  0.40830841860E+01  0.19334685646E+03  0.69076304781E+03  0.65864270000E+03 0.  0.
    8880022    1    1    2    0    0  0.77095418022E+02 -0.40830841860E+01 -0.85256467821E+03  0.86960827882E+03  0.15294330000E+03 0. -1.
<mgrwt>
<rscale>  0 0.47278597E+03</rscale>
<asrwt>0</asrwt>
<pdfrwt beam="1">  1        1 0.17073763E+00 0.66315200E+03</pdfrwt>
<pdfrwt beam="2">  1       -1 0.69319501E-01 0.66315200E+03</pdfrwt>
<totfact> 0.27282163E+01</totfact>
</mgrwt>
</event>
<event>
 4    1  0.2514307E-008  0.1418988E+04  0.7818608E-02  0.8969067E-01
          1   -1    0    0  501    0  0.00000000000E+00  0.00000000000E+00  0.18568294122E+04  0.18568294123E+04  0.50400000000E-02 0. -1.
         -1   -1    0    0    0  501 -0.00000000000E+00 -0.00000000000E+00 -0.13435395296E+04  0.13435395296E+04  0.50400000000E-02 0.  1.
    8880023    1    1    2    0    0 -0.12024500953E+04  0.36582975167E+03 -0.57473740907E+03  0.15309640540E+04  0.65864270000E+03 0.  0.
    8880022    1    1    2    0    0  0.12024500953E+04 -0.36582975167E+03  0.10880272918E+04  0.16694048878E+04  0.15294330000E+03 0.  0.
<mgrwt>
<rscale>  0 0.13791278E+04</rscale>
<asrwt>0</asrwt>
<pdfrwt beam="1">  1        1 0.28566606E+00 0.14189883E+04</pdfrwt>
<pdfrwt beam="2">  1       -1 0.20669839E+00 0.14189883E+04</pdfrwt>
<totfact> 0.48149554E-01</totfact>
</mgrwt>
</event>
<event>
 4    1  0.2514307E-008  0.9469326E+03  0.7818608E-02  0.9454541E-01
          1   -1    0    0  501    0  0.00000000000E+00  0.00000000000E+00  0.13734373443E+04  0.13734373443E+04  0.50400000000E-02 0. -1.
         -1   -1    0    0    0  501 -0.00000000000E+00 -0.00000000000E+00 -0.58437193606E+03  0.58437193608E+03  0.50400000000E-02 0.  1.
    8880023    1    1    2    0    0  0.10337616421E+03 -0.67244669861E+03  0.59822112513E+02  0.94882036509E+03  0.65864270000E+03 0.  0.
    8880022    1    1    2    0    0 -0.10337616421E+03  0.67244669861E+03  0.72924329572E+03  0.10089889153E+04  0.15294330000E+03 0.  0.
<mgrwt>
<rscale>  0 0.87719914E+03</rscale>
<asrwt>0</asrwt>
<pdfrwt beam="1">  1        1 0.21129805E+00 0.94693263E+03</pdfrwt>
<pdfrwt beam="2">  1       -1 0.89903376E-01 0.94693263E+03</pdfrwt>
<totfact> 0.98160034E+00</totfact>
</mgrwt>
</event>
<event>
 4    1  0.2514307E-008  0.1243970E+04  0.7818608E-02  0.9115522E-01
         -1   -1    0    0    0  501 -0.00000000000E+00  0.00000000000E+00  0.75525290234E+03  0.75525290235E+03  0.50400000000E-02 0.  1.
          1   -1    0    0  501    0  0.00000000000E+00 -0.00000000000E+00 -0.34820453895E+04  0.34820453895E+04  0.50400000000E-02 0. -1.
    8880023    1    1    2    0    0 -0.47630278121E+03  0.94169310882E+03  0.68168106330E+02  0.12458360035E+04  0.65864270000E+03 0.  0.
    8880022    1    1    2    0    0  0.47630278121E+03 -0.94169310882E+03 -0.27949605935E+04  0.29914622883E+04  0.15294330000E+03 0.  0.
<mgrwt>
<rscale>  0 0.11969593E+04</rscale>
<asrwt>0</asrwt>
<pdfrwt beam="1">  1        1 0.53569928E+00 0.12439696E+04</pdfrwt>
<pdfrwt beam="2">  1       -1 0.11619276E+00 0.12439696E+04</pdfrwt>
<totfact> 0.17209270E-01</totfact>
</mgrwt>
</event>
<event>
 4    1  0.2514307E-008  0.7483178E+03  0.7818608E-02  0.9836348E-01
         -1   -1    0    0    0  501 -0.00000000000E+00  0.00000000000E+00  0.72211331598E+03  0.72211331600E+03  0.50400000000E-02 0.  1.
          1   -1    0    0  501    0  0.00000000000E+00 -0.00000000000E+00 -0.17133657109E+04  0.17133657110E+04  0.50400000000E-02 0. -1.
    8880023    1    1    2    0    0  0.29217603235E+03 -0.20199609472E+03  0.49665473210E+03  0.89813439158E+03  0.65864270000E+03 0.  1.
    8880022    1    1    2    0    0 -0.29217603235E+03  0.20199609472E+03 -0.14879071271E+04  0.15373446354E+04  0.15294330000E+03 0.  0.
<mgrwt>
<rscale>  0 0.63447834E+03</rscale>
<asrwt>0</asrwt>
<pdfrwt beam="1">  1        1 0.26359472E+00 0.74831775E+03</pdfrwt>
<pdfrwt beam="2">  1       -1 0.11109436E+00 0.74831775E+03</pdfrwt>
<totfact> 0.36427092E+00</totfact>
</mgrwt>
</event>
<event>
 4    1  0.2514307E-008  0.7962006E+03  0.7818608E-02  0.9719072E-01
          1   -1    0    0  501    0  0.00000000000E+00  0.00000000000E+00  0.16698679378E+04  0.16698679378E+04  0.50400000000E-02 0. -1.
         -1   -1    0    0    0  501 -0.00000000000E+00 -0.00000000000E+00 -0.28252103650E+04  0.28252103650E+04  0.50400000000E-02 0.  1.
    8880023    1    1    2    0    0 -0.41808375696E+03  0.15915748088E+03 -0.27337762985E+04  0.28473616188E+04  0.65864270000E+03 0.  1.
    8880022    1    1    2    0    0  0.41808375696E+03 -0.15915748088E+03  0.15784338713E+04  0.16477166840E+04  0.15294330000E+03 0.  0.
<mgrwt>
<rscale>  0 0.69892509E+03</rscale>
<asrwt>0</asrwt>
<pdfrwt beam="1">  1        1 0.25690276E+00 0.79620056E+03</pdfrwt>
<pdfrwt beam="2">  1       -1 0.43464775E+00 0.79620056E+03</pdfrwt>
<totfact> 0.22409350E-02</totfact>
</mgrwt>
</event>
<event>
 4    1  0.2514307E-008  0.1083086E+04  0.7818608E-02  0.9280125E-01
         -1   -1    0    0    0  501 -0.00000000000E+00  0.00000000000E+00  0.42844079011E+03  0.42844079014E+03  0.50400000000E-02 0.  1.
          1   -1    0    0  501    0  0.00000000000E+00 -0.00000000000E+00 -0.29054465446E+04  0.29054465446E+04  0.50400000000E-02 0. -1.
    8880023    1    1    2    0    0 -0.37178897180E+03 -0.77526704999E+03 -0.54241332853E+03  0.12113168304E+04  0.65864270000E+03 0.  0.
    8880022    1    1    2    0    0  0.37178897180E+03  0.77526704999E+03 -0.19345924260E+04  0.21225705044E+04  0.15294330000E+03 0.  0.
<mgrwt>
<rscale>  0 0.10263336E+04</rscale>
<asrwt>0</asrwt>
<pdfrwt beam="1">  1        1 0.44699176E+00 0.10830864E+04</pdfrwt>
<pdfrwt beam="2">  1       -1 0.65913970E-01 0.10830864E+04</pdfrwt>
<totfact> 0.16556968E+00</totfact>
</mgrwt>
</event>
<event>
 4    1  0.2514307E-008  0.7484580E+03  0.7818608E-02  0.9835961E-01
          1   -1    0    0  501    0  0.00000000000E+00  0.00000000000E+00  0.12450684943E+04  0.12450684944E+04  0.50400000000E-02 0. -1.
         -1   -1    0    0    0  501 -0.00000000000E+00 -0.00000000000E+00 -0.77072185163E+03  0.77072185165E+03  0.50400000000E-02 0.  1.
    8880023    1    1    2    0    0 -0.47715051179E+02 -0.35228172324E+03 -0.54473283201E+03  0.92570146547E+03  0.65864270000E+03 0.  0.
    8880022    1    1    2    0    0  0.47715051179E+02  0.35228172324E+03  0.10190794747E+04  0.10900888805E+04  0.15294330000E+03 0. -1.
<mgrwt>
<rscale>  0 0.63467875E+03</rscale>
<asrwt>0</asrwt>
<pdfrwt beam="1">  1        1 0.19154900E+00 0.74845798E+03</pdfrwt>
<pdfrwt beam="2">  1       -1 0.11857259E+00 0.74845798E+03</pdfrwt>
<totfact> 0.65531633E+00</totfact>
</mgrwt>
</event>
<event>
 4    1  0.2514307E-008  0.7558992E+03  0.7818608E-02  0.9815842E-01
          1   -1    0    0  501    0  0.00000000000E+00  0.00000000000E+00  0.64362005264E+03  0.64362005266E+03  0.50400000000E-02 0. -1.
         -1   -1    0    0    0  501 -0.00000000000E+00 -0.00000000000E+00 -0.13994262884E+04  0.13994262884E+04  0.50400000000E-02 0.  1.
    8880023    1    1    2    0    0 -0.26047335430E+03 -0.26405885916E+03 -0.12164511051E+04  0.14321790903E+04  0.65864270000E+03 0.  1.
    8880022    1    1    2    0    0  0.26047335430E+03  0.26405885916E+03  0.46064486932E+03  0.61086725076E+03  0.15294330000E+03 0.  0.
<mgrwt>
<rscale>  0 0.64519263E+03</rscale>
<asrwt>0</asrwt>
<pdfrwt beam="1">  1        1 0.99018470E-01 0.75589924E+03</pdfrwt>
<pdfrwt beam="2">  1       -1 0.21529635E+00 0.75589924E+03</pdfrwt>
<totfact> 0.37970066E+00</totfact>
</mgrwt>
</event>
<event>
 4    1  0.2514307E-008  0.7648715E+03  0.7818608E-02  0.9792655E-01
          1   -1    0    0  501    0  0.00000000000E+00  0.00000000000E+00  0.24823732437E+04  0.24823732437E+04  0.50400000000E-02 0. -1.
         -1   -1    0    0    0  501 -0.00000000000E+00 -0.00000000000E+00 -0.19043599191E+03  0.19043599197E+03  0.50400000000E-02 0.  1.
    8880023    1    1    2    0    0  0.17829259888E+02  0.38845884952E+03  0.73502714222E+03  0.10607984098E+04  0.65864270000E+03 0.  1.
    8880022    1    1    2    0    0 -0.17829259888E+02 -0.38845884952E+03  0.15569101096E+04  0.16120108259E+04  0.15294330000E+03 0.  0.
<mgrwt>
<rscale>  0 0.65758202E+03</rscale>
<asrwt>0</asrwt>
<pdfrwt beam="1">  1        1 0.38190353E+00 0.76487147E+03</pdfrwt>
<pdfrwt beam="2">  1       -1 0.29297849E-01 0.76487147E+03</pdfrwt>
<totfact> 0.15521069E+01</totfact>
</mgrwt>
</event>
<event>
 4    1  0.2514307E-008  0.1596467E+04  0.7818608E-02  0.8844359E-01
          1   -1    0    0  501    0  0.00000000000E+00  0.00000000000E+00  0.31758649071E+04  0.31758649071E+04  0.50400000000E-02 0. -1.
         -1   -1    0    0    0  501 -0.00000000000E+00 -0.00000000000E+00 -0.16765592927E+04  0.16765592927E+04  0.50400000000E-02 0.  1.
    8880023    1    1    2    0    0 -0.83228516763E+03  0.11925599519E+04 -0.10518986816E+04  0.19118574428E+04  0.65864270000E+03 0.  0.
    8880022    1    1    2    0    0  0.83228516763E+03 -0.11925599519E+04  0.25512042959E+04  0.29405667569E+04  0.15294330000E+03 0.  0.
<mgrwt>
<rscale>  0 0.15618105E+04</rscale>
<asrwt>0</asrwt>
<pdfrwt beam="1">  1        1 0.48859460E+00 0.15964674E+04</pdfrwt>
<pdfrwt beam="2">  1       -1 0.25793220E+00 0.15964674E+04</pdfrwt>
<totfact> 0.25605974E-02</totfact>
</mgrwt>
</event>
<event>
 4    1  0.2514307E-008  0.8822467E+03  0.7818608E-02  0.9555154E-01
         -1   -1    0    0    0  501 -0.00000000000E+00  0.00000000000E+00  0.12534255906E+04  0.12534255906E+04  0.50400000000E-02 0.  1.
          1   -1    0    0  501    0  0.00000000000E+00 -0.00000000000E+00 -0.25327489798E+04  0.25327489798E+04  0.50400000000E-02 0. -1.
    8880023    1    1    2    0    0  0.21413813719E+02 -0.58659219668E+03  0.10544532598E+04  0.13748566617E+04  0.65864270000E+03 0.  0.
    8880022    1    1    2    0    0 -0.21413813719E+02  0.58659219668E+03 -0.23337766490E+04  0.24113179088E+04  0.15294330000E+03 0.  0.
<mgrwt>
<rscale>  0 0.80336837E+03</rscale>
<asrwt>0</asrwt>
<pdfrwt beam="1">  1        1 0.38965369E+00 0.88224666E+03</pdfrwt>
<pdfrwt beam="2">  1       -1 0.19283471E+00 0.88224666E+03</pdfrwt>
<totfact> 0.22675110E-01</totfact>
</mgrwt>
</event>
<event>
 4    1  0.2514307E-008  0.1404879E+04  0.7818608E-02  0.8979901E-01
          1   -1    0    0  501    0  0.00000000000E+00  0.00000000000E+00  0.23330279451E+04  0.23330279451E+04  0.50400000000E-02 0. -1.
         -1   -1    0    0    0  501 -0.00000000000E+00 -0.00000000000E+00 -0.89133310638E+03  0.89133310640E+03  0.50400000000E-02 0.  1.
    8880023    1    1    2    0    0 -0.12340673988E+04  0.13019903116E+03  0.12786321810E+03  0.14106854154E+04  0.65864270000E+03 0.  0.
    8880022    1    1    2    0    0  0.12340673988E+04 -0.13019903116E+03  0.13138316206E+04  0.18136756361E+04  0.15294330000E+03 0.  0.
<mgrwt>
<rscale>  0 0.13645305E+04</rscale>
<asrwt>0</asrwt>
<pdfrwt beam="1">  1        1 0.35892737E+00 0.14048788E+04</pdfrwt>
<pdfrwt beam="2">  1       -1 0.13712817E+00 0.14048788E+04</pdfrwt>
<totfact> 0.75132327E-01</totfact>
</mgrwt>
</event>
<event>
 4    1  0.2514307E-008  0.1012948E+04  0.7818608E-02  0.9364810E-01
          1   -1    0    0  501    0  0.00000000000E+00  0.00000000000E+00  0.23683249207E+04  0.23683249207E+04  0.50400000000E-02 0. -1.
         -1   -1    0    0    0  501 -0.00000000000E+00 -0.00000000000E+00 -0.46159920273E+03  0.46159920275E+03  0.50400000000E-02 0.  1.
    8880023    1    1    2    0    0 -0.24058232226E+03  0.73100874333E+03  0.32420319899E+03  0.10635654926E+04  0.65864270000E+03 0.  1.
    8880022    1    1    2    0    0  0.24058232226E+03 -0.73100874333E+03  0.15825225190E+04  0.17663586308E+04  0.15294330000E+03 0. -1.
<mgrwt>
<rscale>  0 0.95029121E+03</rscale>
<asrwt>0</asrwt>
<pdfrwt beam="1">  1        1 0.36435768E+00 0.10129481E+04</pdfrwt>
<pdfrwt beam="2">  1       -1 0.71015262E-01 0.10129481E+04</pdfrwt>
<totfact> 0.33958336E+00</totfact>
</mgrwt>
</event>
<event>
 4    1  0.2514307E-008  0.6790438E+03  0.7818608E-02  0.1009870E+00
         -1   -1    0    0    0  501 -0.00000000000E+00  0.00000000000E+00  0.16871920885E+03  0.16871920893E+03  0.50400000000E-02 0.  1.
          1   -1    0    0  501    0  0.00000000000E+00 -0.00000000000E+00 -0.18122585466E+04  0.18122585466E+04  0.50400000000E-02 0. -1.
    8880023    1    1    2    0    0  0.70379968030E+02  0.14945568768E+03 -0.57744152182E+03  0.89136931732E+03  0.65864270000E+03 0.  0.
    8880022    1    1    2    0    0 -0.70379968030E+02 -0.14945568768E+03 -0.10660978159E+04  0.10896084382E+04  0.15294330000E+03 0.  0.
<mgrwt>
<rscale>  0 0.51526433E+03</rscale>
<asrwt>0</asrwt>
<pdfrwt beam="1">  1        1 0.27880899E+00 0.67904385E+03</pdfrwt>
<pdfrwt beam="2">  1       -1 0.25956803E-01 0.67904385E+03</pdfrwt>
<totfact> 0.54527164E+01</totfact>
</mgrwt>
</event>
<event>
 4    1  0.2514307E-008  0.9421627E+03  0.7818608E-02  0.9461481E-01
         -1   -1    0    0    0  501 -0.00000000000E+00  0.00000000000E+00  0.13781402435E+04  0.13781402435E+04  0.50400000000E-02 0.  1.
          1   -1    0    0  501    0  0.00000000000E+00 -0.00000000000E+00 -0.51702354047E+03  0.51702354049E+03  0.50400000000E-02 0. -1.
    8880023    1    1    2    0    0 -0.60340744322E+03  0.29959925329E+03  0.25483585965E+03  0.97601832807E+03  0.65864270000E+03 0.  0.
    8880022    1    1    2    0    0  0.60340744322E+03 -0.29959925329E+03  0.60628084342E+03  0.91914545597E+03  0.15294330000E+03 0.  0.
<mgrwt>
<rscale>  0 0.87184217E+03</rscale>
<asrwt>0</asrwt>
<pdfrwt beam="1">  1        1 0.79542083E-01 0.94216265E+03</pdfrwt>
<pdfrwt beam="2">  1       -1 0.21202158E+00 0.94216265E+03</pdfrwt>
<totfact> 0.53308746E+00</totfact>
</mgrwt>
</event>
<event>
 4    1  0.2514307E-008  0.8833040E+03  0.7818608E-02  0.9553384E-01
          1   -1    0    0  501    0  0.00000000000E+00  0.00000000000E+00  0.10531935113E+04  0.10531935113E+04  0.50400000000E-02 0. -1.
         -1   -1    0    0    0  501 -0.00000000000E+00 -0.00000000000E+00 -0.12018614876E+04  0.12018614876E+04  0.50400000000E-02 0.  1.
    8880023    1    1    2    0    0 -0.44779363042E+03  0.38196417510E+03 -0.91830031133E+03  0.12741669571E+04  0.65864270000E+03 0.  0.
    8880022    1    1    2    0    0  0.44779363042E+03 -0.38196417510E+03  0.76963233503E+03  0.98088804185E+03  0.15294330000E+03 0.  0.
<mgrwt>
<rscale>  0 0.80459921E+03</rscale>
<asrwt>0</asrwt>
<pdfrwt beam="1">  1        1 0.16202977E+00 0.88330401E+03</pdfrwt>
<pdfrwt beam="2">  1       -1 0.18490177E+00 0.88330401E+03</pdfrwt>
<totfact> 0.26939138E+00</totfact>
</mgrwt>
</event>
<event>
 4    1  0.2514307E-008  0.2134658E+04  0.7818608E-02  0.8557017E-01
         -1   -1    0    0    0  501 -0.00000000000E+00  0.00000000000E+00  0.22623961416E+04  0.22623961416E+04  0.50400000000E-02 0.  1.
          1   -1    0    0  501    0  0.00000000000E+00 -0.00000000000E+00 -0.27929747505E+04  0.27929747505E+04  0.50400000000E-02 0. -1.
    8880023    1    1    2    0    0 -0.80731530330E+03 -0.18631141778E+04  0.11413805334E+04  0.24206429242E+04  0.65864270000E+03 0.  0.
    8880022    1    1    2    0    0  0.80731530330E+03  0.18631141778E+04 -0.16719591422E+04  0.26347279679E+04  0.15294330000E+03 0.  0.
<mgrwt>
<rscale>  0 0.21096204E+04</rscale>
<asrwt>0</asrwt>
<pdfrwt beam="1">  1        1 0.42968842E+00 0.21346575E+04</pdfrwt>
<pdfrwt beam="2">  1       -1 0.34806095E+00 0.21346575E+04</pdfrwt>
<totfact> 0.11749476E-02</totfact>
</mgrwt>
</event>
<event>
 4    1  0.2514307E-008  0.6949672E+03  0.7818608E-02  0.1001876E+00
          1   -1    0    0  501    0  0.00000000000E+00  0.00000000000E+00  0.59181018943E+03  0.59181018945E+03  0.50400000000E-02 0. -1.
         -1   -1    0    0    0  501 -0.00000000000E+00 -0.00000000000E+00 -0.11785126665E+04  0.11785126666E+04  0.50400000000E-02 0.  1.
    8880023    1    1    2    0    0 -0.12615503765E+03  0.18235705255E+03 -0.10353811021E+04  0.12469937534E+04  0.65864270000E+03 0.  1.
    8880022    1    1    2    0    0  0.12615503765E+03 -0.18235705255E+03  0.44867862497E+03  0.52332910263E+03  0.15294330000E+03 0.  0.
<mgrwt>
<rscale>  0 0.54835400E+03</rscale>
<asrwt>0</asrwt>
<pdfrwt beam="1">  1        1 0.91047722E-01 0.69496719E+03</pdfrwt>
<pdfrwt beam="2">  1       -1 0.18130964E+00 0.69496719E+03</pdfrwt>
<totfact> 0.74060757E+00</totfact>
</mgrwt>
</event>
<event>
 4    1  0.2514307E-008  0.7843217E+03  0.7818608E-02  0.9745782E-01
          1   -1    0    0  501    0  0.00000000000E+00  0.00000000000E+00  0.10121768510E+04  0.10121768511E+04  0.50400000000E-02 0. -1.
         -1   -1    0    0    0  501 -0.00000000000E+00 -0.00000000000E+00 -0.67803820760E+03  0.67803820762E+03  0.50400000000E-02 0.  1.
    8880023    1    1    2    0    0 -0.34634077486E+03  0.24778688523E+03 -0.35890330299E+03  0.86253814987E+03  0.65864270000E+03 0.  1.
    8880022    1    1    2    0    0  0.34634077486E+03 -0.24778688523E+03  0.69304194644E+03  0.82767690880E+03  0.15294330000E+03 0.  0.
<mgrwt>
<rscale>  0 0.68355192E+03</rscale>
<asrwt>0</asrwt>
<pdfrwt beam="1">  1        1 0.15571952E+00 0.78432167E+03</pdfrwt>
<pdfrwt beam="2">  1       -1 0.10431357E+00 0.78432167E+03</pdfrwt>
<totfact> 0.13140020E+01</totfact>
</mgrwt>
</event>
<event>
 4    1  0.2514307E-008  0.1448107E+04  0.7818608E-02  0.8947176E-01
         -1   -1    0    0    0  501 -0.00000000000E+00  0.00000000000E+00  0.22953007711E+04  0.22953007711E+04  0.50400000000E-02 0.  1.
          1   -1    0    0  501    0  0.00000000000E+00 -0.00000000000E+00 -0.22222140383E+04  0.22222140383E+04  0.50400000000E-02 0. -1.
    8880023    1    1    2    0    0 -0.14252765222E+03  0.12817522461E+04  0.18294141725E+04  0.23331886706E+04  0.65864270000E+03 0.  0.
    8880022    1    1    2    0    0  0.14252765222E+03 -0.12817522461E+04 -0.17563274397E+04  0.21843261388E+04  0.15294330000E+03 0.  0.
<mgrwt>
<rscale>  0 0.14092134E+04</rscale>
<asrwt>0</asrwt>
<pdfrwt beam="1">  1        1 0.34187908E+00 0.14481067E+04</pdfrwt>
<pdfrwt beam="2">  1       -1 0.35312319E+00 0.14481067E+04</pdfrwt>
<totfact> 0.29647762E-02</totfact>
</mgrwt>
</event>
<event>
 4    1  0.2514307E-008  0.7354446E+03  0.7818608E-02  0.9873421E-01
          1   -1    0    0  501    0  0.00000000000E+00  0.00000000000E+00  0.29401092851E+04  0.29401092851E+04  0.50400000000E-02 0. -1.
         -1   -1    0    0    0  501 -0.00000000000E+00 -0.00000000000E+00 -0.18922240001E+03  0.18922240008E+03  0.50400000000E-02 0.  1.
    8880023    1    1    2    0    0  0.29595081237E+03  0.13957697910E+03  0.60231478729E+03  0.95061134313E+03  0.65864270000E+03 0.  1.
    8880022    1    1    2    0    0 -0.29595081237E+03 -0.13957697910E+03  0.21485720978E+04  0.21787203421E+04  0.15294330000E+03 0. -1.
<mgrwt>
<rscale>  0 0.61566898E+03</rscale>
<asrwt>0</asrwt>
<pdfrwt beam="1">  1        1 0.45232453E+00 0.73544464E+03</pdfrwt>
<pdfrwt beam="2">  1       -1 0.29111137E-01 0.73544464E+03</pdfrwt>
<totfact> 0.75758863E+00</totfact>
</mgrwt>
</event>
<event>
 4    1  0.2514307E-008  0.8152909E+03  0.7818608E-02  0.9678660E-01
          1   -1    0    0  501    0  0.00000000000E+00  0.00000000000E+00  0.10763459873E+04  0.10763459873E+04  0.50400000000E-02 0. -1.
         -1   -1    0    0    0  501 -0.00000000000E+00 -0.00000000000E+00 -0.22113241829E+04  0.22113241829E+04  0.50400000000E-02 0.  1.
    8880023    1    1    2    0    0  0.47145267125E+03  0.92851447015E+02 -0.20703148232E+04  0.22250624004E+04  0.65864270000E+03 0.  1.
    8880022    1    1    2    0    0 -0.47145267125E+03 -0.92851447015E+02  0.93533662759E+03  0.10626077698E+04  0.15294330000E+03 0.  0.
<mgrwt>
<rscale>  0 0.72301716E+03</rscale>
<asrwt>0</asrwt>
<pdfrwt beam="1">  1        1 0.16559169E+00 0.81529088E+03</pdfrwt>
<pdfrwt beam="2">  1       -1 0.34020372E+00 0.81529088E+03</pdfrwt>
<totfact> 0.25189211E-01</totfact>
</mgrwt>
</event>
<event>
 4    1  0.2514307E-008  0.6827357E+03  0.7818608E-02  0.1007817E+00
         -1   -1    0    0    0  501 -0.00000000000E+00  0.00000000000E+00  0.65011656535E+03  0.65011656537E+03  0.50400000000E-02 0.  1.
          1   -1    0    0  501    0  0.00000000000E+00 -0.00000000000E+00 -0.13098542974E+04  0.13098542974E+04  0.50400000000E-02 0. -1.
    8880023    1    1    2    0    0 -0.17933871533E+03 -0.12468492723E+02  0.45503935424E+03  0.82048087016E+03  0.65864270000E+03 0.  0.
    8880022    1    1    2    0    0  0.17933871533E+03  0.12468492723E+02 -0.11147770863E+04  0.11394899927E+04  0.15294330000E+03 0.  0.
<mgrwt>
<rscale>  0 0.52351679E+03</rscale>
<asrwt>0</asrwt>
<pdfrwt beam="1">  1        1 0.20151605E+00 0.68273571E+03</pdfrwt>
<pdfrwt beam="2">  1       -1 0.10001793E+00 0.68273571E+03</pdfrwt>
<totfact> 0.88823430E+00</totfact>
</mgrwt>
</event>
<event>
 4    1  0.2514307E-008  0.1165746E+04  0.7818608E-02  0.9191161E-01
          1   -1    0    0  501    0  0.00000000000E+00  0.00000000000E+00  0.12486780893E+04  0.12486780893E+04  0.50400000000E-02 0. -1.
         -1   -1    0    0    0  501 -0.00000000000E+00 -0.00000000000E+00 -0.11732692674E+04  0.11732692674E+04  0.50400000000E-02 0.  1.
    8880023    1    1    2    0    0 -0.76037051845E+03 -0.58905845925E+03 -0.52425790568E+03  0.12782056766E+04  0.65864270000E+03 0.  0.
    8880022    1    1    2    0    0  0.76037051845E+03  0.58905845925E+03  0.59966672759E+03  0.11437416802E+04  0.15294330000E+03 0.  0.
<mgrwt>
<rscale>  0 0.11145130E+04</rscale>
<asrwt>0</asrwt>
<pdfrwt beam="1">  1        1 0.19210432E+00 0.11657459E+04</pdfrwt>
<pdfrwt beam="2">  1       -1 0.18050296E+00 0.11657459E+04</pdfrwt>
<totfact> 0.20001082E+00</totfact>
</mgrwt>
</event>
<event>
 4    1  0.2514307E-008  0.1312350E+04  0.7818608E-02  0.9054968E-01
         -1   -1    0    0    0  501 -0.00000000000E+00  0.00000000000E+00  0.11250589287E+04  0.11250589287E+04  0.50400000000E-02 0.  1.
          1   -1    0    0  501    0  0.00000000000E+00 -0.00000000000E+00 -0.26726579461E+04  0.26726579461E+04  0.50400000000E-02 0. -1.
    8880023    1    1    2    0    0 -0.95536525918E+03 -0.61296799474E+03  0.53797255846E+03  0.14183360747E+04  0.65864270000E+03 0.  0.
    8880022    1    1    2    0    0  0.95536525918E+03  0.61296799474E+03 -0.20855715758E+04  0.23793808001E+04  0.15294330000E+03 0.  0.
<mgrwt>
<rscale>  0 0.12684477E+04</rscale>
<asrwt>0</asrwt>
<pdfrwt beam="1">  1        1 0.41117814E+00 0.13123501E+04</pdfrwt>
<pdfrwt beam="2">  1       -1 0.17308599E+00 0.13123501E+04</pdfrwt>
<totfact> 0.23283853E-01</totfact>
</mgrwt>
</event>
<event>
 4    1  0.2514307E-008  0.7906279E+03  0.7818608E-02  0.9731439E-01
         -1   -1    0    0    0  501 -0.00000000000E+00  0.00000000000E+00  0.31017572038E+03  0.31017572042E+03  0.50400000000E-02 0.  1.
          1   -1    0    0  501    0  0.00000000000E+00 -0.00000000000E+00 -0.19897023082E+04  0.19897023082E+04  0.50400000000E-02 0. -1.
    8880023    1    1    2    0    0 -0.18902028828E+03  0.39440281051E+03 -0.16570511494E+04  0.18360040752E+04  0.65864270000E+03 0.  0.
    8880022    1    1    2    0    0  0.18902028828E+03 -0.39440281051E+03 -0.22475438471E+02  0.46387395343E+03  0.15294330000E+03 0.  0.
<mgrwt>
<rscale>  0 0.69175372E+03</rscale>
<asrwt>0</asrwt>
<pdfrwt beam="1">  1        1 0.30610804E+00 0.79062789E+03</pdfrwt>
<pdfrwt beam="2">  1       -1 0.47719343E-01 0.79062789E+03</pdfrwt>
<totfact> 0.13778664E+01</totfact>
</mgrwt>
</event>
<event>
 4    1  0.2514307E-008  0.8107339E+03  0.7818608E-02  0.9688050E-01
          1   -1    0    0  501    0  0.00000000000E+00  0.00000000000E+00  0.30379334086E+04  0.30379334086E+04  0.50400000000E-02 0. -1.
         -1   -1    0    0    0  501 -0.00000000000E+00 -0.00000000000E+00 -0.36357068501E+03  0.36357068505E+03  0.50400000000E-02 0.  1.
    8880023    1    1    2    0    0 -0.28273867837E+03  0.37886414920E+03  0.14474690576E+03  0.82355393071E+03  0.65864270000E+03 0.  1.
    8880022    1    1    2    0    0  0.28273867837E+03 -0.37886414920E+03  0.25296158178E+04  0.25779501630E+04  0.15294330000E+03 0.  0.
<mgrwt>
<rscale>  0 0.71732748E+03</rscale>
<asrwt>0</asrwt>
<pdfrwt beam="1">  1        1 0.46737440E+00 0.81073387E+03</pdfrwt>
<pdfrwt beam="2">  1       -1 0.55933948E-01 0.81073387E+03</pdfrwt>
<totfact> 0.19267156E+00</totfact>
</mgrwt>
</event>
<event>
 4    1  0.2514307E-008  0.7841327E+03  0.7818608E-02  0.9746217E-01
         -1   -1    0    0    0  501 -0.00000000000E+00  0.00000000000E+00  0.10853065234E+04  0.10853065234E+04  0.50400000000E-02 0.  1.
          1   -1    0    0  501    0  0.00000000000E+00 -0.00000000000E+00 -0.56412263147E+03  0.56412263149E+03  0.50400000000E-02 0. -1.
    8880023    1    1    2    0    0 -0.23845035354E+03 -0.35241361540E+03  0.79839365605E+03  0.11190605720E+04  0.65864270000E+03 0.  1.
    8880022    1    1    2    0    0  0.23845035354E+03  0.35241361540E+03 -0.27720976412E+03  0.53036858294E+03  0.15294330000E+03 0.  0.
<mgrwt>
<rscale>  0 0.68330469E+03</rscale>
<asrwt>0</asrwt>
<pdfrwt beam="1">  1        1 0.86788098E-01 0.78413273E+03</pdfrwt>
<pdfrwt beam="2">  1       -1 0.16697023E+00 0.78413273E+03</pdfrwt>
<totfact> 0.99494735E+00</totfact>
</mgrwt>
</event>
<event>
 4    1  0.2514307E-008  0.8133294E+03  0.7818608E-02  0.9682683E-01
         -1   -1    0    0    0  501 -0.00000000000E+00  0.00000000000E+00  0.51811258269E+03  0.51811258271E+03  0.50400000000E-02 0.  1.
          1   -1    0    0  501    0  0.00000000000E+00 -0.00000000000E+00 -0.14653458425E+04  0.14653458425E+04  0.50400000000E-02 0. -1.
    8880023    1    1    2    0    0 -0.42345541977E+03 -0.21995462785E+03  0.10298564944E+03  0.81982362805E+03  0.65864270000E+03 0.  0.
    8880022    1    1    2    0    0  0.42345541977E+03  0.21995462785E+03 -0.10502189092E+04  0.11636347972E+04  0.15294330000E+03 0.  0.
<mgrwt>
<rscale>  0 0.72057255E+03</rscale>
<asrwt>0</asrwt>
<pdfrwt beam="1">  1        1 0.22543782E+00 0.81332941E+03</pdfrwt>
<pdfrwt beam="2">  1       -1 0.79709629E-01 0.81332941E+03</pdfrwt>
<totfact> 0.11177629E+01</totfact>
</mgrwt>
</event>
<event>
 4    1  0.2514307E-008  0.8474701E+03  0.7818608E-02  0.9616252E-01
          1   -1    0    0  501    0  0.00000000000E+00  0.00000000000E+00  0.22265384658E+04  0.22265384658E+04  0.50400000000E-02 0. -1.
         -1   -1    0    0    0  501 -0.00000000000E+00 -0.00000000000E+00 -0.33353729737E+03  0.33353729741E+03  0.50400000000E-02 0.  1.
    8880023    1    1    2    0    0  0.63361472206E+02  0.52950987815E+03  0.34383248381E+03  0.91456348626E+03  0.65864270000E+03 0. -1.
    8880022    1    1    2    0    0 -0.63361472206E+02 -0.52950987815E+03  0.15491686846E+04  0.16455122770E+04  0.15294330000E+03 0.  0.
<mgrwt>
<rscale>  0 0.76229766E+03</rscale>
<asrwt>0</asrwt>
<pdfrwt beam="1">  1        1 0.34254439E+00 0.84747011E+03</pdfrwt>
<pdfrwt beam="2">  1       -1 0.51313428E-01 0.84747011E+03</pdfrwt>
<totfact> 0.82598601E+00</totfact>
</mgrwt>
</event>
<event>
 4    1  0.2514307E-008  0.1027706E+04  0.7818608E-02  0.9346174E-01
          1   -1    0    0  501    0  0.00000000000E+00  0.00000000000E+00  0.16829697780E+04  0.16829697780E+04  0.50400000000E-02 0. -1.
         -1   -1    0    0    0  501 -0.00000000000E+00 -0.00000000000E+00 -0.68685055532E+03  0.68685055534E+03  0.50400000000E-02 0.  1.
    8880023    1    1    2    0    0 -0.76174136156E+03  0.20523171855E+03 -0.75377887723E+02  0.10304668808E+04  0.65864270000E+03 0.  1.
    8880022    1    1    2    0    0  0.76174136156E+03 -0.20523171855E+03  0.10714971104E+04  0.13393534525E+04  0.15294330000E+03 0.  0.
<mgrwt>
<rscale>  0 0.96640859E+03</rscale>
<asrwt>0</asrwt>
<pdfrwt beam="1">  1        1 0.25891843E+00 0.10277063E+04</pdfrwt>
<pdfrwt beam="2">  1       -1 0.10566932E+00 0.10277063E+04</pdfrwt>
<totfact> 0.41219702E+00</totfact>
</mgrwt>
</event>
<event>
 4    1  0.2514307E-008  0.1074077E+04  0.7818608E-02  0.9290482E-01
          1   -1    0    0  501    0  0.00000000000E+00  0.00000000000E+00  0.97184358079E+03  0.97184358081E+03  0.50400000000E-02 0. -1.
         -1   -1    0    0    0  501 -0.00000000000E+00 -0.00000000000E+00 -0.20227632654E+04  0.20227632654E+04  0.50400000000E-02 0.  1.
    8880023    1    1    2    0    0 -0.79452418921E+03 -0.29759492544E+03 -0.16328770211E+04  0.19544638649E+04  0.65864270000E+03 0.  0.
    8880022    1    1    2    0    0  0.79452418921E+03  0.29759492544E+03  0.58195733655E+03  0.10401429813E+04  0.15294330000E+03 0.  0.
<mgrwt>
<rscale>  0 0.10166384E+04</rscale>
<asrwt>0</asrwt>
<pdfrwt beam="1">  1        1 0.14951440E+00 0.10740771E+04</pdfrwt>
<pdfrwt beam="2">  1       -1 0.31119435E+00 0.10740771E+04</pdfrwt>
<totfact> 0.44651620E-01</totfact>
</mgrwt>
</event>
<event>
 4    1  0.2514307E-008  0.6911807E+03  0.7818608E-02  0.1003596E+00
          1   -1    0    0  501    0  0.00000000000E+00  0.00000000000E+00  0.76037323258E+03  0.76037323259E+03  0.50400000000E-02 0. -1.
         -1   -1    0    0    0  501 -0.00000000000E+00 -0.00000000000E+00 -0.62814155848E+03  0.62814155850E+03  0.50400000000E-02 0.  1.
    8880023    1    1    2    0    0  0.11716785449E+02  0.20924435864E+03 -0.39845162071E+03  0.79780598205E+03  0.65864270000E+03 0.  1.
    8880022    1    1    2    0    0 -0.11716785449E+02 -0.20924435864E+03  0.53068329480E+03  0.59070880904E+03  0.15294330000E+03 0.  0.
<mgrwt>
<rscale>  0 0.54101007E+03</rscale>
<asrwt>0</asrwt>
<pdfrwt beam="1">  1        1 0.11698050E+00 0.69118065E+03</pdfrwt>
<pdfrwt beam="2">  1       -1 0.96637163E-01 0.69118065E+03</pdfrwt>
<totfact> 0.25509996E+01</totfact>
</mgrwt>
</event>
<event>
 4    1  0.2514307E-008  0.1383868E+04  0.7818608E-02  0.8996320E-01
         -1   -1    0    0    0  501 -0.00000000000E+00  0.00000000000E+00  0.40727511459E+03  0.40727511462E+03  0.50400000000E-02 0.  1.
          1   -1    0    0  501    0  0.00000000000E+00 -0.00000000000E+00 -0.43121348681E+04  0.43121348681E+04  0.50400000000E-02 0. -1.
    8880023    1    1    2    0    0 -0.96867353265E+03 -0.73685202351E+03 -0.16591337480E+04  0.21605125127E+04  0.65864270000E+03 0.  0.
    8880022    1    1    2    0    0  0.96867353265E+03  0.73685202351E+03 -0.22457260055E+04  0.25588974701E+04  0.15294330000E+03 0.  0.
<mgrwt>
<rscale>  0 0.13427684E+04</rscale>
<asrwt>0</asrwt>
<pdfrwt beam="1">  1        1 0.66340533E+00 0.13838676E+04</pdfrwt>
<pdfrwt beam="2">  1       -1 0.62657713E-01 0.13838676E+04</pdfrwt>
<totfact> 0.12769467E-01</totfact>
</mgrwt>
</event>
<event>
 4    1  0.2514307E-008  0.8402924E+03  0.7818608E-02  0.9629629E-01
         -1   -1    0    0    0  501 -0.00000000000E+00  0.00000000000E+00  0.40995023272E+03  0.40995023275E+03  0.50400000000E-02 0.  1.
          1   -1    0    0  501    0  0.00000000000E+00 -0.00000000000E+00 -0.29994285129E+04  0.29994285129E+04  0.50400000000E-02 0. -1.
    8880023    1    1    2    0    0 -0.13491446695E+03  0.50406262797E+03 -0.82755106084E+02  0.84435754284E+03  0.65864270000E+03 0.  1.
    8880022    1    1    2    0    0  0.13491446695E+03 -0.50406262797E+03 -0.25067231741E+04  0.25650212028E+04  0.15294330000E+03 0.  0.
<mgrwt>
<rscale>  0 0.75365783E+03</rscale>
<asrwt>0</asrwt>
<pdfrwt beam="1">  1        1 0.46145053E+00 0.84029236E+03</pdfrwt>
<pdfrwt beam="2">  1       -1 0.63069268E-01 0.84029236E+03</pdfrwt>
<totfact> 0.16120511E+00</totfact>
</mgrwt>
</event>
<event>
 4    1  0.2514307E-008  0.6766588E+03  0.7818608E-02  0.1011280E+00
          1   -1    0    0  501    0  0.00000000000E+00  0.00000000000E+00  0.11401839382E+04  0.11401839382E+04  0.50400000000E-02 0. -1.
         -1   -1    0    0    0  501 -0.00000000000E+00 -0.00000000000E+00 -0.54361028286E+03  0.54361028289E+03  0.50400000000E-02 0.  1.
    8880023    1    1    2    0    0 -0.15148534446E+03 -0.33303964833E+02 -0.31512196486E+03  0.74643755443E+03  0.65864270000E+03 0.  1.
    8880022    1    1    2    0    0  0.15148534446E+03  0.33303964833E+02  0.91169562020E+03  0.93735666667E+03  0.15294330000E+03 0.  0.
<mgrwt>
<rscale>  0 0.50968900E+03</rscale>
<asrwt>0</asrwt>
<pdfrwt beam="1">  1        1 0.17541291E+00 0.67665883E+03</pdfrwt>
<pdfrwt beam="2">  1       -1 0.83632352E-01 0.67665883E+03</pdfrwt>
<totfact> 0.17471082E+01</totfact>
</mgrwt>
</event>
<event>
 4    1  0.2514307E-008  0.1359286E+04  0.7818608E-02  0.9015982E-01
          1   -1    0    0  501    0  0.00000000000E+00  0.00000000000E+00  0.18813510527E+04  0.18813510527E+04  0.50400000000E-02 0. -1.
         -1   -1    0    0    0  501 -0.00000000000E+00 -0.00000000000E+00 -0.11025278689E+04  0.11025278689E+04  0.50400000000E-02 0.  1.
    8880023    1    1    2    0    0 -0.48162183874E+03  0.10871465491E+04  0.10933693957E+04  0.17444523658E+04  0.65864270000E+03 0.  0.
    8880022    1    1    2    0    0  0.48162183874E+03 -0.10871465491E+04 -0.31454621200E+03  0.12394265558E+04  0.15294330000E+03 0.  0.
<mgrwt>
<rscale>  0 0.13172681E+04</rscale>
<asrwt>0</asrwt>
<pdfrwt beam="1">  1        1 0.28943862E+00 0.13592856E+04</pdfrwt>
<pdfrwt beam="2">  1       -1 0.16961967E+00 0.13592856E+04</pdfrwt>
<totfact> 0.85523331E-01</totfact>
</mgrwt>
</event>
<event>
 4    1  0.2514307E-008  0.9593920E+03  0.7818608E-02  0.9436728E-01
          1   -1    0    0  501    0  0.00000000000E+00  0.00000000000E+00  0.10427218382E+04  0.10427218382E+04  0.50400000000E-02 0. -1.
         -1   -1    0    0    0  501 -0.00000000000E+00 -0.00000000000E+00 -0.95422491488E+03  0.95422491489E+03  0.50400000000E-02 0.  1.
    8880023    1    1    2    0    0 -0.30121894618E+03  0.62919780468E+03 -0.49055816951E+03  0.10775343405E+04  0.65864270000E+03 0.  1.
    8880022    1    1    2    0    0  0.30121894618E+03 -0.62919780468E+03  0.57905509280E+03  0.91941241261E+03  0.15294330000E+03 0.  0.
<mgrwt>
<rscale>  0 0.89113779E+03</rscale>
<asrwt>0</asrwt>
<pdfrwt beam="1">  1        1 0.16041874E+00 0.95939196E+03</pdfrwt>
<pdfrwt beam="2">  1       -1 0.14680383E+00 0.95939196E+03</pdfrwt>
<totfact> 0.52212735E+00</totfact>
</mgrwt>
</event>
<event>
 4    1  0.2514307E-008  0.7066370E+03  0.7818608E-02  0.9970708E-01
          1   -1    0    0  501    0  0.00000000000E+00  0.00000000000E+00  0.10347695204E+04  0.10347695204E+04  0.50400000000E-02 0. -1.
         -1   -1    0    0    0  501 -0.00000000000E+00 -0.00000000000E+00 -0.29120503165E+03  0.29120503170E+03  0.50400000000E-02 0.  1.
    8880023    1    1    2    0    0  0.25076038566E+03 -0.51428096447E+02  0.25044205131E+03  0.74970464014E+03  0.65864270000E+03 0.  1.
    8880022    1    1    2    0    0 -0.25076038566E+03  0.51428096447E+02  0.49312243741E+03  0.57626991195E+03  0.15294330000E+03 0.  0.
<mgrwt>
<rscale>  0 0.56953516E+03</rscale>
<asrwt>0</asrwt>
<pdfrwt beam="1">  1        1 0.15919531E+00 0.70663698E+03</pdfrwt>
<pdfrwt beam="2">  1       -1 0.44800773E-01 0.70663698E+03</pdfrwt>
<totfact> 0.72032052E+01</totfact>
</mgrwt>
</event>
<event>
 4    1  0.2514307E-008  0.1381259E+04  0.7818608E-02  0.8998384E-01
         -1   -1    0    0    0  501 -0.00000000000E+00  0.00000000000E+00  0.62316286092E+03  0.62316286094E+03  0.50400000000E-02 0.  1.
          1   -1    0    0  501    0  0.00000000000E+00 -0.00000000000E+00 -0.32941813782E+04  0.32941813782E+04  0.50400000000E-02 0. -1.
    8880023    1    1    2    0    0 -0.78582941185E+03  0.92549302699E+03 -0.58742800089E+03  0.15009820352E+04  0.65864270000E+03 0.  0.
    8880022    1    1    2    0    0  0.78582941185E+03 -0.92549302699E+03 -0.20835905164E+04  0.24163622039E+04  0.15294330000E+03 0.  0.
<mgrwt>
<rscale>  0 0.13400640E+04</rscale>
<asrwt>0</asrwt>
<pdfrwt beam="1">  1        1 0.50679712E+00 0.13812586E+04</pdfrwt>
<pdfrwt beam="2">  1       -1 0.95871212E-01 0.13812586E+04</pdfrwt>
<totfact> 0.36943189E-01</totfact>
</mgrwt>
</event>
<event>
 4    1  0.2514307E-008  0.1060646E+04  0.7818608E-02  0.9306191E-01
          1   -1    0    0  501    0  0.00000000000E+00  0.00000000000E+00  0.83695843861E+03  0.83695843862E+03  0.50400000000E-02 0. -1.
         -1   -1    0    0    0  501 -0.00000000000E+00 -0.00000000000E+00 -0.19869267721E+04  0.19869267721E+04  0.50400000000E-02 0.  1.
    8880023    1    1    2    0    0 -0.81228090742E+03  0.17708740097E+03 -0.15583830490E+04  0.18850804104E+04  0.65864270000E+03 0.  1.
    8880022    1    1    2    0    0  0.81228090742E+03 -0.17708740097E+03  0.40841471553E+03  0.93880480027E+03  0.15294330000E+03 0.  0.
<mgrwt>
<rscale>  0 0.10021486E+04</rscale>
<asrwt>0</asrwt>
<pdfrwt beam="1">  1        1 0.12876284E+00 0.10606462E+04</pdfrwt>
<pdfrwt beam="2">  1       -1 0.30568104E+00 0.10606462E+04</pdfrwt>
<totfact> 0.62667714E-01</totfact>
</mgrwt>
</event>
<event>
 4    1  0.2514307E-008  0.9485064E+03  0.7818608E-02  0.9452266E-01
          1   -1    0    0  501    0  0.00000000000E+00  0.00000000000E+00  0.16732124705E+04  0.16732124705E+04  0.50400000000E-02 0. -1.
         -1   -1    0    0    0  501 -0.00000000000E+00 -0.00000000000E+00 -0.92651713951E+03  0.92651713952E+03  0.50400000000E-02 0.  1.
    8880023    1    1    2    0    0  0.65536070960E+03  0.19067384706E+03 -0.57155775647E+03  0.11074035628E+04  0.65864270000E+03 0.  1.
    8880022    1    1    2    0    0 -0.65536070960E+03 -0.19067384706E+03  0.13182530874E+04  0.14923260472E+04  0.15294330000E+03 0.  0.
<mgrwt>
<rscale>  0 0.87896400E+03</rscale>
<asrwt>0</asrwt>
<pdfrwt beam="1">  1        1 0.25741730E+00 0.94850640E+03</pdfrwt>
<pdfrwt beam="2">  1       -1 0.14254110E+00 0.94850640E+03</pdfrwt>
<totfact> 0.20166330E+00</totfact>
</mgrwt>
</event>
<event>
 4    1  0.2514307E-008  0.7836358E+03  0.7818608E-02  0.9747365E-01
          1   -1    0    0  501    0  0.00000000000E+00  0.00000000000E+00  0.64928028384E+03  0.64928028386E+03  0.50400000000E-02 0. -1.
         -1   -1    0    0    0  501 -0.00000000000E+00 -0.00000000000E+00 -0.20937217480E+04  0.20937217480E+04  0.50400000000E-02 0.  1.
    8880023    1    1    2    0    0  0.38378382013E+03 -0.18161711967E+03 -0.19282398964E+04  0.20813923473E+04  0.65864270000E+03 0.  1.
    8880022    1    1    2    0    0 -0.38378382013E+03  0.18161711967E+03  0.48379843225E+03  0.66160968464E+03  0.15294330000E+03 0.  0.
<mgrwt>
<rscale>  0 0.68265397E+03</rscale>
<asrwt>0</asrwt>
<pdfrwt beam="1">  1        1 0.99889276E-01 0.78363576E+03</pdfrwt>
<pdfrwt beam="2">  1       -1 0.32211103E+00 0.78363576E+03</pdfrwt>
<totfact> 0.76246600E-01</totfact>
</mgrwt>
</event>
<event>
 4    1  0.2514307E-008  0.1363011E+04  0.7818608E-02  0.9012971E-01
          1   -1    0    0  501    0  0.00000000000E+00  0.00000000000E+00  0.14568052067E+04  0.14568052067E+04  0.50400000000E-02 0. -1.
         -1   -1    0    0    0  501 -0.00000000000E+00 -0.00000000000E+00 -0.14093574819E+04  0.14093574819E+04  0.50400000000E-02 0.  1.
    8880023    1    1    2    0    0 -0.11929200101E+04  0.30501906211E+02 -0.61212168236E+03  0.14941524946E+04  0.65864270000E+03 0.  0.
    8880022    1    1    2    0    0  0.11929200101E+04 -0.30501906211E+02  0.65956940720E+03  0.13720101941E+04  0.15294330000E+03 0.  0.
<mgrwt>
<rscale>  0 0.13211354E+04</rscale>
<asrwt>0</asrwt>
<pdfrwt beam="1">  1        1 0.22412388E+00 0.13630109E+04</pdfrwt>
<pdfrwt beam="2">  1       -1 0.21682423E+00 0.13630109E+04</pdfrwt>
<totfact> 0.77883989E-01</totfact>
</mgrwt>
</event>
<event>
 4    1  0.2514307E-008  0.1679044E+04  0.7818608E-02  0.8792571E-01
          1   -1    0    0  501    0  0.00000000000E+00  0.00000000000E+00  0.25466697223E+04  0.25466697223E+04  0.50400000000E-02 0. -1.
         -1   -1    0    0    0  501 -0.00000000000E+00 -0.00000000000E+00 -0.10885573777E+04  0.10885573777E+04  0.50400000000E-02 0.  1.
    8880023    1    1    2    0    0 -0.14554148637E+04  0.51686210883E+03  0.11954457953E+04  0.20611355416E+04  0.65864270000E+03 0.  0.
    8880022    1    1    2    0    0  0.14554148637E+04 -0.51686210883E+03  0.26266654929E+03  0.15740915584E+04  0.15294330000E+03 0.  0.
<mgrwt>
<rscale>  0 0.16463456E+04</rscale>
<asrwt>0</asrwt>
<pdfrwt beam="1">  1        1 0.39179534E+00 0.16790441E+04</pdfrwt>
<pdfrwt beam="2">  1       -1 0.16747037E+00 0.16790441E+04</pdfrwt>
<totfact> 0.30024617E-01</totfact>
</mgrwt>
</event>
<event>
 4    1  0.2514307E-008  0.6606159E+03  0.7818608E-02  0.1023534E+00
         -1   -1    0    0    0  501 -0.00000000000E+00  0.00000000000E+00  0.90559876933E+03  0.90559876935E+03  0.50400000000E-02 0.  1.
          1   -1    0    0  501    0  0.00000000000E+00 -0.00000000000E+00 -0.11777739020E+04  0.11777739020E+04  0.50400000000E-02 0. -1.
    8880023    1    1    2    0    0  0.12311480991E+02  0.49512984788E+02  0.77814707440E+03  0.10207478552E+04  0.65864270000E+03 0.  1.
    8880022    1    1    2    0    0 -0.12311480991E+02 -0.49512984788E+02 -0.10503222071E+04  0.10626248162E+04  0.15294330000E+03 0.  0.
<mgrwt>
<rscale>  0 0.46432544E+03</rscale>
<asrwt>0</asrwt>
<pdfrwt beam="1">  1        1 0.18119599E+00 0.66061586E+03</pdfrwt>
<pdfrwt beam="2">  1       -1 0.13932289E+00 0.66061586E+03</pdfrwt>
<totfact> 0.49652409E+00</totfact>
</mgrwt>
</event>
<event>
 4    1  0.2514307E-008  0.1487039E+04  0.7818608E-02  0.8918842E-01
         -1   -1    0    0    0  501 -0.00000000000E+00  0.00000000000E+00  0.11657341500E+04  0.11657341500E+04  0.50400000000E-02 0.  1.
          1   -1    0    0  501    0  0.00000000000E+00 -0.00000000000E+00 -0.19445536217E+04  0.19445536217E+04  0.50400000000E-02 0. -1.
    8880023    1    1    2    0    0 -0.11123613763E+04  0.73493430657E+03  0.12508596842E+03  0.14922911821E+04  0.65864270000E+03 0.  0.
    8880022    1    1    2    0    0  0.11123613763E+04 -0.73493430657E+03 -0.90390544006E+03  0.16179965896E+04  0.15294330000E+03 0.  0.
<mgrwt>
<rscale>  0 0.14493628E+04</rscale>
<asrwt>0</asrwt>
<pdfrwt beam="1">  1        1 0.29916210E+00 0.14870395E+04</pdfrwt>
<pdfrwt beam="2">  1       -1 0.17934372E+00 0.14870395E+04</pdfrwt>
<totfact> 0.64843309E-01</totfact>
</mgrwt>
</event>
<event>
 4    1  0.2514307E-008  0.6788878E+03  0.7818608E-02  0.1009960E+00
         -1   -1    0    0    0  501 -0.00000000000E+00  0.00000000000E+00  0.66587183700E+03  0.66587183702E+03  0.50400000000E-02 0.  1.
          1   -1    0    0  501    0  0.00000000000E+00 -0.00000000000E+00 -0.57835325185E+03  0.57835325187E+03  0.50400000000E-02 0. -1.
    8880023    1    1    2    0    0  0.13872060587E+03 -0.88515636513E+02  0.45233902477E+03  0.81578135796E+03  0.65864270000E+03 0.  1.
    8880022    1    1    2    0    0 -0.13872060587E+03  0.88515636513E+02 -0.36482043961E+03  0.42844373093E+03  0.15294330000E+03 0.  0.
<mgrwt>
<rscale>  0 0.51490575E+03</rscale>
<asrwt>0</asrwt>
<pdfrwt beam="1">  1        1 0.88977424E-01 0.67888779E+03</pdfrwt>
<pdfrwt beam="2">  1       -1 0.10244182E+00 0.67888779E+03</pdfrwt>
<totfact> 0.33570175E+01</totfact>
</mgrwt>
</event>
<event>
 4    1  0.2514307E-008  0.7487612E+03  0.7818608E-02  0.9835124E-01
         -1   -1    0    0    0  501 -0.00000000000E+00  0.00000000000E+00  0.52029205407E+03  0.52029205409E+03  0.50400000000E-02 0.  1.
          1   -1    0    0  501    0  0.00000000000E+00 -0.00000000000E+00 -0.87395775665E+03  0.87395775667E+03  0.50400000000E-02 0. -1.
    8880023    1    1    2    0    0 -0.26787939604E+03 -0.23467786580E+03  0.14499884725E+03  0.76267158298E+03  0.65864270000E+03 0.  0.
    8880022    1    1    2    0    0  0.26787939604E+03  0.23467786580E+03 -0.49866454984E+03  0.63157822778E+03  0.15294330000E+03 0.  0.
<mgrwt>
<rscale>  0 0.63511177E+03</rscale>
<asrwt>0</asrwt>
<pdfrwt beam="1">  1        1 0.13445504E+00 0.74876116E+03</pdfrwt>
<pdfrwt beam="2">  1       -1 0.80044932E-01 0.74876116E+03</pdfrwt>
<totfact> 0.30569982E+01</totfact>
</mgrwt>
</event>
<event>
 4    1  0.2514307E-008  0.8425127E+03  0.7818608E-02  0.9625460E-01
          1   -1    0    0  501    0  0.00000000000E+00  0.00000000000E+00  0.11510521821E+04  0.11510521821E+04  0.50400000000E-02 0. -1.
         -1   -1    0    0    0  501 -0.00000000000E+00 -0.00000000000E+00 -0.61968924773E+03  0.61968924775E+03  0.50400000000E-02 0.  1.
    8880023    1    1    2    0    0  0.52334887343E+03 -0.46080587900E+02 -0.19162769374E+03  0.86403058000E+03  0.65864270000E+03 0.  1.
    8880022    1    1    2    0    0 -0.52334887343E+03  0.46080587900E+02  0.72299062811E+03  0.90671084986E+03  0.15294330000E+03 0.  0.
<mgrwt>
<rscale>  0 0.75633722E+03</rscale>
<asrwt>0</asrwt>
<pdfrwt beam="1">  1        1 0.17708495E+00 0.84251271E+03</pdfrwt>
<pdfrwt beam="2">  1       -1 0.95336808E-01 0.84251271E+03</pdfrwt>
<totfact> 0.12590530E+01</totfact>
</mgrwt>
</event>
<event>
 4    1  0.2514307E-008  0.6658021E+03  0.7818608E-02  0.1018870E+00
         -1   -1    0    0    0  501 -0.00000000000E+00  0.00000000000E+00  0.38238204953E+03  0.38238204957E+03  0.50400000000E-02 0.  1.
          1   -1    0    0  501    0  0.00000000000E+00 -0.00000000000E+00 -0.16753164224E+04  0.16753164224E+04  0.50400000000E-02 0. -1.
    8880023    1    1    2    0    0 -0.91081301153E+02  0.34444042614E+02  0.82025418597E+02  0.67083572583E+03  0.65864270000E+03 0.  1.
    8880022    1    1    2    0    0  0.91081301153E+02 -0.34444042614E+02 -0.13749597914E+04  0.13868627461E+04  0.15294330000E+03 0.  0.
<mgrwt>
<rscale>  0 0.48096689E+03</rscale>
<asrwt>0</asrwt>
<pdfrwt beam="1">  1        1 0.25774098E+00 0.66580207E+03</pdfrwt>
<pdfrwt beam="2">  1       -1 0.58828009E-01 0.66580207E+03</pdfrwt>
<totfact> 0.15263764E+01</totfact>
</mgrwt>
</event>
<event>
 4    1  0.2514307E-008  0.6936714E+03  0.7818608E-02  0.1002454E+00
         -1   -1    0    0    0  501 -0.00000000000E+00  0.00000000000E+00  0.15919937783E+04  0.15919937783E+04  0.50400000000E-02 0.  1.
          1   -1    0    0  501    0  0.00000000000E+00 -0.00000000000E+00 -0.39732028601E+03  0.39732028605E+03  0.50400000000E-02 0. -1.
    8880023    1    1    2    0    0  0.17162195805E+03  0.13384934935E+03  0.14582541689E+04  0.16148328620E+04  0.65864270000E+03 0.  1.
    8880022    1    1    2    0    0 -0.17162195805E+03 -0.13384934935E+03 -0.26358067663E+03  0.37448120235E+03  0.15294330000E+03 0.  0.
<mgrwt>
<rscale>  0 0.54587081E+03</rscale>
<asrwt>0</asrwt>
<pdfrwt beam="1">  1        1 0.61126198E-01 0.69367136E+03</pdfrwt>
<pdfrwt beam="2">  1       -1 0.24492212E+00 0.69367136E+03</pdfrwt>
<totfact> 0.47762049E+00</totfact>
</mgrwt>
</event>
<event>
 4    1  0.2514307E-008  0.8151189E+03  0.7818608E-02  0.9679011E-01
          1   -1    0    0  501    0  0.00000000000E+00  0.00000000000E+00  0.91503306416E+03  0.91503306417E+03  0.50400000000E-02 0. -1.
         -1   -1    0    0    0  501 -0.00000000000E+00 -0.00000000000E+00 -0.63693177734E+03  0.63693177736E+03  0.50400000000E-02 0.  1.
    8880023    1    1    2    0    0  0.47566834576E+03  0.65941760676E+02 -0.21904947090E+03  0.84403884267E+03  0.65864270000E+03 0.  0.
    8880022    1    1    2    0    0 -0.47566834576E+03 -0.65941760676E+02  0.49715075772E+03  0.70792599887E+03  0.15294330000E+03 0. -1.
<mgrwt>
<rscale>  0 0.72280314E+03</rscale>
<asrwt>0</asrwt>
<pdfrwt beam="1">  1        1 0.14077432E+00 0.81511895E+03</pdfrwt>
<pdfrwt beam="2">  1       -1 0.97989504E-01 0.81511895E+03</pdfrwt>
<totfact> 0.18032253E+01</totfact>
</mgrwt>
</event>
<event>
 4    1  0.2514307E-008  0.7529720E+03  0.7818608E-02  0.9823654E-01
         -1   -1    0    0    0  501 -0.00000000000E+00  0.00000000000E+00  0.58689715642E+03  0.58689715645E+03  0.50400000000E-02 0.  1.
          1   -1    0    0  501    0  0.00000000000E+00 -0.00000000000E+00 -0.10570178522E+04  0.10570178522E+04  0.50400000000E-02 0. -1.
    8880023    1    1    2    0    0  0.15499358166E+03 -0.33035378431E+03  0.27389198053E+03  0.80123882609E+03  0.65864270000E+03 0.  1.
    8880022    1    1    2    0    0 -0.15499358166E+03  0.33035378431E+03 -0.74401267633E+03  0.84267618260E+03  0.15294330000E+03 0.  0.
<mgrwt>
<rscale>  0 0.64108433E+03</rscale>
<asrwt>0</asrwt>
<pdfrwt beam="1">  1        1 0.16261813E+00 0.75297200E+03</pdfrwt>
<pdfrwt beam="2">  1       -1 0.90291871E-01 0.75297200E+03</pdfrwt>
<totfact> 0.16887382E+01</totfact>
</mgrwt>
</event>
<event>
 4    1  0.2514307E-008  0.7574050E+03  0.7818608E-02  0.9811873E-01
          1   -1    0    0  501    0  0.00000000000E+00  0.00000000000E+00  0.17211967376E+04  0.17211967376E+04  0.50400000000E-02 0. -1.
         -1   -1    0    0    0  501 -0.00000000000E+00 -0.00000000000E+00 -0.30247887548E+03  0.30247887552E+03  0.50400000000E-02 0.  1.
    8880023    1    1    2    0    0 -0.83404834118E+01 -0.37387506479E+03  0.26690966037E+03  0.80305859114E+03  0.65864270000E+03 0.  1.
    8880022    1    1    2    0    0  0.83404834118E+01  0.37387506479E+03  0.11518082017E+04  0.12206170220E+04  0.15294330000E+03 0.  0.
<mgrwt>
<rscale>  0 0.64729270E+03</rscale>
<asrwt>0</asrwt>
<pdfrwt beam="1">  1        1 0.26479950E+00 0.75740500E+03</pdfrwt>
<pdfrwt beam="2">  1       -1 0.46535211E-01 0.75740500E+03</pdfrwt>
<totfact> 0.21954907E+01</totfact>
</mgrwt>
</event>
<event>
 4    1  0.2514307E-008  0.9358796E+03  0.7818608E-02  0.9470728E-01
         -1   -1    0    0    0  501 -0.00000000000E+00  0.00000000000E+00  0.15945457861E+04  0.15945457861E+04  0.50400000000E-02 0.  1.
          1   -1    0    0  501    0  0.00000000000E+00 -0.00000000000E+00 -0.16766701097E+04  0.16766701097E+04  0.50400000000E-02 0. -1.
    8880023    1    1    2    0    0  0.12433736198E+03  0.65314666233E+03  0.13744255978E+04  0.16628037383E+04  0.65864270000E+03 0.  1.
    8880022    1    1    2    0    0 -0.12433736198E+03 -0.65314666233E+03 -0.14565499213E+04  0.16084121575E+04  0.15294330000E+03 0.  0.
<mgrwt>
<rscale>  0 0.86476745E+03</rscale>
<asrwt>0</asrwt>
<pdfrwt beam="1">  1        1 0.25794925E+00 0.93587956E+03</pdfrwt>
<pdfrwt beam="2">  1       -1 0.24531473E+00 0.93587956E+03</pdfrwt>
<totfact> 0.37886525E-01</totfact>
</mgrwt>
</event>
<event>
 4    1  0.2514307E-008  0.8883122E+03  0.7818608E-02  0.9545061E-01
          1   -1    0    0  501    0  0.00000000000E+00  0.00000000000E+00  0.27065289357E+04  0.27065289357E+04  0.50400000000E-02 0. -1.
         -1   -1    0    0    0  501 -0.00000000000E+00 -0.00000000000E+00 -0.38593495321E+03  0.38593495324E+03  0.50400000000E-02 0.  1.
    8880023    1    1    2    0    0  0.44917893187E+03 -0.39182478718E+03  0.23626839101E+03  0.91919602672E+03  0.65864270000E+03 0.  1.
    8880022    1    1    2    0    0 -0.44917893187E+03  0.39182478718E+03  0.20843255915E+04  0.21732678623E+04  0.15294330000E+03 0.  0.
<mgrwt>
<rscale>  0 0.81041650E+03</rscale>
<asrwt>0</asrwt>
<pdfrwt beam="1">  1        1 0.41638905E+00 0.88831221E+03</pdfrwt>
<pdfrwt beam="2">  1       -1 0.59374611E-01 0.88831221E+03</pdfrwt>
<totfact> 0.29038614E+00</totfact>
</mgrwt>
</event>
<event>
 4    1  0.2514307E-008  0.8404664E+03  0.7818608E-02  0.9629301E-01
         -1   -1    0    0    0  501 -0.00000000000E+00  0.00000000000E+00  0.69976558831E+03  0.69976558833E+03  0.50400000000E-02 0.  1.
          1   -1    0    0  501    0  0.00000000000E+00 -0.00000000000E+00 -0.28756304970E+04  0.28756304970E+04  0.50400000000E-02 0. -1.
    8880023    1    1    2    0    0 -0.31212195063E+03  0.41851339492E+03  0.40843602515E+03  0.93445372635E+03  0.65864270000E+03 0.  1.
    8880022    1    1    2    0    0  0.31212195063E+03 -0.41851339492E+03 -0.25843009339E+04  0.26409423590E+04  0.15294330000E+03 0.  0.
<mgrwt>
<rscale>  0 0.75386808E+03</rscale>
<asrwt>0</asrwt>
<pdfrwt beam="1">  1        1 0.44240469E+00 0.84046641E+03</pdfrwt>
<pdfrwt beam="2">  1       -1 0.10765625E+00 0.84046641E+03</pdfrwt>
<totfact> 0.62424549E-01</totfact>
</mgrwt>
</event>
<event>
 4    1  0.2514307E-008  0.8157871E+03  0.7818608E-02  0.9677646E-01
         -1   -1    0    0    0  501 -0.00000000000E+00  0.00000000000E+00  0.48460477963E+03  0.48460477966E+03  0.50400000000E-02 0.  1.
          1   -1    0    0  501    0  0.00000000000E+00 -0.00000000000E+00 -0.18207416419E+04  0.18207416419E+04  0.50400000000E-02 0. -1.
    8880023    1    1    2    0    0  0.48088384907E+03  0.21193931879E+02  0.62630690615E+02  0.81818779550E+03  0.65864270000E+03 0.  1.
    8880022    1    1    2    0    0 -0.48088384907E+03 -0.21193931879E+02 -0.13987675529E+04  0.14871586261E+04  0.15294330000E+03 0.  0.
<mgrwt>
<rscale>  0 0.72363464E+03</rscale>
<asrwt>0</asrwt>
<pdfrwt beam="1">  1        1 0.28011410E+00 0.81578714E+03</pdfrwt>
<pdfrwt beam="2">  1       -1 0.74554582E-01 0.81578714E+03</pdfrwt>
<totfact> 0.73838352E+00</totfact>
</mgrwt>
</event>
<event>
 4    1  0.2514307E-008  0.1491353E+04  0.7818608E-02  0.8915766E-01
         -1   -1    0    0    0  501 -0.00000000000E+00  0.00000000000E+00  0.18453059867E+04  0.18453059867E+04  0.50400000000E-02 0.  1.
          1   -1    0    0  501    0  0.00000000000E+00 -0.00000000000E+00 -0.12874164864E+04  0.12874164864E+04  0.50400000000E-02 0. -1.
    8880023    1    1    2    0    0  0.77235114256E+03 -0.10926098163E+04  0.90174199586E+03  0.17427769024E+04  0.65864270000E+03 0.  1.
    8880022    1    1    2    0    0 -0.77235114256E+03  0.10926098163E+04 -0.34385249554E+03  0.13899455708E+04  0.15294330000E+03 0.  0.
<mgrwt>
<rscale>  0 0.14538057E+04</rscale>
<asrwt>0</asrwt>
<pdfrwt beam="1">  1        1 0.19806408E+00 0.14913526E+04</pdfrwt>
<pdfrwt beam="2">  1       -1 0.28389323E+00 0.14913526E+04</pdfrwt>
<totfact> 0.36786740E-01</totfact>
</mgrwt>
</event>
<event>
 4    1  0.2514307E-008  0.8079953E+03  0.7818608E-02  0.9693768E-01
         -1   -1    0    0    0  501 -0.00000000000E+00  0.00000000000E+00  0.14533840251E+04  0.14533840251E+04  0.50400000000E-02 0.  1.
          1   -1    0    0  501    0  0.00000000000E+00 -0.00000000000E+00 -0.88319626398E+03  0.88319626400E+03  0.50400000000E-02 0. -1.
    8880023    1    1    2    0    0 -0.39297749118E+02  0.46637101249E+03  0.12553162243E+04  0.14928748319E+04  0.65864270000E+03 0.  1.
    8880022    1    1    2    0    0  0.39297749118E+02 -0.46637101249E+03 -0.68512846322E+03  0.84370545720E+03  0.15294330000E+03 0.  0.
<mgrwt>
<rscale>  0 0.71389065E+03</rscale>
<asrwt>0</asrwt>
<pdfrwt beam="1">  1        1 0.13587635E+00 0.80799532E+03</pdfrwt>
<pdfrwt beam="2">  1       -1 0.22359754E+00 0.80799532E+03</pdfrwt>
<totfact> 0.20228730E+00</totfact>
</mgrwt>
</event>
<event>
 4    1  0.2514307E-008  0.1615839E+04  0.7818608E-02  0.8831893E-01
          1   -1    0    0  501    0  0.00000000000E+00  0.00000000000E+00  0.13507509356E+04  0.13507509356E+04  0.50400000000E-02 0. -1.
         -1   -1    0    0    0  501 -0.00000000000E+00 -0.00000000000E+00 -0.19189741107E+04  0.19189741107E+04  0.50400000000E-02 0.  1.
    8880023    1    1    2    0    0 -0.13589260040E+04 -0.57484360188E+03 -0.73843876717E+03  0.17765773471E+04  0.65864270000E+03 0.  0.
    8880022    1    1    2    0    0  0.13589260040E+04  0.57484360188E+03  0.17021559213E+03  0.14931476992E+04  0.15294330000E+03 0.  0.
<mgrwt>
<rscale>  0 0.15816636E+04</rscale>
<asrwt>0</asrwt>
<pdfrwt beam="1">  1        1 0.20780784E+00 0.16158389E+04</pdfrwt>
<pdfrwt beam="2">  1       -1 0.29522679E+00 0.16158389E+04</pdfrwt>
<totfact> 0.27604633E-01</totfact>
</mgrwt>
</event>
<event>
 4    1  0.2514307E-008  0.1423509E+04  0.7818608E-02  0.8965627E-01
          1   -1    0    0  501    0  0.00000000000E+00  0.00000000000E+00  0.16110992919E+04  0.16110992919E+04  0.50400000000E-02 0. -1.
         -1   -1    0    0    0  501 -0.00000000000E+00 -0.00000000000E+00 -0.21284548815E+04  0.21284548815E+04  0.50400000000E-02 0.  1.
    8880023    1    1    2    0    0 -0.95603677883E+03 -0.82374905939E+03 -0.15480142163E+04  0.21030280681E+04  0.65864270000E+03 0.  0.
    8880022    1    1    2    0    0  0.95603677883E+03  0.82374905939E+03  0.10306586268E+04  0.16365261053E+04  0.15294330000E+03 0.  0.
<mgrwt>
<rscale>  0 0.13838025E+04</rscale>
<asrwt>0</asrwt>
<pdfrwt beam="1">  1        1 0.24786143E+00 0.14235094E+04</pdfrwt>
<pdfrwt beam="2">  1       -1 0.32745460E+00 0.14235094E+04</pdfrwt>
<totfact> 0.11452332E-01</totfact>
</mgrwt>
</event>
<event>
 4    1  0.2514307E-008  0.7432642E+03  0.7818608E-02  0.9850539E-01
         -1   -1    0    0    0  501 -0.00000000000E+00  0.00000000000E+00  0.65512024825E+03  0.65512024827E+03  0.50400000000E-02 0.  1.
          1   -1    0    0  501    0  0.00000000000E+00 -0.00000000000E+00 -0.20445139609E+04  0.20445139609E+04  0.50400000000E-02 0. -1.
    8880023    1    1    2    0    0 -0.29471477799E+03  0.17825457306E+03  0.41842801901E+03  0.85295000237E+03  0.65864270000E+03 0.  1.
    8880022    1    1    2    0    0  0.29471477799E+03 -0.17825457306E+03 -0.18078217317E+04  0.18466842068E+04  0.15294330000E+03 0.  0.
<mgrwt>
<rscale>  0 0.62719460E+03</rscale>
<asrwt>0</asrwt>
<pdfrwt beam="1">  1        1 0.31454061E+00 0.74326422E+03</pdfrwt>
<pdfrwt beam="2">  1       -1 0.10078773E+00 0.74326422E+03</pdfrwt>
<totfact> 0.27452905E+00</totfact>
</mgrwt>
</event>
<event>
 4    1  0.2514307E-008  0.9392658E+03  0.7818608E-02  0.9465729E-01
         -1   -1    0    0    0  501 -0.00000000000E+00  0.00000000000E+00  0.30614136978E+03  0.30614136983E+03  0.50400000000E-02 0.  1.
          1   -1    0    0  501    0  0.00000000000E+00 -0.00000000000E+00 -0.28322766352E+04  0.28322766352E+04  0.50400000000E-02 0. -1.
    8880023    1    1    2    0    0 -0.47098478290E+03 -0.47600773591E+03 -0.65473804516E+03  0.11449463500E+04  0.65864270000E+03 0.  1.
    8880022    1    1    2    0    0  0.47098478290E+03  0.47600773591E+03 -0.18713972203E+04  0.19934716550E+04  0.15294330000E+03 0.  0.
<mgrwt>
<rscale>  0 0.86858298E+03</rscale>
<asrwt>0</asrwt>
<pdfrwt beam="1">  1        1 0.43573485E+00 0.93926580E+03</pdfrwt>
<pdfrwt beam="2">  1       -1 0.47098674E-01 0.93926580E+03</pdfrwt>
<totfact> 0.36712491E+00</totfact>
</mgrwt>
</event>
<event>
 4    1  0.2514307E-008  0.9630032E+03  0.7818608E-02  0.9431647E-01
         -1   -1    0    0    0  501 -0.00000000000E+00  0.00000000000E+00  0.59467355021E+03  0.59467355023E+03  0.50400000000E-02 0.  1.
          1   -1    0    0  501    0  0.00000000000E+00 -0.00000000000E+00 -0.22388852461E+04  0.22388852461E+04  0.50400000000E-02 0. -1.
    8880023    1    1    2    0    0 -0.10495726863E+03  0.69465743282E+03  0.79125575617E+02  0.96624843606E+03  0.65864270000E+03 0.  1.
    8880022    1    1    2    0    0  0.10495726863E+03 -0.69465743282E+03 -0.17233372715E+04  0.18673103603E+04  0.15294330000E+03 0.  0.
<mgrwt>
<rscale>  0 0.89516391E+03</rscale>
<asrwt>0</asrwt>
<pdfrwt beam="1">  1        1 0.34444388E+00 0.96300321E+03</pdfrwt>
<pdfrwt beam="2">  1       -1 0.91488240E-01 0.96300321E+03</pdfrwt>
<totfact> 0.24351438E+00</totfact>
</mgrwt>
</event>
<event>
 4    1  0.2514307E-008  0.7270978E+03  0.7818608E-02  0.9899262E-01
         -1   -1    0    0    0  501 -0.00000000000E+00  0.00000000000E+00  0.12756888517E+03  0.12756888527E+03  0.50400000000E-02 0.  1.
          1   -1    0    0  501    0  0.00000000000E+00 -0.00000000000E+00 -0.26392550289E+04  0.26392550289E+04  0.50400000000E-02 0. -1.
    8880023    1    1    2    0    0 -0.22545342995E+03 -0.20983758184E+03 -0.11356534360E+04  0.13484732080E+04  0.65864270000E+03 0.  1.
    8880022    1    1    2    0    0  0.22545342995E+03  0.20983758184E+03 -0.13760327078E+04  0.14183507062E+04  0.15294330000E+03 0.  0.
<mgrwt>
<rscale>  0 0.60297045E+03</rscale>
<asrwt>0</asrwt>
<pdfrwt beam="1">  1        1 0.40603919E+00 0.72709784E+03</pdfrwt>
<pdfrwt beam="2">  1       -1 0.19625984E-01 0.72709784E+03</pdfrwt>
<totfact> 0.24059305E+01</totfact>
</mgrwt>
</event>
<event>
 4    1  0.2514307E-008  0.6747705E+03  0.7818608E-02  0.1012451E+00
         -1   -1    0    0    0  501 -0.00000000000E+00  0.00000000000E+00  0.91552064188E+02  0.91552064327E+02  0.50400000000E-02 0.  1.
          1   -1    0    0  501    0  0.00000000000E+00 -0.00000000000E+00 -0.39543102269E+04  0.39543102269E+04  0.50400000000E-02 0. -1.
    8880023    1    1    2    0    0 -0.27288349124E+02 -0.14408443640E+03 -0.12162997766E+04  0.13909350566E+04  0.65864270000E+03 0.  1.
    8880022    1    1    2    0    0  0.27288349124E+02  0.14408443640E+03 -0.26464583861E+04  0.26549272346E+04  0.15294330000E+03 0.  0.
<mgrwt>
<rscale>  0 0.50511908E+03</rscale>
<asrwt>0</asrwt>
<pdfrwt beam="1">  1        1 0.60835529E+00 0.67477047E+03</pdfrwt>
<pdfrwt beam="2">  1       -1 0.14084936E-01 0.67477047E+03</pdfrwt>
<totfact> 0.42629856E+00</totfact>
</mgrwt>
</event>
<event>
 4    1  0.2514307E-008  0.8292977E+03  0.7818608E-02  0.9650700E-01
         -1   -1    0    0    0  501 -0.00000000000E+00  0.00000000000E+00  0.21453332057E+04  0.21453332057E+04  0.50400000000E-02 0.  1.
          1   -1    0    0  501    0  0.00000000000E+00 -0.00000000000E+00 -0.22258537722E+03  0.22258537728E+03  0.50400000000E-02 0. -1.
    8880023    1    1    2    0    0  0.35878149993E+03  0.35383659782E+03  0.13916045167E+04  0.16199684688E+04  0.65864270000E+03 0.  0.
    8880022    1    1    2    0    0 -0.35878149993E+03 -0.35383659782E+03  0.53114331168E+03  0.74795011412E+03  0.15294330000E+03 0.  1.
<mgrwt>
<rscale>  0 0.74029489E+03</rscale>
<asrwt>0</asrwt>
<pdfrwt beam="1">  1        1 0.34243904E-01 0.82929772E+03</pdfrwt>
<pdfrwt beam="2">  1       -1 0.33005127E+00 0.82929772E+03</pdfrwt>
<totfact> 0.28313455E+00</totfact>
</mgrwt>
</event>
<event>
 4    1  0.2514307E-008  0.1300874E+04  0.7818608E-02  0.9064806E-01
          1   -1    0    0  501    0  0.00000000000E+00  0.00000000000E+00  0.16361558883E+04  0.16361558883E+04  0.50400000000E-02 0. -1.
         -1   -1    0    0    0  501 -0.00000000000E+00 -0.00000000000E+00 -0.15544557718E+04  0.15544557719E+04  0.50400000000E-02 0.  1.
    8880023    1    1    2    0    0  0.39169427128E+03 -0.10512081322E+04 -0.98760057362E+03  0.16332874941E+04  0.65864270000E+03 0.  1.
    8880022    1    1    2    0    0 -0.39169427128E+03  0.10512081322E+04  0.10693006901E+04  0.15573241660E+04  0.15294330000E+03 0.  0.
<mgrwt>
<rscale>  0 0.12564820E+04</rscale>
<asrwt>0</asrwt>
<pdfrwt beam="1">  1        1 0.25171629E+00 0.13008740E+04</pdfrwt>
<pdfrwt beam="2">  1       -1 0.23914704E+00 0.13008740E+04</pdfrwt>
<totfact> 0.41884067E-01</totfact>
</mgrwt>
</event>
<event>
 4    1  0.2514307E-008  0.1475346E+04  0.7818608E-02  0.8927244E-01
          1   -1    0    0  501    0  0.00000000000E+00  0.00000000000E+00  0.11835964594E+04  0.11835964594E+04  0.50400000000E-02 0. -1.
         -1   -1    0    0    0  501 -0.00000000000E+00 -0.00000000000E+00 -0.20174965061E+04  0.20174965061E+04  0.50400000000E-02 0.  1.
    8880023    1    1    2    0    0 -0.11959255685E+04  0.55910320450E+03 -0.11068154127E+04  0.18443657237E+04  0.65864270000E+03 0.  0.
    8880022    1    1    2    0    0  0.11959255685E+04 -0.55910320450E+03  0.27291536609E+03  0.13567272418E+04  0.15294330000E+03 0.  0.
<mgrwt>
<rscale>  0 0.14373122E+04</rscale>
<asrwt>0</asrwt>
<pdfrwt beam="1">  1        1 0.18209176E+00 0.14753456E+04</pdfrwt>
<pdfrwt beam="2">  1       -1 0.31038408E+00 0.14753456E+04</pdfrwt>
<totfact> 0.29560377E-01</totfact>
</mgrwt>
</event>
<event>
 4    1  0.2514307E-008  0.7135095E+03  0.7818608E-02  0.9945192E-01
          1   -1    0    0  501    0  0.00000000000E+00  0.00000000000E+00  0.10299923542E+04  0.10299923542E+04  0.50400000000E-02 0. -1.
         -1   -1    0    0    0  501 -0.00000000000E+00 -0.00000000000E+00 -0.40319262416E+03  0.40319262420E+03  0.50400000000E-02 0.  1.
    8880023    1    1    2    0    0 -0.30308952868E+00  0.27438209507E+03 -0.20376347877E+02  0.71380041172E+03  0.65864270000E+03 0.  1.
    8880022    1    1    2    0    0  0.30308952868E+00 -0.27438209507E+03  0.64717607794E+03  0.71938456672E+03  0.15294330000E+03 0.  0.
<mgrwt>
<rscale>  0 0.58120183E+03</rscale>
<asrwt>0</asrwt>
<pdfrwt beam="1">  1        1 0.15846036E+00 0.71350952E+03</pdfrwt>
<pdfrwt beam="2">  1       -1 0.62029636E-01 0.71350952E+03</pdfrwt>
<totfact> 0.38929064E+01</totfact>
</mgrwt>
</event>
<event>
 4    1  0.2514307E-008  0.7318862E+03  0.7818608E-02  0.9884245E-01
         -1   -1    0    0    0  501 -0.00000000000E+00  0.00000000000E+00  0.60408089833E+03  0.60408089835E+03  0.50400000000E-02 0.  1.
          1   -1    0    0  501    0  0.00000000000E+00 -0.00000000000E+00 -0.74503478969E+03  0.74503478971E+03  0.50400000000E-02 0. -1.
    8880023    1    1    2    0    0  0.15769752781E+02  0.31874522436E+03  0.29369664720E+03  0.78861595850E+03  0.65864270000E+03 0.  1.
    8880022    1    1    2    0    0 -0.15769752781E+02 -0.31874522436E+03 -0.43465053856E+03  0.56049972957E+03  0.15294330000E+03 0.  0.
<mgrwt>
<rscale>  0 0.61030939E+03</rscale>
<asrwt>0</asrwt>
<pdfrwt beam="1">  1        1 0.11462074E+00 0.73188620E+03</pdfrwt>
<pdfrwt beam="2">  1       -1 0.92935522E-01 0.73188620E+03</pdfrwt>
<totfact> 0.28599013E+01</totfact>
</mgrwt>
</event>
<event>
 4    1  0.2514307E-008  0.7051247E+03  0.7818608E-02  0.9976571E-01
         -1   -1    0    0    0  501 -0.00000000000E+00  0.00000000000E+00  0.62673766887E+03  0.62673766889E+03  0.50400000000E-02 0.  1.
          1   -1    0    0  501    0  0.00000000000E+00 -0.00000000000E+00 -0.13566973021E+04  0.13566973021E+04  0.50400000000E-02 0. -1.
    8880023    1    1    2    0    0 -0.89300176815E+02  0.23540639297E+03  0.40343640647E+03  0.81238034919E+03  0.65864270000E+03 0.  1.
    8880022    1    1    2    0    0  0.89300176815E+02 -0.23540639297E+03 -0.11333960397E+04  0.11710546218E+04  0.15294330000E+03 0.  0.
<mgrwt>
<rscale>  0 0.56689599E+03</rscale>
<asrwt>0</asrwt>
<pdfrwt beam="1">  1        1 0.20872266E+00 0.70512474E+03</pdfrwt>
<pdfrwt beam="2">  1       -1 0.96421181E-01 0.70512474E+03</pdfrwt>
<totfact> 0.89138173E+00</totfact>
</mgrwt>
</event>
<event>
 4    1  0.2514307E-008  0.6902024E+03  0.7818608E-02  0.1004057E+00
         -1   -1    0    0    0  501 -0.00000000000E+00  0.00000000000E+00  0.72184620254E+03  0.72184620256E+03  0.50400000000E-02 0.  1.
          1   -1    0    0  501    0  0.00000000000E+00 -0.00000000000E+00 -0.58340174885E+03  0.58340174887E+03  0.50400000000E-02 0. -1.
    8880023    1    1    2    0    0 -0.19221375444E+03  0.74986345432E+02  0.50673722192E+03  0.85624873590E+03  0.65864270000E+03 0.  0.
    8880022    1    1    2    0    0  0.19221375444E+03 -0.74986345432E+02 -0.36829276823E+03  0.44899921553E+03  0.15294330000E+03 0.  0.
<mgrwt>
<rscale>  0 0.53906733E+03</rscale>
<asrwt>0</asrwt>
<pdfrwt beam="1">  1        1 0.89754115E-01 0.69020235E+03</pdfrwt>
<pdfrwt beam="2">  1       -1 0.11105326E+00 0.69020235E+03</pdfrwt>
<totfact> 0.27441013E+01</totfact>
</mgrwt>
</event>
<event>
 4    1  0.2514307E-008  0.1011890E+04  0.7818608E-02  0.9366165E-01
         -1   -1    0    0    0  501 -0.00000000000E+00  0.00000000000E+00  0.77238515731E+03  0.77238515733E+03  0.50400000000E-02 0.  1.
          1   -1    0    0  501    0  0.00000000000E+00 -0.00000000000E+00 -0.13552543534E+04  0.13552543534E+04  0.50400000000E-02 0. -1.
    8880023    1    1    2    0    0 -0.96198075750E+02 -0.76213923188E+03  0.18738998582E+03  0.10290945008E+04  0.65864270000E+03 0.  0.
    8880022    1    1    2    0    0  0.96198075750E+02  0.76213923188E+03 -0.77025918194E+03  0.10985450100E+04  0.15294330000E+03 0.  0.
<mgrwt>
<rscale>  0 0.94913247E+03</rscale>
<asrwt>0</asrwt>
<pdfrwt beam="1">  1        1 0.20850067E+00 0.10118896E+04</pdfrwt>
<pdfrwt beam="2">  1       -1 0.11882849E+00 0.10118896E+04</pdfrwt>
<totfact> 0.52545217E+00</totfact>
</mgrwt>
</event>
<event>
 4    1  0.2514307E-008  0.7970422E+03  0.7818608E-02  0.9717228E-01
          1   -1    0    0  501    0  0.00000000000E+00  0.00000000000E+00  0.90970526297E+03  0.90970526298E+03  0.50400000000E-02 0. -1.
         -1   -1    0    0    0  501 -0.00000000000E+00 -0.00000000000E+00 -0.18841757860E+04  0.18841757861E+04  0.50400000000E-02 0.  1.
    8880023    1    1    2    0    0  0.31367682558E+03 -0.32104968695E+03 -0.17283437582E+04  0.19032730769E+04  0.65864270000E+03 0.  1.
    8880022    1    1    2    0    0 -0.31367682558E+03  0.32104968695E+03  0.75387323513E+03  0.89060797215E+03  0.15294330000E+03 0.  0.
<mgrwt>
<rscale>  0 0.70000228E+03</rscale>
<asrwt>0</asrwt>
<pdfrwt beam="1">  1        1 0.13995466E+00 0.79704219E+03</pdfrwt>
<pdfrwt beam="2">  1       -1 0.28987320E+00 0.79704219E+03</pdfrwt>
<totfact> 0.71948975E-01</totfact>
</mgrwt>
</event>
<event>
 4    1  0.2514307E-008  0.7982053E+03  0.7818608E-02  0.9714690E-01
         -1   -1    0    0    0  501 -0.00000000000E+00  0.00000000000E+00  0.67124300719E+03  0.67124300721E+03  0.50400000000E-02 0.  1.
          1   -1    0    0  501    0  0.00000000000E+00 -0.00000000000E+00 -0.14558228200E+04  0.14558228200E+04  0.50400000000E-02 0. -1.
    8880023    1    1    2    0    0 -0.26740235476E+03  0.36306672375E+03  0.36878646894E+03  0.87928103082E+03  0.65864270000E+03 0.  1.
    8880022    1    1    2    0    0  0.26740235476E+03 -0.36306672375E+03 -0.11533662818E+04  0.12477847964E+04  0.15294330000E+03 0.  0.
<mgrwt>
<rscale>  0 0.70148846E+03</rscale>
<asrwt>0</asrwt>
<pdfrwt beam="1">  1        1 0.22397274E+00 0.79820528E+03</pdfrwt>
<pdfrwt beam="2">  1       -1 0.10326816E+00 0.79820528E+03</pdfrwt>
<totfact> 0.64147066E+00</totfact>
</mgrwt>
</event>
<event>
 4    1  0.2514307E-008  0.9320258E+03  0.7818608E-02  0.9476461E-01
         -1   -1    0    0    0  501 -0.00000000000E+00  0.00000000000E+00  0.45896920373E+03  0.45896920375E+03  0.50400000000E-02 0.  1.
          1   -1    0    0  501    0  0.00000000000E+00 -0.00000000000E+00 -0.20311417885E+04  0.20311417885E+04  0.50400000000E-02 0. -1.
    8880023    1    1    2    0    0 -0.24008252424E+03 -0.61418424537E+03 -0.15550287317E+04  0.18129496597E+04  0.65864270000E+03 0. -1.
    8880022    1    1    2    0    0  0.24008252424E+03  0.61418424537E+03 -0.17143853093E+02  0.67716133264E+03  0.15294330000E+03 0.  0.
<mgrwt>
<rscale>  0 0.86041740E+03</rscale>
<asrwt>0</asrwt>
<pdfrwt beam="1">  1        1 0.31248335E+00 0.93202581E+03</pdfrwt>
<pdfrwt beam="2">  1       -1 0.70610648E-01 0.93202581E+03</pdfrwt>
<totfact> 0.58722769E+00</totfact>
</mgrwt>
</event>
<event>
 4    1  0.2514307E-008  0.8607597E+03  0.7818608E-02  0.9592214E-01
         -1   -1    0    0    0  501 -0.00000000000E+00  0.00000000000E+00  0.87724422686E+03  0.87724422687E+03  0.50400000000E-02 0.  1.
          1   -1    0    0  501    0  0.00000000000E+00 -0.00000000000E+00 -0.17183386388E+04  0.17183386388E+04  0.50400000000E-02 0. -1.
    8880023    1    1    2    0    0 -0.54483076270E+03  0.10127406551E+03  0.59654046115E+03  0.10472667876E+04  0.65864270000E+03 0.  1.
    8880022    1    1    2    0    0  0.54483076270E+03 -0.10127406551E+03 -0.14376348731E+04  0.15483160781E+04  0.15294330000E+03 0.  0.
<mgrwt>
<rscale>  0 0.77813688E+03</rscale>
<asrwt>0</asrwt>
<pdfrwt beam="1">  1        1 0.26435979E+00 0.86075967E+03</pdfrwt>
<pdfrwt beam="2">  1       -1 0.13496065E+00 0.86075967E+03</pdfrwt>
<totfact> 0.21965451E+00</totfact>
</mgrwt>
</event>
<event>
 4    1  0.2514307E-008  0.8238548E+03  0.7818608E-02  0.9661409E-01
         -1   -1    0    0    0  501 -0.00000000000E+00  0.00000000000E+00  0.40502245006E+03  0.40502245009E+03  0.50400000000E-02 0.  1.
          1   -1    0    0  501    0  0.00000000000E+00 -0.00000000000E+00 -0.23634326597E+04  0.23634326597E+04  0.50400000000E-02 0. -1.
    8880023    1    1    2    0    0  0.12212481937E+03 -0.47959574397E+03 -0.89048672940E+02  0.82865337841E+03  0.65864270000E+03 0.  1.
    8880022    1    1    2    0    0 -0.12212481937E+03  0.47959574397E+03 -0.18693615367E+04  0.19398017314E+04  0.15294330000E+03 0.  0.
<mgrwt>
<rscale>  0 0.73361682E+03</rscale>
<asrwt>0</asrwt>
<pdfrwt beam="1">  1        1 0.36360502E+00 0.82385481E+03</pdfrwt>
<pdfrwt beam="2">  1       -1 0.62311148E-01 0.82385481E+03</pdfrwt>
<totfact> 0.45887828E+00</totfact>
</mgrwt>
</event>
<event>
 4    1  0.2514307E-008  0.8243537E+03  0.7818608E-02  0.9660420E-01
         -1   -1    0    0    0  501 -0.00000000000E+00  0.00000000000E+00  0.45049500233E+03  0.45049500236E+03  0.50400000000E-02 0.  1.
          1   -1    0    0  501    0  0.00000000000E+00 -0.00000000000E+00 -0.40105567976E+04  0.40105567976E+04  0.50400000000E-02 0. -1.
    8880023    1    1    2    0    0  0.42962183140E+03 -0.24733364722E+03  0.38533268799E+02  0.82525382164E+03  0.65864270000E+03 0.  1.
    8880022    1    1    2    0    0 -0.42962183140E+03  0.24733364722E+03 -0.35985950641E+04  0.36357979783E+04  0.15294330000E+03 0.  0.
<mgrwt>
<rscale>  0 0.73423078E+03</rscale>
<asrwt>0</asrwt>
<pdfrwt beam="1">  1        1 0.61700871E+00 0.82435372E+03</pdfrwt>
<pdfrwt beam="2">  1       -1 0.69306926E-01 0.82435372E+03</pdfrwt>
<totfact> 0.21679215E-01</totfact>
</mgrwt>
</event>
<event>
 4    1  0.2514307E-008  0.9473082E+03  0.7818608E-02  0.9453998E-01
          1   -1    0    0  501    0  0.00000000000E+00  0.00000000000E+00  0.25734115736E+04  0.25734115736E+04  0.50400000000E-02 0. -1.
         -1   -1    0    0    0  501 -0.00000000000E+00 -0.00000000000E+00 -0.58655089317E+03  0.58655089319E+03  0.50400000000E-02 0.  1.
    8880023    1    1    2    0    0 -0.54351323166E+02  0.67869617841E+03 -0.10657099336E+03  0.95328387787E+03  0.65864270000E+03 0.  0.
    8880022    1    1    2    0    0  0.54351323166E+02 -0.67869617841E+03  0.20934316737E+04  0.22066785889E+04  0.15294330000E+03 0.  0.
<mgrwt>
<rscale>  0 0.87762040E+03</rscale>
<asrwt>0</asrwt>
<pdfrwt beam="1">  1        1 0.39590947E+00 0.94730817E+03</pdfrwt>
<pdfrwt beam="2">  1       -1 0.90238599E-01 0.94730817E+03</pdfrwt>
<totfact> 0.14876222E+00</totfact>
</mgrwt>
</event>
<event>
 4    1  0.2514307E-008  0.7518629E+03  0.7818608E-02  0.9826648E-01
          1   -1    0    0  501    0  0.00000000000E+00  0.00000000000E+00  0.71406711561E+03  0.71406711563E+03  0.50400000000E-02 0. -1.
         -1   -1    0    0    0  501 -0.00000000000E+00 -0.00000000000E+00 -0.94610650793E+03  0.94610650794E+03  0.50400000000E-02 0.  1.
    8880023    1    1    2    0    0 -0.35829825584E+03  0.55767697901E+02 -0.71473800523E+03  0.10373756787E+04  0.65864270000E+03 0.  0.
    8880022    1    1    2    0    0  0.35829825584E+03 -0.55767697901E+02  0.48269861291E+03  0.62279794492E+03  0.15294330000E+03 0.  0.
<mgrwt>
<rscale>  0 0.63951862E+03</rscale>
<asrwt>0</asrwt>
<pdfrwt beam="1">  1        1 0.10985648E+00 0.75186294E+03</pdfrwt>
<pdfrwt beam="2">  1       -1 0.14555485E+00 0.75186294E+03</pdfrwt>
<totfact> 0.10298956E+01</totfact>
</mgrwt>
</event>
<event>
 4    1  0.2514307E-008  0.1456953E+04  0.7818608E-02  0.8940646E-01
         -1   -1    0    0    0  501 -0.00000000000E+00  0.00000000000E+00  0.12318818034E+04  0.12318818034E+04  0.50400000000E-02 0.  1.
          1   -1    0    0  501    0  0.00000000000E+00 -0.00000000000E+00 -0.26266415952E+04  0.26266415952E+04  0.50400000000E-02 0. -1.
    8880023    1    1    2    0    0 -0.12499971353E+04 -0.35554210679E+03  0.51342215192E+03  0.15447703843E+04  0.65864270000E+03 0.  0.
    8880022    1    1    2    0    0  0.12499971353E+04  0.35554210679E+03 -0.19081819437E+04  0.23137530143E+04  0.15294330000E+03 0.  0.
<mgrwt>
<rscale>  0 0.14183440E+04</rscale>
<asrwt>0</asrwt>
<pdfrwt beam="1">  1        1 0.40409870E+00 0.14569534E+04</pdfrwt>
<pdfrwt beam="2">  1       -1 0.18952028E+00 0.14569534E+04</pdfrwt>
<totfact> 0.18733549E-01</totfact>
</mgrwt>
</event>
<event>
 4    1  0.2514307E-008  0.7432159E+03  0.7818608E-02  0.9850677E-01
         -1   -1    0    0    0  501 -0.00000000000E+00  0.00000000000E+00  0.46963247862E+03  0.46963247864E+03  0.50400000000E-02 0.  1.
          1   -1    0    0  501    0  0.00000000000E+00 -0.00000000000E+00 -0.11238363500E+04  0.11238363500E+04  0.50400000000E-02 0. -1.
    8880023    1    1    2    0    0 -0.31608093244E+03 -0.13657393474E+03  0.10046782548E+03  0.74997572342E+03  0.65864270000E+03 0.  1.
    8880022    1    1    2    0    0  0.31608093244E+03  0.13657393474E+03 -0.75467169687E+03  0.84349310523E+03  0.15294330000E+03 0.  0.
<mgrwt>
<rscale>  0 0.62712429E+03</rscale>
<asrwt>0</asrwt>
<pdfrwt beam="1">  1        1 0.17289790E+00 0.74321585E+03</pdfrwt>
<pdfrwt beam="2">  1       -1 0.72251151E-01 0.74321585E+03</pdfrwt>
<totfact> 0.24222809E+01</totfact>
</mgrwt>
</event>
<event>
 4    1  0.2514307E-008  0.1002775E+04  0.7818608E-02  0.9377936E-01
         -1   -1    0    0    0  501 -0.00000000000E+00  0.00000000000E+00  0.72205332476E+03  0.72205332478E+03  0.50400000000E-02 0.  1.
          1   -1    0    0  501    0  0.00000000000E+00 -0.00000000000E+00 -0.20219894697E+04  0.20219894697E+04  0.50400000000E-02 0. -1.
    8880023    1    1    2    0    0 -0.75503124969E+03 -0.40934454139E+02  0.23160959037E+03  0.10291749250E+04  0.65864270000E+03 0.  0.
    8880022    1    1    2    0    0  0.75503124969E+03  0.40934454139E+02 -0.15315457353E+04  0.17148678695E+04  0.15294330000E+03 0.  0.
<mgrwt>
<rscale>  0 0.93913931E+03</rscale>
<asrwt>0</asrwt>
<pdfrwt beam="1">  1        1 0.31107530E+00 0.10027752E+04</pdfrwt>
<pdfrwt beam="2">  1       -1 0.11108513E+00 0.10027752E+04</pdfrwt>
<totfact> 0.21703254E+00</totfact>
</mgrwt>
</event>
<event>
 4    1  0.2514307E-008  0.7850891E+03  0.7818608E-02  0.9744015E-01
         -1   -1    0    0    0  501 -0.00000000000E+00  0.00000000000E+00  0.76662735639E+03  0.76662735641E+03  0.50400000000E-02 0.  1.
          1   -1    0    0  501    0  0.00000000000E+00 -0.00000000000E+00 -0.56837519746E+03  0.56837519749E+03  0.50400000000E-02 0. -1.
    8880023    1    1    2    0    0  0.34131214711E+03  0.25702291203E+03  0.34570843348E+03  0.85783406689E+03  0.65864270000E+03 0.  1.
    8880022    1    1    2    0    0 -0.34131214711E+03 -0.25702291203E+03 -0.14745627455E+03  0.47716848701E+03  0.15294330000E+03 0.  0.
<mgrwt>
<rscale>  0 0.68455525E+03</rscale>
<asrwt>0</asrwt>
<pdfrwt beam="1">  1        1 0.87442338E-01 0.78508914E+03</pdfrwt>
<pdfrwt beam="2">  1       -1 0.11794267E+00 0.78508914E+03</pdfrwt>
<totfact> 0.24423530E+01</totfact>
</mgrwt>
</event>
<event>
 4    1  0.2514307E-008  0.1067152E+04  0.7818608E-02  0.9298540E-01
          1   -1    0    0  501    0  0.00000000000E+00  0.00000000000E+00  0.11350343054E+04  0.11350343054E+04  0.50400000000E-02 0. -1.
         -1   -1    0    0    0  501 -0.00000000000E+00 -0.00000000000E+00 -0.89212607430E+03  0.89212607432E+03  0.50400000000E-02 0.  1.
    8880023    1    1    2    0    0 -0.45469493421E+03 -0.70587303190E+03  0.43490447110E+03  0.11523698736E+04  0.65864270000E+03 0.  0.
    8880022    1    1    2    0    0  0.45469493421E+03  0.70587303190E+03 -0.19199624003E+03  0.87479050609E+03  0.15294330000E+03 0.  0.
<mgrwt>
<rscale>  0 0.10091734E+04</rscale>
<asrwt>0</asrwt>
<pdfrwt beam="1">  1        1 0.17462066E+00 0.10671525E+04</pdfrwt>
<pdfrwt beam="2">  1       -1 0.13725017E+00 0.10671525E+04</pdfrwt>
<totfact> 0.52442497E+00</totfact>
</mgrwt>
</event>
<event>
 4    1  0.2514307E-008  0.1268869E+04  0.7818608E-02  0.9092920E-01
          1   -1    0    0  501    0  0.00000000000E+00  0.00000000000E+00  0.39919829643E+04  0.39919829643E+04  0.50400000000E-02 0. -1.
         -1   -1    0    0    0  501 -0.00000000000E+00 -0.00000000000E+00 -0.67448372859E+03  0.67448372861E+03  0.50400000000E-02 0.  1.
    8880023    1    1    2    0    0 -0.73246531507E+03 -0.79982105054E+03  0.10594615558E+03  0.12732847069E+04  0.65864270000E+03 0.  0.
    8880022    1    1    2    0    0  0.73246531507E+03  0.79982105054E+03  0.32115530801E+04  0.33931819860E+04  0.15294330000E+03 0.  0.
<mgrwt>
<rscale>  0 0.12230458E+04</rscale>
<asrwt>0</asrwt>
<pdfrwt beam="1">  1        1 0.61415123E+00 0.12688693E+04</pdfrwt>
<pdfrwt beam="2">  1       -1 0.10376673E+00 0.12688693E+04</pdfrwt>
<totfact> 0.85569133E-02</totfact>
</mgrwt>
</event>
<event>
 4    1  0.2514307E-008  0.7370187E+03  0.7818608E-02  0.9868718E-01
          1   -1    0    0  501    0  0.00000000000E+00  0.00000000000E+00  0.17574397283E+04  0.17574397283E+04  0.50400000000E-02 0. -1.
         -1   -1    0    0    0  501 -0.00000000000E+00 -0.00000000000E+00 -0.66661875204E+03  0.66661875206E+03  0.50400000000E-02 0.  1.
    8880023    1    1    2    0    0  0.25416079676E+03  0.21163334939E+03 -0.43467186477E+03  0.85564959035E+03  0.65864270000E+03 0.  1.
    8880022    1    1    2    0    0 -0.25416079676E+03 -0.21163334939E+03  0.15254928410E+04  0.15684088900E+04  0.15294330000E+03 0.  0.
<mgrwt>
<rscale>  0 0.61801593E+03</rscale>
<asrwt>0</asrwt>
<pdfrwt beam="1">  1        1 0.27037534E+00 0.73701872E+03</pdfrwt>
<pdfrwt beam="2">  1       -1 0.10255673E+00 0.73701872E+03</pdfrwt>
<totfact> 0.41089285E+00</totfact>
</mgrwt>
</event>
<event>
 4    1  0.2514307E-008  0.9190053E+03  0.7818608E-02  0.9496186E-01
         -1   -1    0    0    0  501 -0.00000000000E+00  0.00000000000E+00  0.14546662141E+04  0.14546662141E+04  0.50400000000E-02 0.  1.
          1   -1    0    0  501    0  0.00000000000E+00 -0.00000000000E+00 -0.12136857006E+04  0.12136857006E+04  0.50400000000E-02 0. -1.
    8880023    1    1    2    0    0  0.64080585214E+03  0.11331403951E+02  0.11958646000E+04  0.15081985574E+04  0.65864270000E+03 0.  1.
    8880022    1    1    2    0    0 -0.64080585214E+03 -0.11331403951E+02 -0.95488408644E+03  0.11601533573E+04  0.15294330000E+03 0.  0.
<mgrwt>
<rscale>  0 0.84565606E+03</rscale>
<asrwt>0</asrwt>
<pdfrwt beam="1">  1        1 0.18672088E+00 0.91900530E+03</pdfrwt>
<pdfrwt beam="2">  1       -1 0.22379480E+00 0.91900530E+03</pdfrwt>
<totfact> 0.11049430E+00</totfact>
</mgrwt>
</event>
<event>
 4    1  0.2514307E-008  0.9334349E+03  0.7818608E-02  0.9474359E-01
          1   -1    0    0  501    0  0.00000000000E+00  0.00000000000E+00  0.65938630260E+03  0.65938630262E+03  0.50400000000E-02 0. -1.
         -1   -1    0    0    0  501 -0.00000000000E+00 -0.00000000000E+00 -0.11043525708E+04  0.11043525708E+04  0.50400000000E-02 0.  1.
    8880023    1    1    2    0    0 -0.49076957478E+03 -0.44343628631E+03 -0.53977735777E+03  0.10782672757E+04  0.65864270000E+03 0.  0.
    8880022    1    1    2    0    0  0.49076957478E+03  0.44343628631E+03  0.94811089615E+02  0.68547159771E+03  0.15294330000E+03 0.  0.
<mgrwt>
<rscale>  0 0.86200893E+03</rscale>
<asrwt>0</asrwt>
<pdfrwt beam="1">  1        1 0.10144405E+00 0.93343490E+03</pdfrwt>
<pdfrwt beam="2">  1       -1 0.16990040E+00 0.93343490E+03</pdfrwt>
<totfact> 0.74211341E+00</totfact>
</mgrwt>
</event>
<event>
 4    1  0.2514307E-008  0.7228049E+03  0.7818608E-02  0.9913207E-01
         -1   -1    0    0    0  501 -0.00000000000E+00  0.00000000000E+00  0.32279356081E+03  0.32279356085E+03  0.50400000000E-02 0.  1.
          1   -1    0    0  501    0  0.00000000000E+00 -0.00000000000E+00 -0.16820936240E+04  0.16820936240E+04  0.50400000000E-02 0. -1.
    8880023    1    1    2    0    0  0.14714738464E+03 -0.25881349160E+03 -0.13454508698E+03  0.73522062195E+03  0.65864270000E+03 0.  0.
    8880022    1    1    2    0    0 -0.14714738464E+03  0.25881349160E+03 -0.12247549762E+04  0.12696665629E+04  0.15294330000E+03 0.  0.
<mgrwt>
<rscale>  0 0.59625477E+03</rscale>
<asrwt>0</asrwt>
<pdfrwt beam="1">  1        1 0.25878363E+00 0.72280494E+03</pdfrwt>
<pdfrwt beam="2">  1       -1 0.49660549E-01 0.72280494E+03</pdfrwt>
<totfact> 0.20739847E+01</totfact>
</mgrwt>
</event>
<event>
 4    1  0.2514307E-008  0.6873814E+03  0.7818608E-02  0.1005423E+00
          1   -1    0    0  501    0  0.00000000000E+00  0.00000000000E+00  0.13178106653E+04  0.13178106653E+04  0.50400000000E-02 0. -1.
         -1   -1    0    0    0  501 -0.00000000000E+00 -0.00000000000E+00 -0.11064298557E+04  0.11064298558E+04  0.50400000000E-02 0.  1.
    8880023    1    1    2    0    0  0.67800665912E+02 -0.18462408424E+03 -0.98558935043E+03  0.12016153947E+04  0.65864270000E+03 0.  1.
    8880022    1    1    2    0    0 -0.67800665912E+02  0.18462408424E+03  0.11969701600E+04  0.12226251264E+04  0.15294330000E+03 0.  0.
<mgrwt>
<rscale>  0 0.53335037E+03</rscale>
<asrwt>0</asrwt>
<pdfrwt beam="1">  1        1 0.20274010E+00 0.68738140E+03</pdfrwt>
<pdfrwt beam="2">  1       -1 0.17021998E+00 0.68738140E+03</pdfrwt>
<totfact> 0.22768007E+00</totfact>
</mgrwt>
</event>
<event>
 4    1  0.2779343E-008  0.7761316E+03  0.7818608E-02  0.9765004E-01
         -1   -1    0    0    0  501 -0.00000000000E+00  0.00000000000E+00  0.23234961639E+04  0.23234961639E+04  0.50400000000E-02 0.  1.
          1   -1    0    0  501    0  0.00000000000E+00 -0.00000000000E+00 -0.15246242625E+04  0.15246242625E+04  0.50400000000E-02 0. -1.
    8880023    1    1    2    0    0 -0.40831332547E+03  0.43015358526E+02  0.22248559611E+04  0.23563455491E+04  0.65864270000E+03 0.  1.
    8880022    1    1    2    0    0  0.40831332547E+03 -0.43015358526E+02 -0.14259840598E+04  0.14917748773E+04  0.15294330000E+03 0.  0.
<mgrwt>
<rscale>  0 0.67274948E+03</rscale>
<asrwt>0</asrwt>
<pdfrwt beam="1">  1        1 0.23455758E+00 0.77613162E+03</pdfrwt>
<pdfrwt beam="2">  1       -1 0.35746095E+00 0.77613162E+03</pdfrwt>
<totfact> 0.94019363E-02</totfact>
</mgrwt>
</event>
<event>
 4    1  0.2514307E-008  0.6816419E+03  0.7818608E-02  0.1008410E+00
          1   -1    0    0  501    0  0.00000000000E+00  0.00000000000E+00  0.27952026071E+03  0.27952026075E+03  0.50400000000E-02 0. -1.
         -1   -1    0    0    0  501 -0.00000000000E+00 -0.00000000000E+00 -0.12214969758E+04  0.12214969758E+04  0.50400000000E-02 0.  1.
    8880023    1    1    2    0    0  0.14663091265E+03  0.96565602598E+02 -0.10439808160E+04  0.12468086022E+04  0.65864270000E+03 0.  1.
    8880022    1    1    2    0    0 -0.14663091265E+03 -0.96565602598E+02  0.10200410092E+03  0.25420863433E+03  0.15294330000E+03 0.  0.
<mgrwt>
<rscale>  0 0.52111594E+03</rscale>
<asrwt>0</asrwt>
<pdfrwt beam="1">  1        1 0.43003118E-01 0.68164195E+03</pdfrwt>
<pdfrwt beam="2">  1       -1 0.18792261E+00 0.68164195E+03</pdfrwt>
<totfact> 0.18177475E+01</totfact>
</mgrwt>
</event>
<event>
 4    1  0.2514307E-008  0.7802493E+03  0.7818608E-02  0.9755252E-01
          1   -1    0    0  501    0  0.00000000000E+00  0.00000000000E+00  0.13992891859E+04  0.13992891860E+04  0.50400000000E-02 0. -1.
         -1   -1    0    0    0  501 -0.00000000000E+00 -0.00000000000E+00 -0.48037249378E+03  0.48037249381E+03  0.50400000000E-02 0.  1.
    8880023    1    1    2    0    0 -0.17590366717E+03  0.37952155060E+03 -0.81584300534E+02  0.78450297122E+03  0.65864270000E+03 0.  0.
    8880022    1    1    2    0    0  0.17590366717E+03 -0.37952155060E+03  0.10005009927E+04  0.10951587085E+04  0.15294330000E+03 0.  0.
<mgrwt>
<rscale>  0 0.67820287E+03</rscale>
<asrwt>0</asrwt>
<pdfrwt beam="1">  1        1 0.21527526E+00 0.78024926E+03</pdfrwt>
<pdfrwt beam="2">  1       -1 0.73903461E-01 0.78024926E+03</pdfrwt>
<totfact> 0.14620524E+01</totfact>
</mgrwt>
</event>
<event>
 4    1  0.2514307E-008  0.7803969E+03  0.7818608E-02  0.9754906E-01
          1   -1    0    0  501    0  0.00000000000E+00  0.00000000000E+00  0.87658119767E+03  0.87658119768E+03  0.50400000000E-02 0. -1.
         -1   -1    0    0    0  501 -0.00000000000E+00 -0.00000000000E+00 -0.10235263144E+04  0.10235263144E+04  0.50400000000E-02 0.  1.
    8880023    1    1    2    0    0 -0.15856246704E+03  0.38738480652E+03 -0.79473329201E+03  0.11138313409E+04  0.65864270000E+03 0.  1.
    8880022    1    1    2    0    0  0.15856246704E+03 -0.38738480652E+03  0.64778817530E+03  0.78627617117E+03  0.15294330000E+03 0.  0.
<mgrwt>
<rscale>  0 0.67839748E+03</rscale>
<asrwt>0</asrwt>
<pdfrwt beam="1">  1        1 0.13485865E+00 0.78039685E+03</pdfrwt>
<pdfrwt beam="2">  1       -1 0.15746559E+00 0.78039685E+03</pdfrwt>
<totfact> 0.59882631E+00</totfact>
</mgrwt>
</event>
<event>
 4    1  0.2514307E-008  0.6966193E+03  0.7818608E-02  0.1001153E+00
         -1   -1    0    0    0  501 -0.00000000000E+00  0.00000000000E+00  0.38261248871E+03  0.38261248874E+03  0.50400000000E-02 0.  1.
          1   -1    0    0  501    0  0.00000000000E+00 -0.00000000000E+00 -0.11182579445E+04  0.11182579445E+04  0.50400000000E-02 0. -1.
    8880023    1    1    2    0    0  0.21727414409E+03  0.65270310545E+02  0.20319780434E+02  0.69691560957E+03  0.65864270000E+03 0.  1.
    8880022    1    1    2    0    0 -0.21727414409E+03 -0.65270310545E+02 -0.75596523623E+03  0.80395482368E+03  0.15294330000E+03 0.  0.
<mgrwt>
<rscale>  0 0.55147751E+03</rscale>
<asrwt>0</asrwt>
<pdfrwt beam="1">  1        1 0.17203968E+00 0.69661932E+03</pdfrwt>
<pdfrwt beam="2">  1       -1 0.58863460E-01 0.69661932E+03</pdfrwt>
<totfact> 0.37120495E+01</totfact>
</mgrwt>
</event>
<event>
 4    1  0.2514307E-008  0.1489544E+04  0.7818608E-02  0.8917055E-01
         -1   -1    0    0    0  501 -0.00000000000E+00  0.00000000000E+00  0.12043400672E+04  0.12043400673E+04  0.50400000000E-02 0.  1.
          1   -1    0    0  501    0  0.00000000000E+00 -0.00000000000E+00 -0.28375740156E+04  0.28375740156E+04  0.50400000000E-02 0. -1.
    8880023    1    1    2    0    0  0.46553792971E+03  0.12522802783E+04  0.45559194700E+03  0.15576603250E+04  0.65864270000E+03 0.  1.
    8880022    1    1    2    0    0 -0.46553792971E+03 -0.12522802783E+04 -0.20888258954E+04  0.24842537579E+04  0.15294330000E+03 0.  0.
<mgrwt>
<rscale>  0 0.14519429E+04</rscale>
<asrwt>0</asrwt>
<pdfrwt beam="1">  1        1 0.43654985E+00 0.14895441E+04</pdfrwt>
<pdfrwt beam="2">  1       -1 0.18528309E+00 0.14895441E+04</pdfrwt>
<totfact> 0.14184621E-01</totfact>
</mgrwt>
</event>
<event>
 4    1  0.2514307E-008  0.1215478E+04  0.7818608E-02  0.9142221E-01
         -1   -1    0    0    0  501 -0.00000000000E+00  0.00000000000E+00  0.85866121109E+03  0.85866121111E+03  0.50400000000E-02 0.  1.
          1   -1    0    0  501    0  0.00000000000E+00 -0.00000000000E+00 -0.32966242168E+04  0.32966242168E+04  0.50400000000E-02 0. -1.
    8880023    1    1    2    0    0 -0.37053779445E+03 -0.95198676125E+03  0.28029926494E+03  0.12473792266E+04  0.65864270000E+03 0.  0.
    8880022    1    1    2    0    0  0.37053779445E+03  0.95198676125E+03 -0.27182622706E+04  0.29079062013E+04  0.15294330000E+03 0.  0.
<mgrwt>
<rscale>  0 0.11670228E+04</rscale>
<asrwt>0</asrwt>
<pdfrwt beam="1">  1        1 0.50717295E+00 0.12154782E+04</pdfrwt>
<pdfrwt beam="2">  1       -1 0.13210173E+00 0.12154782E+04</pdfrwt>
<totfact> 0.17418780E-01</totfact>
</mgrwt>
</event>
<event>
 4    1  0.2514307E-008  0.7677570E+03  0.7818608E-02  0.9785424E-01
         -1   -1    0    0    0  501 -0.00000000000E+00  0.00000000000E+00  0.39418746658E+03  0.39418746662E+03  0.50400000000E-02 0.  1.
          1   -1    0    0  501    0  0.00000000000E+00 -0.00000000000E+00 -0.19864339946E+04  0.19864339946E+04  0.50400000000E-02 0. -1.
    8880023    1    1    2    0    0  0.38352002521E+03 -0.92482037321E+02 -0.36785350574E+02  0.76863769440E+03  0.65864270000E+03 0.  1.
    8880022    1    1    2    0    0 -0.38352002521E+03  0.92482037321E+02 -0.15554611774E+04  0.16119837668E+04  0.15294330000E+03 0.  0.
<mgrwt>
<rscale>  0 0.66150664E+03</rscale>
<asrwt>0</asrwt>
<pdfrwt beam="1">  1        1 0.30560523E+00 0.76775696E+03</pdfrwt>
<pdfrwt beam="2">  1       -1 0.60644227E-01 0.76775696E+03</pdfrwt>
<totfact> 0.87587870E+00</totfact>
</mgrwt>
</event>
<event>
 4    1  0.2514307E-008  0.9963301E+03  0.7818608E-02  0.9386375E-01
          1   -1    0    0  501    0  0.00000000000E+00  0.00000000000E+00  0.21268090050E+04  0.21268090050E+04  0.50400000000E-02 0. -1.
         -1   -1    0    0    0  501 -0.00000000000E+00 -0.00000000000E+00 -0.39907242329E+03  0.39907242332E+03  0.50400000000E-02 0.  1.
    8880023    1    1    2    0    0  0.73677782478E+03 -0.12657767563E+03  0.59616786873E+03  0.11610726958E+04  0.65864270000E+03 0.  0.
    8880022    1    1    2    0    0 -0.73677782478E+03  0.12657767563E+03  0.11315687130E+04  0.13648087325E+04  0.15294330000E+03 0.  0.
<mgrwt>
<rscale>  0 0.93205514E+03</rscale>
<asrwt>0</asrwt>
<pdfrwt beam="1">  1        1 0.32720139E+00 0.99633010E+03</pdfrwt>
<pdfrwt beam="2">  1       -1 0.61395756E-01 0.99633010E+03</pdfrwt>
<totfact> 0.66640028E+00</totfact>
</mgrwt>
</event>
<event>
 4    1  0.2514307E-008  0.9346986E+03  0.7818608E-02  0.9472480E-01
         -1   -1    0    0    0  501 -0.00000000000E+00  0.00000000000E+00  0.52380531144E+03  0.52380531146E+03  0.50400000000E-02 0.  1.
          1   -1    0    0  501    0  0.00000000000E+00 -0.00000000000E+00 -0.23686316782E+04  0.23686316782E+04  0.50400000000E-02 0. -1.
    8880023    1    1    2    0    0 -0.10914615781E+03  0.65417000576E+03 -0.92563767613E+01  0.93474443939E+03  0.65864270000E+03 0.  1.
    8880022    1    1    2    0    0  0.10914615781E+03 -0.65417000576E+03 -0.18355699900E+04  0.19576925503E+04  0.15294330000E+03 0.  0.
<mgrwt>
<rscale>  0 0.86343529E+03</rscale>
<asrwt>0</asrwt>
<pdfrwt beam="1">  1        1 0.36440487E+00 0.93469861E+03</pdfrwt>
<pdfrwt beam="2">  1       -1 0.80585434E-01 0.93469861E+03</pdfrwt>
<totfact> 0.26326152E+00</totfact>
</mgrwt>
</event>
<event>
 4    1  0.2514307E-008  0.7253241E+03  0.7818608E-02  0.9904966E-01
          1   -1    0    0  501    0  0.00000000000E+00  0.00000000000E+00  0.17659659842E+03  0.17659659849E+03  0.50400000000E-02 0. -1.
         -1   -1    0    0    0  501 -0.00000000000E+00 -0.00000000000E+00 -0.18455955714E+04  0.18455955714E+04  0.50400000000E-02 0.  1.
    8880023    1    1    2    0    0  0.30291353910E+03 -0.22982640521E+02 -0.14394446695E+04  0.16118610290E+04  0.65864270000E+03 0.  0.
    8880022    1    1    2    0    0 -0.30291353910E+03  0.22982640521E+02 -0.22955430345E+03  0.41033114089E+03  0.15294330000E+03 0.  0.
<mgrwt>
<rscale>  0 0.60021203E+03</rscale>
<asrwt>0</asrwt>
<pdfrwt beam="1">  1        1 0.27168709E-01 0.72532408E+03</pdfrwt>
<pdfrwt beam="2">  1       -1 0.28393777E+00 0.72532408E+03</pdfrwt>
<totfact> 0.76684290E+00</totfact>
</mgrwt>
</event>
<event>
 4    1  0.2514307E-008  0.7214513E+03  0.7818608E-02  0.9917706E-01
          1   -1    0    0  501    0  0.00000000000E+00  0.00000000000E+00  0.16539976910E+04  0.16539976910E+04  0.50400000000E-02 0. -1.
         -1   -1    0    0    0  501 -0.00000000000E+00 -0.00000000000E+00 -0.94557393562E+03  0.94557393563E+03  0.50400000000E-02 0.  1.
    8880023    1    1    2    0    0 -0.13544965005E+03  0.26140993911E+03 -0.78708392543E+03  0.10677045827E+04  0.65864270000E+03 0.  1.
    8880022    1    1    2    0    0  0.13544965005E+03 -0.26140993911E+03  0.14955076808E+04  0.15318670440E+04  0.15294330000E+03 0.  0.
<mgrwt>
<rscale>  0 0.59410823E+03</rscale>
<asrwt>0</asrwt>
<pdfrwt beam="1">  1        1 0.25446118E+00 0.72145129E+03</pdfrwt>
<pdfrwt beam="2">  1       -1 0.14547291E+00 0.72145129E+03</pdfrwt>
<totfact> 0.20474024E+00</totfact>
</mgrwt>
</event>
<event>
 4    1  0.2514307E-008  0.1011942E+04  0.7818608E-02  0.9366097E-01
         -1   -1    0    0    0  501 -0.00000000000E+00  0.00000000000E+00  0.59860781910E+03  0.59860781912E+03  0.50400000000E-02 0.  1.
          1   -1    0    0  501    0  0.00000000000E+00 -0.00000000000E+00 -0.32715362371E+04  0.32715362371E+04  0.50400000000E-02 0. -1.
    8880023    1    1    2    0    0  0.67232302945E+03  0.37175142963E+03  0.73094723995E+02  0.10145789404E+04  0.65864270000E+03 0.  0.
    8880022    1    1    2    0    0 -0.67232302945E+03 -0.37175142963E+03 -0.27460231419E+04  0.28555651158E+04  0.15294330000E+03 0.  0.
<mgrwt>
<rscale>  0 0.94919041E+03</rscale>
<asrwt>0</asrwt>
<pdfrwt beam="1">  1        1 0.50331326E+00 0.10119425E+04</pdfrwt>
<pdfrwt beam="2">  1       -1 0.92093512E-01 0.10119425E+04</pdfrwt>
<totfact> 0.44461951E-01</totfact>
</mgrwt>
</event>
<event>
 4    1  0.2514307E-008  0.8318043E+03  0.7818608E-02  0.9645832E-01
         -1   -1    0    0    0  501 -0.00000000000E+00  0.00000000000E+00  0.40665839080E+03  0.40665839084E+03  0.50400000000E-02 0.  1.
          1   -1    0    0  501    0  0.00000000000E+00 -0.00000000000E+00 -0.18633976616E+04  0.18633976616E+04  0.50400000000E-02 0. -1.
    8880023    1    1    2    0    0  0.99151175481E+02  0.49825416815E+03 -0.13094658875E+03  0.84204832821E+03  0.65864270000E+03 0.  1.
    8880022    1    1    2    0    0 -0.99151175481E+02 -0.49825416815E+03 -0.13257926821E+04  0.14280077243E+04  0.15294330000E+03 0.  0.
<mgrwt>
<rscale>  0 0.74335587E+03</rscale>
<asrwt>0</asrwt>
<pdfrwt beam="1">  1        1 0.28667656E+00 0.83180429E+03</pdfrwt>
<pdfrwt beam="2">  1       -1 0.62562831E-01 0.83180429E+03</pdfrwt>
<totfact> 0.98595240E+00</totfact>
</mgrwt>
</event>
<event>
 4    1  0.2514307E-008  0.1260206E+04  0.7818608E-02  0.9100710E-01
         -1   -1    0    0    0  501 -0.00000000000E+00  0.00000000000E+00  0.64795566667E+03  0.64795566669E+03  0.50400000000E-02 0.  1.
          1   -1    0    0  501    0  0.00000000000E+00 -0.00000000000E+00 -0.30180583085E+04  0.30180583085E+04  0.50400000000E-02 0. -1.
    8880023    1    1    2    0    0 -0.89960621810E+03  0.58738204849E+03 -0.25066000482E+03  0.12848928604E+04  0.65864270000E+03 0.  0.
    8880022    1    1    2    0    0  0.89960621810E+03 -0.58738204849E+03 -0.21194426370E+04  0.23811211148E+04  0.15294330000E+03 0.  0.
<mgrwt>
<rscale>  0 0.12139772E+04</rscale>
<asrwt>0</asrwt>
<pdfrwt beam="1">  1        1 0.46431665E+00 0.12602060E+04</pdfrwt>
<pdfrwt beam="2">  1       -1 0.99685489E-01 0.12602060E+04</pdfrwt>
<totfact> 0.54997702E-01</totfact>
</mgrwt>
</event>
<event>
 4    1  0.2514307E-008  0.1418913E+04  0.7818608E-02  0.8969125E-01
          1   -1    0    0  501    0  0.00000000000E+00  0.00000000000E+00  0.63845201121E+03  0.63845201123E+03  0.50400000000E-02 0. -1.
         -1   -1    0    0    0  501 -0.00000000000E+00 -0.00000000000E+00 -0.35492546261E+04  0.35492546261E+04  0.50400000000E-02 0.  1.
    8880023    1    1    2    0    0  0.11612009041E+04 -0.48074519619E+03 -0.24673256464E+04  0.28462272458E+04  0.65864270000E+03 0.  1.
    8880022    1    1    2    0    0 -0.11612009041E+04  0.48074519619E+03 -0.44347696850E+03  0.13414793915E+04  0.15294330000E+03 0.  0.
<mgrwt>
<rscale>  0 0.13790497E+04</rscale>
<asrwt>0</asrwt>
<pdfrwt beam="1">  1        1 0.98223388E-01 0.14189129E+04</pdfrwt>
<pdfrwt beam="2">  1       -1 0.54603916E+00 0.14189129E+04</pdfrwt>
<totfact> 0.23391652E-02</totfact>
</mgrwt>
</event>
<event>
 4    1  0.2514307E-008  0.8424999E+03  0.7818608E-02  0.9625484E-01
         -1   -1    0    0    0  501 -0.00000000000E+00  0.00000000000E+00  0.19020065077E+04  0.19020065077E+04  0.50400000000E-02 0.  1.
          1   -1    0    0  501    0  0.00000000000E+00 -0.00000000000E+00 -0.81140213343E+03  0.81140213345E+03  0.50400000000E-02 0. -1.
    8880023    1    1    2    0    0  0.50180414746E+03  0.15552654912E+03  0.16982308658E+04  0.18957305161E+04  0.65864270000E+03 0.  1.
    8880022    1    1    2    0    0 -0.50180414746E+03 -0.15552654912E+03 -0.60762649155E+03  0.81767812502E+03  0.15294330000E+03 0.  0.
<mgrwt>
<rscale>  0 0.75632180E+03</rscale>
<asrwt>0</asrwt>
<pdfrwt beam="1">  1        1 0.12483110E+00 0.84249992E+03</pdfrwt>
<pdfrwt beam="2">  1       -1 0.29261639E+00 0.84249992E+03</pdfrwt>
<totfact> 0.82780234E-01</totfact>
</mgrwt>
</event>
<event>
 4    1  0.2514307E-008  0.2409272E+04  0.7818608E-02  0.8444278E-01
          1   -1    0    0  501    0  0.00000000000E+00  0.00000000000E+00  0.42917075574E+04  0.42917075574E+04  0.50400000000E-02 0. -1.
         -1   -1    0    0    0  501 -0.00000000000E+00 -0.00000000000E+00 -0.13464563811E+04  0.13464563811E+04  0.50400000000E-02 0.  1.
    8880023    1    1    2    0    0  0.22806990388E+04 -0.41132868222E+03  0.99979476539E+03  0.26084821582E+04  0.65864270000E+03 0.  0.
    8880022    1    1    2    0    0 -0.22806990388E+04  0.41132868222E+03  0.19454564110E+04  0.30296817804E+04  0.15294330000E+03 0.  0.
<mgrwt>
<rscale>  0 0.23872885E+04</rscale>
<asrwt>0</asrwt>
<pdfrwt beam="1">  1        1 0.66026271E+00 0.24092716E+04</pdfrwt>
<pdfrwt beam="2">  1       -1 0.20714713E+00 0.24092716E+04</pdfrwt>
<totfact> 0.59696006E-03</totfact>
</mgrwt>
</event>
<event>
 4    1  0.2514307E-008  0.1372969E+04  0.7818608E-02  0.9004977E-01
         -1   -1    0    0    0  501 -0.00000000000E+00  0.00000000000E+00  0.88452848662E+03  0.88452848663E+03  0.50400000000E-02 0.  1.
          1   -1    0    0  501    0  0.00000000000E+00 -0.00000000000E+00 -0.23974541167E+04  0.23974541167E+04  0.50400000000E-02 0. -1.
    8880023    1    1    2    0    0 -0.91761197537E+02 -0.12011713558E+04 -0.40714423867E+02  0.13735722093E+04  0.65864270000E+03 0.  0.
    8880022    1    1    2    0    0  0.91761197537E+02  0.12011713558E+04 -0.14722112062E+04  0.19084103940E+04  0.15294330000E+03 0.  0.
<mgrwt>
<rscale>  0 0.13314677E+04</rscale>
<asrwt>0</asrwt>
<pdfrwt beam="1">  1        1 0.36883909E+00 0.13729687E+04</pdfrwt>
<pdfrwt beam="2">  1       -1 0.13608131E+00 0.13729687E+04</pdfrwt>
<totfact> 0.69481242E-01</totfact>
</mgrwt>
</event>
<event>
 4    1  0.2514307E-008  0.8319189E+03  0.7818608E-02  0.9645610E-01
         -1   -1    0    0    0  501 -0.00000000000E+00  0.00000000000E+00  0.28840414243E+03  0.28840414247E+03  0.50400000000E-02 0.  1.
          1   -1    0    0  501    0  0.00000000000E+00 -0.00000000000E+00 -0.23083369678E+04  0.23083369678E+04  0.50400000000E-02 0. -1.
    8880023    1    1    2    0    0 -0.49457457893E+03  0.11693933072E+03 -0.46353072451E+03  0.95233909928E+03  0.65864270000E+03 0.  0.
    8880022    1    1    2    0    0  0.49457457893E+03 -0.11693933072E+03 -0.15564021009E+04  0.16444020110E+04  0.15294330000E+03 0.  0.
<mgrwt>
<rscale>  0 0.74349560E+03</rscale>
<asrwt>0</asrwt>
<pdfrwt beam="1">  1        1 0.35512875E+00 0.83191888E+03</pdfrwt>
<pdfrwt beam="2">  1       -1 0.44369870E-01 0.83191888E+03</pdfrwt>
<totfact> 0.95839241E+00</totfact>
</mgrwt>
</event>
<event>
 4    1  0.2514307E-008  0.1363530E+04  0.7818608E-02  0.9012552E-01
         -1   -1    0    0    0  501 -0.00000000000E+00  0.00000000000E+00  0.10130199679E+04  0.10130199679E+04  0.50400000000E-02 0.  1.
          1   -1    0    0  501    0  0.00000000000E+00 -0.00000000000E+00 -0.22756059630E+04  0.22756059630E+04  0.50400000000E-02 0. -1.
    8880023    1    1    2    0    0  0.40537084159E+03  0.11229772481E+04  0.21763275307E+03  0.13807887747E+04  0.65864270000E+03 0.  0.
    8880022    1    1    2    0    0 -0.40537084159E+03 -0.11229772481E+04 -0.14802187482E+04  0.19078371562E+04  0.15294330000E+03 0. -1.
<mgrwt>
<rscale>  0 0.13216740E+04</rscale>
<asrwt>0</asrwt>
<pdfrwt beam="1">  1        1 0.35009322E+00 0.13635298E+04</pdfrwt>
<pdfrwt beam="2">  1       -1 0.15584923E+00 0.13635298E+04</pdfrwt>
<totfact> 0.58614730E-01</totfact>
</mgrwt>
</event>
<event>
 4    1  0.2514307E-008  0.1510375E+04  0.7818608E-02  0.8902344E-01
         -1   -1    0    0    0  501 -0.00000000000E+00  0.00000000000E+00  0.10228987852E+04  0.10228987852E+04  0.50400000000E-02 0.  1.
          1   -1    0    0  501    0  0.00000000000E+00 -0.00000000000E+00 -0.22775035912E+04  0.22775035912E+04  0.50400000000E-02 0. -1.
    8880023    1    1    2    0    0 -0.12489885183E+04 -0.53614505831E+03 -0.10560857483E+03  0.15140631492E+04  0.65864270000E+03 0.  0.
    8880022    1    1    2    0    0  0.12489885183E+04  0.53614505831E+03 -0.11489962312E+04  0.17863392272E+04  0.15294330000E+03 0.  0.
<mgrwt>
<rscale>  0 0.14733895E+04</rscale>
<asrwt>0</asrwt>
<pdfrwt beam="1">  1        1 0.35038517E+00 0.15103755E+04</pdfrwt>
<pdfrwt beam="2">  1       -1 0.15736904E+00 0.15103755E+04</pdfrwt>
<totfact> 0.55932384E-01</totfact>
</mgrwt>
</event>
<event>
 4    1  0.2514307E-008  0.8562740E+03  0.7818608E-02  0.9600226E-01
          1   -1    0    0  501    0  0.00000000000E+00  0.00000000000E+00  0.14382500584E+04  0.14382500584E+04  0.50400000000E-02 0. -1.
         -1   -1    0    0    0  501 -0.00000000000E+00 -0.00000000000E+00 -0.41757106008E+03  0.41757106011E+03  0.50400000000E-02 0.  1.
    8880023    1    1    2    0    0 -0.32837644428E+03 -0.43768004269E+03  0.23811131013E+03  0.88876437328E+03  0.65864270000E+03 0.  0.
    8880022    1    1    2    0    0  0.32837644428E+03  0.43768004269E+03  0.78256768818E+03  0.96705674525E+03  0.15294330000E+03 0.  0.
<mgrwt>
<rscale>  0 0.77281223E+03</rscale>
<asrwt>0</asrwt>
<pdfrwt beam="1">  1        1 0.22126924E+00 0.85627397E+03</pdfrwt>
<pdfrwt beam="2">  1       -1 0.64241702E-01 0.85627397E+03</pdfrwt>
<totfact> 0.18116647E+01</totfact>
</mgrwt>
</event>
<event>
 4    1  0.2514307E-008  0.9836330E+03  0.7818608E-02  0.9403291E-01
          1   -1    0    0  501    0  0.00000000000E+00  0.00000000000E+00  0.98730590689E+03  0.98730590690E+03  0.50400000000E-02 0. -1.
         -1   -1    0    0    0  501 -0.00000000000E+00 -0.00000000000E+00 -0.88016670602E+03  0.88016670603E+03  0.50400000000E-02 0.  1.
    8880023    1    1    2    0    0  0.27027001805E+03 -0.67873244135E+03 -0.28532454726E+03  0.10241796293E+04  0.65864270000E+03 0.  1.
    8880022    1    1    2    0    0 -0.27027001805E+03  0.67873244135E+03  0.39246374813E+03  0.84329298361E+03  0.15294330000E+03 0.  0.
<mgrwt>
<rscale>  0 0.91805339E+03</rscale>
<asrwt>0</asrwt>
<pdfrwt beam="1">  1        1 0.15189322E+00 0.98363297E+03</pdfrwt>
<pdfrwt beam="2">  1       -1 0.13541026E+00 0.98363297E+03</pdfrwt>
<totfact> 0.71063599E+00</totfact>
</mgrwt>
</event>
<event>
 4    1  0.2514307E-008  0.7539174E+03  0.7818608E-02  0.9821117E-01
         -1   -1    0    0    0  501 -0.00000000000E+00  0.00000000000E+00  0.59549520663E+03  0.59549520665E+03  0.50400000000E-02 0.  1.
          1   -1    0    0  501    0  0.00000000000E+00 -0.00000000000E+00 -0.64116555763E+03  0.64116555765E+03  0.50400000000E-02 0. -1.
    8880023    1    1    2    0    0 -0.19530502991E+03 -0.31054329523E+03  0.18612150284E+03  0.77655174522E+03  0.65864270000E+03 0.  1.
    8880022    1    1    2    0    0  0.19530502991E+03  0.31054329523E+03 -0.23179185384E+03  0.46010901908E+03  0.15294330000E+03 0.  0.
<mgrwt>
<rscale>  0 0.64241492E+03</rscale>
<asrwt>0</asrwt>
<pdfrwt beam="1">  1        1 0.98640855E-01 0.75391737E+03</pdfrwt>
<pdfrwt beam="2">  1       -1 0.91614647E-01 0.75391737E+03</pdfrwt>
<totfact> 0.36928185E+01</totfact>
</mgrwt>
</event>
<event>
 4    1  0.2514307E-008  0.1349803E+04  0.7818608E-02  0.9023702E-01
          1   -1    0    0  501    0  0.00000000000E+00  0.00000000000E+00  0.29677990215E+04  0.29677990215E+04  0.50400000000E-02 0. -1.
         -1   -1    0    0    0  501 -0.00000000000E+00 -0.00000000000E+00 -0.13775960854E+04  0.13775960854E+04  0.50400000000E-02 0.  1.
    8880023    1    1    2    0    0  0.67338696094E+03 -0.96680319285E+03  0.25052721353E+04  0.28457612499E+04  0.65864270000E+03 0.  0.
    8880022    1    1    2    0    0 -0.67338696094E+03  0.96680319285E+03 -0.91506919919E+03  0.14996338570E+04  0.15294330000E+03 0.  0.
<mgrwt>
<rscale>  0 0.13074192E+04</rscale>
<asrwt>0</asrwt>
<pdfrwt beam="1">  1        1 0.45658446E+00 0.13498032E+04</pdfrwt>
<pdfrwt beam="2">  1       -1 0.21193786E+00 0.13498032E+04</pdfrwt>
<totfact> 0.76132162E-02</totfact>
</mgrwt>
</event>
<event>
 4    1  0.2514307E-008  0.9036972E+03  0.7818608E-02  0.9520122E-01
          1   -1    0    0  501    0  0.00000000000E+00  0.00000000000E+00  0.19662333715E+04  0.19662333715E+04  0.50400000000E-02 0. -1.
         -1   -1    0    0    0  501 -0.00000000000E+00 -0.00000000000E+00 -0.61037572132E+03  0.61037572134E+03  0.50400000000E-02 0.  1.
    8880023    1    1    2    0    0  0.45767019088E+03 -0.41640889506E+03 -0.17309296928E+03  0.92012485771E+03  0.65864270000E+03 0.  0.
    8880022    1    1    2    0    0 -0.45767019088E+03  0.41640889506E+03  0.15289506194E+04  0.16564842351E+04  0.15294330000E+03 0.  0.
<mgrwt>
<rscale>  0 0.82816404E+03</rscale>
<asrwt>0</asrwt>
<pdfrwt beam="1">  1        1 0.30249744E+00 0.90369717E+03</pdfrwt>
<pdfrwt beam="2">  1       -1 0.93903959E-01 0.90369717E+03</pdfrwt>
<totfact> 0.35376412E+00</totfact>
</mgrwt>
</event>
<event>
 4    1  0.2514307E-008  0.6978613E+03  0.7818608E-02  0.1000619E+00
          1   -1    0    0  501    0  0.00000000000E+00  0.00000000000E+00  0.18936979924E+04  0.18936979924E+04  0.50400000000E-02 0. -1.
         -1   -1    0    0    0  501 -0.00000000000E+00 -0.00000000000E+00 -0.12126898948E+04  0.12126898948E+04  0.50400000000E-02 0.  1.
    8880023    1    1    2    0    0 -0.36931763995E+02  0.22767561332E+03 -0.11007160090E+04  0.13032981542E+04  0.65864270000E+03 0.  1.
    8880022    1    1    2    0    0  0.36931763995E+02 -0.22767561332E+03  0.17817241066E+04  0.18030897329E+04  0.15294330000E+03 0.  0.
<mgrwt>
<rscale>  0 0.55379573E+03</rscale>
<asrwt>0</asrwt>
<pdfrwt beam="1">  1        1 0.29133815E+00 0.69786127E+03</pdfrwt>
<pdfrwt beam="2">  1       -1 0.18656768E+00 0.69786127E+03</pdfrwt>
<totfact> 0.70531141E-01</totfact>
</mgrwt>
</event>
<event>
 4    1  0.2514307E-008  0.6699192E+03  0.7818608E-02  0.1015721E+00
         -1   -1    0    0    0  501 -0.00000000000E+00  0.00000000000E+00  0.43475831068E+03  0.43475831071E+03  0.50400000000E-02 0.  1.
          1   -1    0    0  501    0  0.00000000000E+00 -0.00000000000E+00 -0.23378276587E+04  0.23378276587E+04  0.50400000000E-02 0. -1.
    8880023    1    1    2    0    0 -0.10242113737E+03 -0.67018036182E+02  0.16929864465E+03  0.69098027750E+03  0.65864270000E+03 0.  0.
    8880022    1    1    2    0    0  0.10242113737E+03  0.67018036182E+02 -0.20723679927E+04  0.20816056920E+04  0.15294330000E+03 0. -1.
<mgrwt>
<rscale>  0 0.49262932E+03</rscale>
<asrwt>0</asrwt>
<pdfrwt beam="1">  1        1 0.35966578E+00 0.66991918E+03</pdfrwt>
<pdfrwt beam="2">  1       -1 0.66885896E-01 0.66991918E+03</pdfrwt>
<totfact> 0.42619299E+00</totfact>
</mgrwt>
</event>
<event>
 4    1  0.2514307E-008  0.9777654E+03  0.7818608E-02  0.9411243E-01
         -1   -1    0    0    0  501 -0.00000000000E+00  0.00000000000E+00  0.40398741286E+03  0.40398741289E+03  0.50400000000E-02 0.  1.
          1   -1    0    0  501    0  0.00000000000E+00 -0.00000000000E+00 -0.33618864699E+04  0.33618864699E+04  0.50400000000E-02 0. -1.
    8880023    1    1    2    0    0  0.55086574843E+03 -0.46771985200E+03 -0.32351908081E+03  0.10298979244E+04  0.65864270000E+03 0.  1.
    8880022    1    1    2    0    0 -0.55086574843E+03  0.46771985200E+03 -0.26343799762E+04  0.27359759584E+04  0.15294330000E+03 0.  0.
<mgrwt>
<rscale>  0 0.91156143E+03</rscale>
<asrwt>0</asrwt>
<pdfrwt beam="1">  1        1 0.51721329E+00 0.97776538E+03</pdfrwt>
<pdfrwt beam="2">  1       -1 0.62151912E-01 0.97776538E+03</pdfrwt>
<totfact> 0.87463770E-01</totfact>
</mgrwt>
</event>
<event>
 4    1  0.2514307E-008  0.8537547E+03  0.7818608E-02  0.9604771E-01
          1   -1    0    0  501    0  0.00000000000E+00  0.00000000000E+00  0.16578368392E+04  0.16578368392E+04  0.50400000000E-02 0. -1.
         -1   -1    0    0    0  501 -0.00000000000E+00 -0.00000000000E+00 -0.23098226309E+04  0.23098226309E+04  0.50400000000E-02 0.  1.
    8880023    1    1    2    0    0  0.59107534442E+02 -0.53999374703E+03 -0.21786866907E+04  0.23399941987E+04  0.65864270000E+03 0.  1.
    8880022    1    1    2    0    0 -0.59107534442E+02  0.53999374703E+03  0.15267008990E+04  0.16276652714E+04  0.15294330000E+03 0.  0.
<mgrwt>
<rscale>  0 0.76981236E+03</rscale>
<asrwt>0</asrwt>
<pdfrwt beam="1">  1        1 0.25505182E+00 0.85375474E+03</pdfrwt>
<pdfrwt beam="2">  1       -1 0.35535733E+00 0.85375474E+03</pdfrwt>
<totfact> 0.77256036E-02</totfact>
</mgrwt>
</event>
<event>
 4    1  0.2514307E-008  0.8124161E+03  0.7818608E-02  0.9684566E-01
         -1   -1    0    0    0  501 -0.00000000000E+00  0.00000000000E+00  0.59461629511E+03  0.59461629513E+03  0.50400000000E-02 0.  1.
          1   -1    0    0  501    0  0.00000000000E+00 -0.00000000000E+00 -0.20088306382E+04  0.20088306382E+04  0.50400000000E-02 0. -1.
    8880023    1    1    2    0    0 -0.40174120148E+03  0.25458537296E+03  0.26258826620E+03  0.85379886911E+03  0.65864270000E+03 0.  1.
    8880022    1    1    2    0    0  0.40174120148E+03 -0.25458537296E+03 -0.16768026093E+04  0.17496480642E+04  0.15294330000E+03 0.  0.
<mgrwt>
<rscale>  0 0.71943201E+03</rscale>
<asrwt>0</asrwt>
<pdfrwt beam="1">  1        1 0.30905086E+00 0.81241609E+03</pdfrwt>
<pdfrwt beam="2">  1       -1 0.91479431E-01 0.81241609E+03</pdfrwt>
<totfact> 0.35622683E+00</totfact>
</mgrwt>
</event>
<event>
 4    1  0.2514307E-008  0.1168891E+04  0.7818608E-02  0.9187972E-01
          1   -1    0    0  501    0  0.00000000000E+00  0.00000000000E+00  0.12870935135E+04  0.12870935135E+04  0.50400000000E-02 0. -1.
         -1   -1    0    0    0  501 -0.00000000000E+00 -0.00000000000E+00 -0.93361862215E+03  0.93361862217E+03  0.50400000000E-02 0.  1.
    8880023    1    1    2    0    0 -0.61075861270E+03  0.74797641315E+03 -0.33120043171E+02  0.11693596287E+04  0.65864270000E+03 0. -1.
    8880022    1    1    2    0    0  0.61075861270E+03 -0.74797641315E+03  0.38659493453E+03  0.10513525070E+04  0.15294330000E+03 0.  0.
<mgrwt>
<rscale>  0 0.11178439E+04</rscale>
<asrwt>0</asrwt>
<pdfrwt beam="1">  1        1 0.19801438E+00 0.11688905E+04</pdfrwt>
<pdfrwt beam="2">  1       -1 0.14363364E+00 0.11688905E+04</pdfrwt>
<totfact> 0.35647627E+00</totfact>
</mgrwt>
</event>
<event>
 4    1  0.2514307E-008  0.8439171E+03  0.7818608E-02  0.9622838E-01
          1   -1    0    0  501    0  0.00000000000E+00  0.00000000000E+00  0.13856001734E+04  0.13856001734E+04  0.50400000000E-02 0. -1.
         -1   -1    0    0    0  501 -0.00000000000E+00 -0.00000000000E+00 -0.82475903789E+03  0.82475903791E+03  0.50400000000E-02 0.  1.
    8880023    1    1    2    0    0  0.47910355709E+03 -0.22101061682E+03 -0.52470031129E+03  0.99373363337E+03  0.65864270000E+03 0.  1.
    8880022    1    1    2    0    0 -0.47910355709E+03  0.22101061682E+03  0.10855414468E+04  0.12166255779E+04  0.15294330000E+03 0.  0.
<mgrwt>
<rscale>  0 0.75802882E+03</rscale>
<asrwt>0</asrwt>
<pdfrwt beam="1">  1        1 0.21316925E+00 0.84391713E+03</pdfrwt>
<pdfrwt beam="2">  1       -1 0.12688601E+00 0.84391713E+03</pdfrwt>
<totfact> 0.43488628E+00</totfact>
</mgrwt>
</event>
<event>
 4    1  0.2514307E-008  0.8796840E+03  0.7818608E-02  0.9559465E-01
          1   -1    0    0  501    0  0.00000000000E+00  0.00000000000E+00  0.60291613315E+03  0.60291613317E+03  0.50400000000E-02 0. -1.
         -1   -1    0    0    0  501 -0.00000000000E+00 -0.00000000000E+00 -0.17241338638E+04  0.17241338638E+04  0.50400000000E-02 0.  1.
    8880023    1    1    2    0    0 -0.17055610582E+03  0.55762391003E+03 -0.14074142936E+04  0.16597165452E+04  0.65864270000E+03 0.  1.
    8880022    1    1    2    0    0  0.17055610582E+03 -0.55762391003E+03  0.28619656293E+03  0.66733345182E+03  0.15294330000E+03 0.  0.
<mgrwt>
<rscale>  0 0.80038134E+03</rscale>
<asrwt>0</asrwt>
<pdfrwt beam="1">  1        1 0.92756329E-01 0.87968404E+03</pdfrwt>
<pdfrwt beam="2">  1       -1 0.26525136E+00 0.87968404E+03</pdfrwt>
<totfact> 0.19362473E+00</totfact>
</mgrwt>
</event>
<event>
 4    1  0.2514307E-008  0.8695038E+03  0.7818608E-02  0.9576876E-01
          1   -1    0    0  501    0  0.00000000000E+00  0.00000000000E+00  0.12578034644E+04  0.12578034644E+04  0.50400000000E-02 0. -1.
         -1   -1    0    0    0  501 -0.00000000000E+00 -0.00000000000E+00 -0.45957919279E+03  0.45957919282E+03  0.50400000000E-02 0.  1.
    8880023    1    1    2    0    0  0.97536494514E+02  0.55920777363E+03  0.22918921100E+03  0.89920220337E+03  0.65864270000E+03 0.  1.
    8880022    1    1    2    0    0 -0.97536494514E+02 -0.55920777363E+03  0.56903506059E+03  0.81818045384E+03  0.15294330000E+03 0.  1.
<mgrwt>
<rscale>  0 0.78845738E+03</rscale>
<asrwt>0</asrwt>
<pdfrwt beam="1">  1        1 0.19350823E+00 0.86950383E+03</pdfrwt>
<pdfrwt beam="2">  1       -1 0.70704491E-01 0.86950383E+03</pdfrwt>
<totfact> 0.19944709E+01</totfact>
</mgrwt>
</event>
<event>
 4    1  0.2514307E-008  0.1546358E+04  0.7818608E-02  0.8877576E-01
         -1   -1    0    0    0  501 -0.00000000000E+00  0.00000000000E+00  0.13291863832E+04  0.13291863832E+04  0.50400000000E-02 0.  1.
          1   -1    0    0  501    0  0.00000000000E+00 -0.00000000000E+00 -0.26736531959E+04  0.26736531959E+04  0.50400000000E-02 0. -1.
    8880023    1    1    2    0    0 -0.13234187973E+04 -0.45384511162E+03  0.55135186386E+03  0.16417100178E+04  0.65864270000E+03 0.  0.
    8880022    1    1    2    0    0  0.13234187973E+04  0.45384511162E+03 -0.18958186765E+04  0.23611295614E+04  0.15294330000E+03 0.  0.
<mgrwt>
<rscale>  0 0.15103852E+04</rscale>
<asrwt>0</asrwt>
<pdfrwt beam="1">  1        1 0.41133126E+00 0.15463579E+04</pdfrwt>
<pdfrwt beam="2">  1       -1 0.20449021E+00 0.15463579E+04</pdfrwt>
<totfact> 0.13500100E-01</totfact>
</mgrwt>
</event>
<event>
 4    1  0.2514307E-008  0.1265716E+04  0.7818608E-02  0.9095747E-01
          1   -1    0    0  501    0  0.00000000000E+00  0.00000000000E+00  0.20069830797E+04  0.20069830797E+04  0.50400000000E-02 0. -1.
         -1   -1    0    0    0  501 -0.00000000000E+00 -0.00000000000E+00 -0.94927296561E+03  0.94927296562E+03  0.50400000000E-02 0.  1.
    8880023    1    1    2    0    0  0.78510036234E+03 -0.74286187760E+03 -0.21032972554E+03  0.12830725419E+04  0.65864270000E+03 0.  0.
    8880022    1    1    2    0    0 -0.78510036234E+03  0.74286187760E+03  0.12680398396E+04  0.16731835034E+04  0.15294330000E+03 0.  0.
<mgrwt>
<rscale>  0 0.12197457E+04</rscale>
<asrwt>0</asrwt>
<pdfrwt beam="1">  1        1 0.30876662E+00 0.12657158E+04</pdfrwt>
<pdfrwt beam="2">  1       -1 0.14604200E+00 0.12657158E+04</pdfrwt>
<totfact> 0.10773858E+00</totfact>
</mgrwt>
</event>
<event>
 4    1  0.2514307E-008  0.6962236E+03  0.7818608E-02  0.1001324E+00
          1   -1    0    0  501    0  0.00000000000E+00  0.00000000000E+00  0.98092366069E+03  0.98092366070E+03  0.50400000000E-02 0. -1.
         -1   -1    0    0    0  501 -0.00000000000E+00 -0.00000000000E+00 -0.74719764133E+03  0.74719764135E+03  0.50400000000E-02 0.  1.
    8880023    1    1    2    0    0 -0.18275034691E+03  0.13236073092E+03 -0.55707135802E+03  0.89165899120E+03  0.65864270000E+03 0.  1.
    8880022    1    1    2    0    0  0.18275034691E+03 -0.13236073092E+03  0.79079737738E+03  0.83646231085E+03  0.15294330000E+03 0.  0.
<mgrwt>
<rscale>  0 0.55073351E+03</rscale>
<asrwt>0</asrwt>
<pdfrwt beam="1">  1        1 0.15091133E+00 0.69622357E+03</pdfrwt>
<pdfrwt beam="2">  1       -1 0.11495348E+00 0.69622357E+03</pdfrwt>
<totfact> 0.11188559E+01</totfact>
</mgrwt>
</event>
<event>
 4    1  0.2514307E-008  0.1317404E+04  0.7818608E-02  0.9050674E-01
         -1   -1    0    0    0  501 -0.00000000000E+00  0.00000000000E+00  0.10086014858E+04  0.10086014858E+04  0.50400000000E-02 0.  1.
          1   -1    0    0  501    0  0.00000000000E+00 -0.00000000000E+00 -0.18693001117E+04  0.18693001117E+04  0.50400000000E-02 0. -1.
    8880023    1    1    2    0    0 -0.11095985049E+04 -0.26558380037E+03  0.17554898557E+03  0.13290490020E+04  0.65864270000E+03 0. -1.
    8880022    1    1    2    0    0  0.11095985049E+04  0.26558380037E+03 -0.10362476115E+04  0.15488525954E+04  0.15294330000E+03 0.  0.
<mgrwt>
<rscale>  0 0.12737137E+04</rscale>
<asrwt>0</asrwt>
<pdfrwt beam="1">  1        1 0.28758463E+00 0.13174042E+04</pdfrwt>
<pdfrwt beam="2">  1       -1 0.15516946E+00 0.13174042E+04</pdfrwt>
<totfact> 0.11260832E+00</totfact>
</mgrwt>
</event>
<event>
 4    1  0.2514307E-008  0.9153988E+03  0.7818608E-02  0.9501750E-01
         -1   -1    0    0    0  501 -0.00000000000E+00  0.00000000000E+00  0.83614007123E+03  0.83614007124E+03  0.50400000000E-02 0.  1.
          1   -1    0    0  501    0  0.00000000000E+00 -0.00000000000E+00 -0.12704929240E+04  0.12704929240E+04  0.50400000000E-02 0. -1.
    8880023    1    1    2    0    0 -0.60667916711E+03 -0.18996112461E+03  0.43933290446E+03  0.10153661644E+04  0.65864270000E+03 0.  1.
    8880022    1    1    2    0    0  0.60667916711E+03  0.18996112461E+03 -0.87368575727E+03  0.10912668309E+04  0.15294330000E+03 0.  0.
<mgrwt>
<rscale>  0 0.84154902E+03</rscale>
<asrwt>0</asrwt>
<pdfrwt beam="1">  1        1 0.19546045E+00 0.91539885E+03</pdfrwt>
<pdfrwt beam="2">  1       -1 0.12863693E+00 0.91539885E+03</pdfrwt>
<totfact> 0.50174842E+00</totfact>
</mgrwt>
</event>
<event>
 4    1  0.2514307E-008  0.8255195E+03  0.7818608E-02  0.9658114E-01
          1   -1    0    0  501    0  0.00000000000E+00  0.00000000000E+00  0.10554047562E+04  0.10554047562E+04  0.50400000000E-02 0. -1.
         -1   -1    0    0    0  501 -0.00000000000E+00 -0.00000000000E+00 -0.61789708983E+03  0.61789708985E+03  0.50400000000E-02 0.  1.
    8880023    1    1    2    0    0  0.46914957251E+03 -0.16604471127E+03 -0.20080051470E+03  0.84959003083E+03  0.65864270000E+03 0.  0.
    8880022    1    1    2    0    0 -0.46914957251E+03  0.16604471127E+03  0.63830818109E+03  0.82371181525E+03  0.15294330000E+03 0.  0.
<mgrwt>
<rscale>  0 0.73566387E+03</rscale>
<asrwt>0</asrwt>
<pdfrwt beam="1">  1        1 0.16236996E+00 0.82551946E+03</pdfrwt>
<pdfrwt beam="2">  1       -1 0.95061091E-01 0.82551946E+03</pdfrwt>
<totfact> 0.14972312E+01</totfact>
</mgrwt>
</event>
<event>
 4    1  0.2514307E-008  0.8307124E+03  0.7818608E-02  0.9647948E-01
         -1   -1    0    0    0  501 -0.00000000000E+00  0.00000000000E+00  0.36719064470E+03  0.36719064473E+03  0.50400000000E-02 0.  1.
          1   -1    0    0  501    0  0.00000000000E+00 -0.00000000000E+00 -0.14232225083E+04  0.14232225083E+04  0.50400000000E-02 0. -1.
    8880023    1    1    2    0    0  0.19123671875E+02  0.50587264713E+03 -0.33379900511E+03  0.89526802245E+03  0.65864270000E+03 0.  1.
    8880022    1    1    2    0    0 -0.19123671875E+02 -0.50587264713E+03 -0.72223285853E+03  0.89514513063E+03  0.15294330000E+03 0.  0.
<mgrwt>
<rscale>  0 0.74202353E+03</rscale>
<asrwt>0</asrwt>
<pdfrwt beam="1">  1        1 0.21895731E+00 0.83071238E+03</pdfrwt>
<pdfrwt beam="2">  1       -1 0.56490869E-01 0.83071238E+03</pdfrwt>
<totfact> 0.23998483E+01</totfact>
</mgrwt>
</event>
<event>
 4    1  0.2514307E-008  0.8155209E+03  0.7818608E-02  0.9678190E-01
          1   -1    0    0  501    0  0.00000000000E+00  0.00000000000E+00  0.83329977163E+03  0.83329977165E+03  0.50400000000E-02 0. -1.
         -1   -1    0    0    0  501 -0.00000000000E+00 -0.00000000000E+00 -0.78060083941E+03  0.78060083943E+03  0.50400000000E-02 0.  1.
    8880023    1    1    2    0    0  0.18821335349E+03 -0.44253795402E+03 -0.42448306884E+03  0.91938032891E+03  0.65864270000E+03 0. -1.
    8880022    1    1    2    0    0 -0.18821335349E+03  0.44253795402E+03  0.47718200107E+03  0.69452028217E+03  0.15294330000E+03 0.  0.
<mgrwt>
<rscale>  0 0.72330340E+03</rscale>
<asrwt>0</asrwt>
<pdfrwt beam="1">  1        1 0.12819996E+00 0.81552088E+03</pdfrwt>
<pdfrwt beam="2">  1       -1 0.12009244E+00 0.81552088E+03</pdfrwt>
<totfact> 0.13064033E+01</totfact>
</mgrwt>
</event>
<event>
 4    1  0.2514307E-008  0.7463212E+03  0.7818608E-02  0.9841902E-01
         -1   -1    0    0    0  501 -0.00000000000E+00  0.00000000000E+00  0.16237802273E+03  0.16237802280E+03  0.50400000000E-02 0.  1.
          1   -1    0    0  501    0  0.00000000000E+00 -0.00000000000E+00 -0.22042491568E+04  0.22042491568E+04  0.50400000000E-02 0. -1.
    8880023    1    1    2    0    0  0.23678632817E+03 -0.25907029126E+03 -0.16865281897E+04  0.18442810854E+04  0.65864270000E+03 0.  0.
    8880022    1    1    2    0    0 -0.23678632817E+03  0.25907029126E+03 -0.35534294441E+03  0.52234609425E+03  0.15294330000E+03 0. -1.
<mgrwt>
<rscale>  0 0.63161512E+03</rscale>
<asrwt>0</asrwt>
<pdfrwt beam="1">  1        1 0.33911523E+00 0.74632124E+03</pdfrwt>
<pdfrwt beam="2">  1       -1 0.24981236E-01 0.74632124E+03</pdfrwt>
<totfact> 0.31571198E+01</totfact>
</mgrwt>
</event>
<event>
 4    1  0.2514307E-008  0.1313223E+04  0.7818608E-02  0.9054225E-01
         -1   -1    0    0    0  501 -0.00000000000E+00  0.00000000000E+00  0.57274119284E+03  0.57274119286E+03  0.50400000000E-02 0.  1.
          1   -1    0    0  501    0  0.00000000000E+00 -0.00000000000E+00 -0.32805454069E+04  0.32805454069E+04  0.50400000000E-02 0. -1.
    8880023    1    1    2    0    0  0.65172487042E+03  0.93059037626E+03 -0.57847702532E+03  0.14349876760E+04  0.65864270000E+03 0.  0.
    8880022    1    1    2    0    0 -0.65172487042E+03 -0.93059037626E+03 -0.21293271888E+04  0.24182989238E+04  0.15294330000E+03 0.  0.
<mgrwt>
<rscale>  0 0.12693571E+04</rscale>
<asrwt>0</asrwt>
<pdfrwt beam="1">  1        1 0.50469928E+00 0.13132227E+04</pdfrwt>
<pdfrwt beam="2">  1       -1 0.88114031E-01 0.13132227E+04</pdfrwt>
<totfact> 0.46099448E-01</totfact>
</mgrwt>
</event>
<event>
 4    1  0.2514307E-008  0.6791418E+03  0.7818608E-02  0.1009813E+00
          1   -1    0    0  501    0  0.00000000000E+00  0.00000000000E+00  0.16469964491E+04  0.16469964491E+04  0.50400000000E-02 0. -1.
         -1   -1    0    0    0  501 -0.00000000000E+00 -0.00000000000E+00 -0.16725936975E+03  0.16725936982E+03  0.50400000000E-02 0.  1.
    8880023    1    1    2    0    0 -0.30690111240E+02  0.16273130615E+03  0.60039914317E+03  0.90648369997E+03  0.65864270000E+03 0.  1.
    8880022    1    1    2    0    0  0.30690111240E+02 -0.16273130615E+03  0.87933793616E+03  0.90777211893E+03  0.15294330000E+03 0.  0.
<mgrwt>
<rscale>  0 0.51548893E+03</rscale>
<asrwt>0</asrwt>
<pdfrwt beam="1">  1        1 0.25338407E+00 0.67914179E+03</pdfrwt>
<pdfrwt beam="2">  1       -1 0.25732211E-01 0.67914179E+03</pdfrwt>
<totfact> 0.71424112E+01</totfact>
</mgrwt>
</event>
<event>
 4    1  0.2514307E-008  0.7419934E+03  0.7818608E-02  0.9854178E-01
          1   -1    0    0  501    0  0.00000000000E+00  0.00000000000E+00  0.20753045143E+03  0.20753045149E+03  0.50400000000E-02 0. -1.
         -1   -1    0    0    0  501 -0.00000000000E+00 -0.00000000000E+00 -0.18168134980E+04  0.18168134980E+04  0.50400000000E-02 0.  1.
    8880023    1    1    2    0    0  0.18461828692E+03  0.28750660501E+03 -0.14261001356E+04  0.16075807173E+04  0.65864270000E+03 0.  0.
    8880022    1    1    2    0    0 -0.18461828692E+03 -0.28750660501E+03 -0.18318291100E+03  0.41676323217E+03  0.15294330000E+03 0.  0.
<mgrwt>
<rscale>  0 0.62534342E+03</rscale>
<asrwt>0</asrwt>
<pdfrwt beam="1">  1        1 0.31927763E-01 0.74199337E+03</pdfrwt>
<pdfrwt beam="2">  1       -1 0.27950976E+00 0.74199337E+03</pdfrwt>
<totfact> 0.66204080E+00</totfact>
</mgrwt>
</event>
<event>
 4    1  0.2514307E-008  0.1472752E+04  0.7818608E-02  0.8929120E-01
          1   -1    0    0  501    0  0.00000000000E+00  0.00000000000E+00  0.17406328756E+04  0.17406328756E+04  0.50400000000E-02 0. -1.
         -1   -1    0    0    0  501 -0.00000000000E+00 -0.00000000000E+00 -0.19191539010E+04  0.19191539010E+04  0.50400000000E-02 0.  1.
    8880023    1    1    2    0    0  0.12273764655E+04 -0.47826353765E+03 -0.12680953033E+04  0.19434672377E+04  0.65864270000E+03 0.  0.
    8880022    1    1    2    0    0 -0.12273764655E+04  0.47826353765E+03  0.10895742779E+04  0.17163195389E+04  0.15294330000E+03 0.  0.
<mgrwt>
<rscale>  0 0.14346388E+04</rscale>
<asrwt>0</asrwt>
<pdfrwt beam="1">  1        1 0.26778967E+00 0.14727523E+04</pdfrwt>
<pdfrwt beam="2">  1       -1 0.29525445E+00 0.14727523E+04</pdfrwt>
<totfact> 0.15016493E-01</totfact>
</mgrwt>
</event>
<event>
 4    1  0.2514307E-008  0.1856926E+04  0.7818608E-02  0.8691684E-01
          1   -1    0    0  501    0  0.00000000000E+00  0.00000000000E+00  0.24508885658E+04  0.24508885658E+04  0.50400000000E-02 0. -1.
         -1   -1    0    0    0  501 -0.00000000000E+00 -0.00000000000E+00 -0.13950393032E+04  0.13950393032E+04  0.50400000000E-02 0.  1.
    8880023    1    1    2    0    0  0.16664742250E+04 -0.48705981806E+03  0.10353120289E+03  0.18598098089E+04  0.65864270000E+03 0.  0.
    8880022    1    1    2    0    0 -0.16664742250E+04  0.48705981806E+03  0.95231805967E+03  0.19861180601E+04  0.15294330000E+03 0.  0.
<mgrwt>
<rscale>  0 0.18277426E+04</rscale>
<asrwt>0</asrwt>
<pdfrwt beam="1">  1        1 0.37705977E+00 0.18569259E+04</pdfrwt>
<pdfrwt beam="2">  1       -1 0.21462144E+00 0.18569259E+04</pdfrwt>
<totfact> 0.15911679E-01</totfact>
</mgrwt>
</event>
<event>
 4    1  0.2514307E-008  0.8295915E+03  0.7818608E-02  0.9650128E-01
          1   -1    0    0  501    0  0.00000000000E+00  0.00000000000E+00  0.13698469883E+04  0.13698469883E+04  0.50400000000E-02 0. -1.
         -1   -1    0    0    0  501 -0.00000000000E+00 -0.00000000000E+00 -0.39145028451E+03  0.39145028454E+03  0.50400000000E-02 0.  1.
    8880023    1    1    2    0    0 -0.49495748948E+03 -0.97102809058E+02  0.25821470330E+03  0.86884803688E+03  0.65864270000E+03 0.  1.
    8880022    1    1    2    0    0  0.49495748948E+03  0.97102809058E+02  0.72018200044E+03  0.89244923592E+03  0.15294330000E+03 0.  0.
<mgrwt>
<rscale>  0 0.74065412E+03</rscale>
<asrwt>0</asrwt>
<pdfrwt beam="1">  1        1 0.21074569E+00 0.82959151E+03</pdfrwt>
<pdfrwt beam="2">  1       -1 0.60223121E-01 0.82959151E+03</pdfrwt>
<totfact> 0.23063193E+01</totfact>
</mgrwt>
</event>
<event>
 4    1  0.2514307E-008  0.7624655E+03  0.7818608E-02  0.9798766E-01
         -1   -1    0    0    0  501 -0.00000000000E+00  0.00000000000E+00  0.56371987132E+03  0.56371987134E+03  0.50400000000E-02 0.  1.
          1   -1    0    0  501    0  0.00000000000E+00 -0.00000000000E+00 -0.13387017812E+04  0.13387017812E+04  0.50400000000E-02 0. -1.
    8880023    1    1    2    0    0 -0.37051033228E+03 -0.10131879029E+03  0.24578705210E+03  0.80110229362E+03  0.65864270000E+03 0.  1.
    8880022    1    1    2    0    0  0.37051033228E+03  0.10131879029E+03 -0.10207689620E+04  0.11013193589E+04  0.15294330000E+03 0.  0.
<mgrwt>
<rscale>  0 0.65428812E+03</rscale>
<asrwt>0</asrwt>
<pdfrwt beam="1">  1        1 0.20595412E+00 0.76246548E+03</pdfrwt>
<pdfrwt beam="2">  1       -1 0.86726135E-01 0.76246548E+03</pdfrwt>
<totfact> 0.11499676E+01</totfact>
</mgrwt>
</event>
<event>
 4    1  0.2514307E-008  0.8763074E+03  0.7818608E-02  0.9565189E-01
         -1   -1    0    0    0  501 -0.00000000000E+00  0.00000000000E+00  0.10044438987E+04  0.10044438987E+04  0.50400000000E-02 0.  1.
          1   -1    0    0  501    0  0.00000000000E+00 -0.00000000000E+00 -0.10547699142E+04  0.10547699142E+04  0.50400000000E-02 0. -1.
    8880023    1    1    2    0    0  0.54867086525E+03  0.18183713073E+03 -0.73963332892E+03  0.11467223413E+04  0.65864270000E+03 0.  0.
    8880022    1    1    2    0    0 -0.54867086525E+03 -0.18183713073E+03  0.68930731340E+03  0.91249147164E+03  0.15294330000E+03 0.  0.
<mgrwt>
<rscale>  0 0.79643672E+03</rscale>
<asrwt>0</asrwt>
<pdfrwt beam="1">  1        1 0.16227229E+00 0.87630740E+03</pdfrwt>
<pdfrwt beam="2">  1       -1 0.15452983E+00 0.87630740E+03</pdfrwt>
<totfact> 0.44977793E+00</totfact>
</mgrwt>
</event>
<event>
 4    1  0.2514307E-008  0.7302256E+03  0.7818608E-02  0.9889392E-01
          1   -1    0    0  501    0  0.00000000000E+00  0.00000000000E+00  0.97971628711E+03  0.97971628712E+03  0.50400000000E-02 0. -1.
         -1   -1    0    0    0  501 -0.00000000000E+00 -0.00000000000E+00 -0.86981082186E+03  0.86981082187E+03  0.50400000000E-02 0.  1.
    8880023    1    1    2    0    0 -0.30479059438E+03 -0.80758226832E+02 -0.67219016927E+03  0.99250643703E+03  0.65864270000E+03 0.  1.
    8880022    1    1    2    0    0  0.30479059438E+03  0.80758226832E+02  0.78209563452E+03  0.85702067196E+03  0.15294330000E+03 0.  0.
<mgrwt>
<rscale>  0 0.60778136E+03</rscale>
<asrwt>0</asrwt>
<pdfrwt beam="1">  1        1 0.15072558E+00 0.73022558E+03</pdfrwt>
<pdfrwt beam="2">  1       -1 0.13381705E+00 0.73022558E+03</pdfrwt>
<totfact> 0.76680991E+00</totfact>
</mgrwt>
</event>
<event>
 4    1  0.2514307E-008  0.6732249E+03  0.7818608E-02  0.1013449E+00
         -1   -1    0    0    0  501 -0.00000000000E+00  0.00000000000E+00  0.92438583785E+03  0.92438583786E+03  0.50400000000E-02 0.  1.
          1   -1    0    0  501    0  0.00000000000E+00 -0.00000000000E+00 -0.52656496640E+03  0.52656496642E+03  0.50400000000E-02 0. -1.
    8880023    1    1    2    0    0 -0.10823878732E+03 -0.87783508430E+02  0.77142284501E+03  0.10238774299E+04  0.65864270000E+03 0.  1.
    8880022    1    1    2    0    0  0.10823878732E+03  0.87783508430E+02 -0.37360197356E+03  0.42707337437E+03  0.15294330000E+03 0.  0.
<mgrwt>
<rscale>  0 0.50126501E+03</rscale>
<asrwt>0</asrwt>
<pdfrwt beam="1">  1        1 0.81009996E-01 0.67322491E+03</pdfrwt>
<pdfrwt beam="2">  1       -1 0.14221320E+00 0.67322491E+03</pdfrwt>
<totfact> 0.17192604E+01</totfact>
</mgrwt>
</event>
<event>
 4    1  0.2514307E-008  0.6593646E+03  0.7818608E-02  0.1024817E+00
          1   -1    0    0  501    0  0.00000000000E+00  0.00000000000E+00  0.18659794283E+03  0.18659794290E+03  0.50400000000E-02 0. -1.
         -1   -1    0    0    0  501 -0.00000000000E+00 -0.00000000000E+00 -0.12643417055E+04  0.12643417055E+04  0.50400000000E-02 0.  1.
    8880023    1    1    2    0    0  0.85207621180E+01  0.29645386599E+02 -0.11105146221E+04  0.12915124407E+04  0.65864270000E+03 0.  0.
    8880022    1    1    2    0    0 -0.85207621180E+01 -0.29645386599E+02  0.32770859376E+02  0.15942720776E+03  0.15294330000E+03 0. -1.
<mgrwt>
<rscale>  0 0.45987649E+03</rscale>
<asrwt>0</asrwt>
<pdfrwt beam="1">  1        1 0.28707377E-01 0.65936459E+03</pdfrwt>
<pdfrwt beam="2">  1       -1 0.19451410E+00 0.65936459E+03</pdfrwt>
<totfact> 0.27652893E+01</totfact>
</mgrwt>
</event>
<event>
 4    1  0.2514307E-008  0.6696771E+03  0.7818608E-02  0.1015895E+00
         -1   -1    0    0    0  501 -0.00000000000E+00  0.00000000000E+00  0.12472612064E+04  0.12472612064E+04  0.50400000000E-02 0.  1.
          1   -1    0    0  501    0  0.00000000000E+00 -0.00000000000E+00 -0.19133777030E+04  0.19133777030E+04  0.50400000000E-02 0. -1.
    8880023    1    1    2    0    0  0.51720624152E+02  0.10946343310E+03  0.11517755613E+04  0.13323116813E+04  0.65864270000E+03 0.  1.
    8880022    1    1    2    0    0 -0.51720624152E+02 -0.10946343310E+03 -0.18178920579E+04  0.18283272281E+04  0.15294330000E+03 0.  0.
<mgrwt>
<rscale>  0 0.49197371E+03</rscale>
<asrwt>0</asrwt>
<pdfrwt beam="1">  1        1 0.29436580E+00 0.66967714E+03</pdfrwt>
<pdfrwt beam="2">  1       -1 0.19188634E+00 0.66967714E+03</pdfrwt>
<totfact> 0.63279638E-01</totfact>
</mgrwt>
</event>
<event>
 4    1  0.2514307E-008  0.1225634E+04  0.7818608E-02  0.9132598E-01
         -1   -1    0    0    0  501 -0.00000000000E+00  0.00000000000E+00  0.14410836528E+04  0.14410836528E+04  0.50400000000E-02 0.  1.
          1   -1    0    0  501    0  0.00000000000E+00 -0.00000000000E+00 -0.18457151289E+04  0.18457151289E+04  0.50400000000E-02 0. -1.
    8880023    1    1    2    0    0  0.98505969073E+03  0.31309137123E+03  0.96795108082E+03  0.15617644836E+04  0.65864270000E+03 0.  0.
    8880022    1    1    2    0    0 -0.98505969073E+03 -0.31309137123E+03 -0.13725825570E+04  0.17250342981E+04  0.15294330000E+03 0.  0.
<mgrwt>
<rscale>  0 0.11777051E+04</rscale>
<asrwt>0</asrwt>
<pdfrwt beam="1">  1        1 0.28395618E+00 0.12256341E+04</pdfrwt>
<pdfrwt beam="2">  1       -1 0.22170518E+00 0.12256341E+04</pdfrwt>
<totfact> 0.39742919E-01</totfact>
</mgrwt>
</event>
<event>
 4    1  0.2514307E-008  0.9871373E+03  0.7818608E-02  0.9398583E-01
         -1   -1    0    0    0  501 -0.00000000000E+00  0.00000000000E+00  0.18155350170E+04  0.18155350170E+04  0.50400000000E-02 0.  1.
          1   -1    0    0  501    0  0.00000000000E+00 -0.00000000000E+00 -0.13574334726E+04  0.13574334726E+04  0.50400000000E-02 0. -1.
    8880023    1    1    2    0    0 -0.23547752186E+02  0.73489813716E+03  0.15560423688E+04  0.18427446454E+04  0.65864270000E+03 0.  0.
    8880022    1    1    2    0    0  0.23547752186E+02 -0.73489813716E+03 -0.10979408244E+04  0.13302238442E+04  0.15294330000E+03 0.  0.
<mgrwt>
<rscale>  0 0.92192398E+03</rscale>
<asrwt>0</asrwt>
<pdfrwt beam="1">  1        1 0.20883592E+00 0.98713726E+03</pdfrwt>
<pdfrwt beam="2">  1       -1 0.27931308E+00 0.98713726E+03</pdfrwt>
<totfact> 0.37596461E-01</totfact>
</mgrwt>
</event>
<event>
 4    1  0.2514307E-008  0.7848034E+03  0.7818608E-02  0.9744672E-01
          1   -1    0    0  501    0  0.00000000000E+00  0.00000000000E+00  0.14270452411E+04  0.14270452411E+04  0.50400000000E-02 0. -1.
         -1   -1    0    0    0  501 -0.00000000000E+00 -0.00000000000E+00 -0.48331303780E+03  0.48331303783E+03  0.50400000000E-02 0.  1.
    8880023    1    1    2    0    0 -0.40999275156E+03  0.11837284709E+03 -0.81846911343E+02  0.78905976353E+03  0.65864270000E+03 0.  1.
    8880022    1    1    2    0    0  0.40999275156E+03 -0.11837284709E+03  0.10255791146E+04  0.11212985154E+04  0.15294330000E+03 0. -1.
<mgrwt>
<rscale>  0 0.68418188E+03</rscale>
<asrwt>0</asrwt>
<pdfrwt beam="1">  1        1 0.21954542E+00 0.78480341E+03</pdfrwt>
<pdfrwt beam="2">  1       -1 0.74355852E-01 0.78480341E+03</pdfrwt>
<totfact> 0.13801764E+01</totfact>
</mgrwt>
</event>
<event>
 4    1  0.2514307E-008  0.9567265E+03  0.7818608E-02  0.9440501E-01
          1   -1    0    0  501    0  0.00000000000E+00  0.00000000000E+00  0.10983605889E+04  0.10983605889E+04  0.50400000000E-02 0. -1.
         -1   -1    0    0    0  501 -0.00000000000E+00 -0.00000000000E+00 -0.27664016078E+04  0.27664016078E+04  0.50400000000E-02 0.  1.
    8880023    1    1    2    0    0  0.18012545833E+03  0.67012697093E+03 -0.25550142762E+04  0.27282638245E+04  0.65864270000E+03 0.  1.
    8880022    1    1    2    0    0 -0.18012545833E+03 -0.67012697093E+03  0.88697325731E+03  0.11364983722E+04  0.15294330000E+03 0.  0.
<mgrwt>
<rscale>  0 0.88816216E+03</rscale>
<asrwt>0</asrwt>
<pdfrwt beam="1">  1        1 0.16897855E+00 0.95672647E+03</pdfrwt>
<pdfrwt beam="2">  1       -1 0.42560025E+00 0.95672647E+03</pdfrwt>
<totfact> 0.62849257E-02</totfact>
</mgrwt>
</event>
<event>
 4    1  0.2514307E-008  0.1136964E+04  0.7818608E-02  0.9220976E-01
          1   -1    0    0  501    0  0.00000000000E+00  0.00000000000E+00  0.11283675447E+04  0.11283675447E+04  0.50400000000E-02 0. -1.
         -1   -1    0    0    0  501 -0.00000000000E+00 -0.00000000000E+00 -0.14352707189E+04  0.14352707189E+04  0.50400000000E-02 0.  1.
    8880023    1    1    2    0    0 -0.84275676815E+02  0.92291608879E+03 -0.90233944326E+03  0.14515175417E+04  0.65864270000E+03 0.  1.
    8880022    1    1    2    0    0  0.84275676815E+02 -0.92291608879E+03  0.59543626906E+03  0.11121207219E+04  0.15294330000E+03 0.  0.
<mgrwt>
<rscale>  0 0.10839520E+04</rscale>
<asrwt>0</asrwt>
<pdfrwt beam="1">  1        1 0.17359501E+00 0.11369638E+04</pdfrwt>
<pdfrwt beam="2">  1       -1 0.22081088E+00 0.11369638E+04</pdfrwt>
<totfact> 0.12963887E+00</totfact>
</mgrwt>
</event>
<event>
 4    1  0.2514307E-008  0.7047157E+03  0.7818608E-02  0.9978174E-01
          1   -1    0    0  501    0  0.00000000000E+00  0.00000000000E+00  0.13217295461E+04  0.13217295462E+04  0.50400000000E-02 0. -1.
         -1   -1    0    0    0  501 -0.00000000000E+00 -0.00000000000E+00 -0.99283574978E+03  0.99283574979E+03  0.50400000000E-02 0.  1.
    8880023    1    1    2    0    0  0.23821079987E+03 -0.77907870720E+02 -0.84742468093E+03  0.11021582543E+04  0.65864270000E+03 0.  1.
    8880022    1    1    2    0    0 -0.23821079987E+03  0.77907870720E+02  0.11763184773E+04  0.12124070416E+04  0.15294330000E+03 0.  0.
<mgrwt>
<rscale>  0 0.56617729E+03</rscale>
<asrwt>0</asrwt>
<pdfrwt beam="1">  1        1 0.20334301E+00 0.70471571E+03</pdfrwt>
<pdfrwt beam="2">  1       -1 0.15274396E+00 0.70471571E+03</pdfrwt>
<totfact> 0.30475397E+00</totfact>
</mgrwt>
</event>
<event>
 4    1  0.2514307E-008  0.7575906E+03  0.7818608E-02  0.9811386E-01
         -1   -1    0    0    0  501 -0.00000000000E+00  0.00000000000E+00  0.75782808794E+03  0.75782808796E+03  0.50400000000E-02 0.  1.
          1   -1    0    0  501    0  0.00000000000E+00 -0.00000000000E+00 -0.48905123890E+03  0.48905123893E+03  0.50400000000E-02 0. -1.
    8880023    1    1    2    0    0  0.15563563580E+03 -0.34045684127E+03  0.34981937041E+03  0.83445617625E+03  0.65864270000E+03 0.  1.
    8880022    1    1    2    0    0 -0.15563563580E+03  0.34045684127E+03 -0.81042521367E+02  0.41242315064E+03  0.15294330000E+03 0.  0.
<mgrwt>
<rscale>  0 0.64755094E+03</rscale>
<asrwt>0</asrwt>
<pdfrwt beam="1">  1        1 0.75238652E-01 0.75759060E+03</pdfrwt>
<pdfrwt beam="2">  1       -1 0.11658894E+00 0.75759060E+03</pdfrwt>
<totfact> 0.31042498E+01</totfact>
</mgrwt>
</event>
<event>
 4    1  0.2514307E-008  0.7719198E+03  0.7818608E-02  0.9775172E-01
          1   -1    0    0  501    0  0.00000000000E+00  0.00000000000E+00  0.12307082498E+04  0.12307082498E+04  0.50400000000E-02 0. -1.
         -1   -1    0    0    0  501 -0.00000000000E+00 -0.00000000000E+00 -0.80124100286E+03  0.80124100287E+03  0.50400000000E-02 0.  1.
    8880023    1    1    2    0    0  0.11246710810E+03 -0.38652444795E+03 -0.55945408657E+03  0.95333576483E+03  0.65864270000E+03 0.  1.
    8880022    1    1    2    0    0 -0.11246710810E+03  0.38652444795E+03  0.98892133353E+03  0.10786134879E+04  0.15294330000E+03 0.  0.
<mgrwt>
<rscale>  0 0.66712168E+03</rscale>
<asrwt>0</asrwt>
<pdfrwt beam="1">  1        1 0.18933973E+00 0.77191982E+03</pdfrwt>
<pdfrwt beam="2">  1       -1 0.12326785E+00 0.77191982E+03</pdfrwt>
<totfact> 0.60799170E+00</totfact>
</mgrwt>
</event>
<event>
 4    1  0.2514307E-008  0.1934125E+04  0.7818608E-02  0.8651760E-01
          1   -1    0    0  501    0  0.00000000000E+00  0.00000000000E+00  0.25802756790E+04  0.25802756790E+04  0.50400000000E-02 0. -1.
         -1   -1    0    0    0  501 -0.00000000000E+00 -0.00000000000E+00 -0.15254953391E+04  0.15254953391E+04  0.50400000000E-02 0.  1.
    8880023    1    1    2    0    0  0.17624444228E+04 -0.44812977199E+03 -0.11592819009E+03  0.19375964976E+04  0.65864270000E+03 0.  0.
    8880022    1    1    2    0    0 -0.17624444228E+04  0.44812977199E+03  0.11707085300E+04  0.21681745205E+04  0.15294330000E+03 0.  0.
<mgrwt>
<rscale>  0 0.19062325E+04</rscale>
<asrwt>0</asrwt>
<pdfrwt beam="1">  1        1 0.39696549E+00 0.19341253E+04</pdfrwt>
<pdfrwt beam="2">  1       -1 0.23469159E+00 0.19341253E+04</pdfrwt>
<totfact> 0.94033520E-02</totfact>
</mgrwt>
</event>
<event>
 4    1  0.2514307E-008  0.9815215E+03  0.7818608E-02  0.9406143E-01
         -1   -1    0    0    0  501 -0.00000000000E+00  0.00000000000E+00  0.61263946607E+03  0.61263946609E+03  0.50400000000E-02 0.  1.
          1   -1    0    0  501    0  0.00000000000E+00 -0.00000000000E+00 -0.12879269811E+04  0.12879269811E+04  0.50400000000E-02 0. -1.
    8880023    1    1    2    0    0  0.32871006875E+03 -0.64924880046E+03 -0.15663100846E+03  0.99394053809E+03  0.65864270000E+03 0.  0.
    8880022    1    1    2    0    0 -0.32871006875E+03  0.64924880046E+03 -0.51865650653E+03  0.90662590906E+03  0.15294330000E+03 0.  0.
<mgrwt>
<rscale>  0 0.91571889E+03</rscale>
<asrwt>0</asrwt>
<pdfrwt beam="1">  1        1 0.19814261E+00 0.98152153E+03</pdfrwt>
<pdfrwt beam="2">  1       -1 0.94252226E-01 0.98152153E+03</pdfrwt>
<totfact> 0.10118742E+01</totfact>
</mgrwt>
</event>
<event>
 4    1  0.2514307E-008  0.7859151E+03  0.7818608E-02  0.9742121E-01
          1   -1    0    0  501    0  0.00000000000E+00  0.00000000000E+00  0.72340372116E+03  0.72340372118E+03  0.50400000000E-02 0. -1.
         -1   -1    0    0    0  501 -0.00000000000E+00 -0.00000000000E+00 -0.96526882805E+03  0.96526882806E+03  0.50400000000E-02 0.  1.
    8880023    1    1    2    0    0  0.27167796087E+03 -0.33172785025E+03 -0.69296268455E+03  0.10477880365E+04  0.65864270000E+03 0.  1.
    8880022    1    1    2    0    0 -0.27167796087E+03  0.33172785025E+03  0.45109757766E+03  0.64088451271E+03  0.15294330000E+03 0.  0.
<mgrwt>
<rscale>  0 0.68563336E+03</rscale>
<asrwt>0</asrwt>
<pdfrwt beam="1">  1        1 0.11129288E+00 0.78591506E+03</pdfrwt>
<pdfrwt beam="2">  1       -1 0.14850290E+00 0.78591506E+03</pdfrwt>
<totfact> 0.95306018E+00</totfact>
</mgrwt>
</event>
<event>
 4    1  0.2514307E-008  0.8205199E+03  0.7818608E-02  0.9668067E-01
          1   -1    0    0  501    0  0.00000000000E+00  0.00000000000E+00  0.15949067259E+04  0.15949067259E+04  0.50400000000E-02 0. -1.
         -1   -1    0    0    0  501 -0.00000000000E+00 -0.00000000000E+00 -0.46724582255E+03  0.46724582257E+03  0.50400000000E-02 0.  1.
    8880023    1    1    2    0    0 -0.38788239865E+03 -0.29831186932E+03 -0.31803359742E+01  0.82052607963E+03  0.65864270000E+03 0.  0.
    8880022    1    1    2    0    0  0.38788239865E+03  0.29831186932E+03  0.11308412393E+04  0.12416264688E+04  0.15294330000E+03 0. -1.
<mgrwt>
<rscale>  0 0.72950306E+03</rscale>
<asrwt>0</asrwt>
<pdfrwt beam="1">  1        1 0.24537027E+00 0.82051992E+03</pdfrwt>
<pdfrwt beam="2">  1       -1 0.71883972E-01 0.82051992E+03</pdfrwt>
<totfact> 0.11303763E+01</totfact>
</mgrwt>
</event>
<event>
 4    1  0.2514307E-008  0.1230394E+04  0.7818608E-02  0.9128129E-01
         -1   -1    0    0    0  501 -0.00000000000E+00  0.00000000000E+00  0.12813927479E+04  0.12813927479E+04  0.50400000000E-02 0.  1.
          1   -1    0    0  501    0  0.00000000000E+00 -0.00000000000E+00 -0.26514644088E+04  0.26514644088E+04  0.50400000000E-02 0. -1.
    8880023    1    1    2    0    0  0.10374276373E+04 -0.61674296725E+02  0.83731054371E+03  0.14882738237E+04  0.65864270000E+03 0.  0.
    8880022    1    1    2    0    0 -0.10374276373E+04  0.61674296725E+02 -0.22073822046E+04  0.24445833329E+04  0.15294330000E+03 0.  0.
<mgrwt>
<rscale>  0 0.11827076E+04</rscale>
<asrwt>0</asrwt>
<pdfrwt beam="1">  1        1 0.40791760E+00 0.12303943E+04</pdfrwt>
<pdfrwt beam="2">  1       -1 0.19713735E+00 0.12303943E+04</pdfrwt>
<totfact> 0.16433945E-01</totfact>
</mgrwt>
</event>
<event>
 4    1  0.2514307E-008  0.8047028E+03  0.7818608E-02  0.9700718E-01
          1   -1    0    0  501    0  0.00000000000E+00  0.00000000000E+00  0.18242636899E+04  0.18242636899E+04  0.50400000000E-02 0. -1.
         -1   -1    0    0    0  501 -0.00000000000E+00 -0.00000000000E+00 -0.10108598056E+04  0.10108598056E+04  0.50400000000E-02 0.  1.
    8880023    1    1    2    0    0  0.46022788955E+03 -0.43894317035E+02 -0.80909107080E+03  0.11411288220E+04  0.65864270000E+03 0.  1.
    8880022    1    1    2    0    0 -0.46022788955E+03  0.43894317035E+02  0.16224949551E+04  0.16939946735E+04  0.15294330000E+03 0.  0.
<mgrwt>
<rscale>  0 0.70974038E+03</rscale>
<asrwt>0</asrwt>
<pdfrwt beam="1">  1        1 0.28065595E+00 0.80470282E+03</pdfrwt>
<pdfrwt beam="2">  1       -1 0.15551689E+00 0.80470282E+03</pdfrwt>
<totfact> 0.12935252E+00</totfact>
</mgrwt>
</event>
<event>
 4    1  0.2514307E-008  0.7333527E+03  0.7818608E-02  0.9879751E-01
          1   -1    0    0  501    0  0.00000000000E+00  0.00000000000E+00  0.18122204730E+04  0.18122204731E+04  0.50400000000E-02 0. -1.
         -1   -1    0    0    0  501 -0.00000000000E+00 -0.00000000000E+00 -0.34685077102E+03  0.34685077105E+03  0.50400000000E-02 0.  1.
    8880023    1    1    2    0    0  0.32236421700E+03 -0.87908699303E+01  0.90838445973E+02  0.73895723647E+03  0.65864270000E+03 0.  0.
    8880022    1    1    2    0    0 -0.32236421700E+03  0.87908699303E+01  0.13745312561E+04  0.14201140076E+04  0.15294330000E+03 0.  0.
<mgrwt>
<rscale>  0 0.61252747E+03</rscale>
<asrwt>0</asrwt>
<pdfrwt beam="1">  1        1 0.27880315E+00 0.73335269E+03</pdfrwt>
<pdfrwt beam="2">  1       -1 0.53361656E-01 0.73335269E+03</pdfrwt>
<totfact> 0.14770126E+01</totfact>
</mgrwt>
</event>
<event>
 4    1  0.2514307E-008  0.7175192E+03  0.7818608E-02  0.9931071E-01
         -1   -1    0    0    0  501 -0.00000000000E+00  0.00000000000E+00  0.67948712373E+03  0.67948712374E+03  0.50400000000E-02 0.  1.
          1   -1    0    0  501    0  0.00000000000E+00 -0.00000000000E+00 -0.21355706893E+04  0.21355706893E+04  0.50400000000E-02 0. -1.
    8880023    1    1    2    0    0  0.25628083452E+03  0.12386968253E+03  0.47280560234E+03  0.85928976967E+03  0.65864270000E+03 0.  1.
    8880022    1    1    2    0    0 -0.25628083452E+03 -0.12386968253E+03 -0.19288891679E+04  0.19557680434E+04  0.15294330000E+03 0.  0.
<mgrwt>
<rscale>  0 0.58778786E+03</rscale>
<asrwt>0</asrwt>
<pdfrwt beam="1">  1        1 0.32854933E+00 0.71751918E+03</pdfrwt>
<pdfrwt beam="2">  1       -1 0.10453648E+00 0.71751918E+03</pdfrwt>
<totfact> 0.22047895E+00</totfact>
</mgrwt>
</event>
<event>
 4    1  0.2514307E-008  0.1083476E+04  0.7818608E-02  0.9279680E-01
         -1   -1    0    0    0  501 -0.00000000000E+00  0.00000000000E+00  0.21657481963E+04  0.21657481963E+04  0.50400000000E-02 0.  1.
          1   -1    0    0  501    0  0.00000000000E+00 -0.00000000000E+00 -0.55975928023E+03  0.55975928025E+03  0.50400000000E-02 0. -1.
    8880023    1    1    2    0    0  0.85813241718E+03 -0.60988736745E+02  0.14926064906E+04  0.18443956228E+04  0.65864270000E+03 0.  1.
    8880022    1    1    2    0    0 -0.85813241718E+03  0.60988736745E+02  0.11338242550E+03  0.88111185377E+03  0.15294330000E+03 0.  0.
<mgrwt>
<rscale>  0 0.10267528E+04</rscale>
<asrwt>0</asrwt>
<pdfrwt beam="1">  1        1 0.86116811E-01 0.10834764E+04</pdfrwt>
<pdfrwt beam="2">  1       -1 0.33319204E+00 0.10834764E+04</pdfrwt>
<totfact> 0.76425116E-01</totfact>
</mgrwt>
</event>
<event>
 4    1  0.2514307E-008  0.6772322E+03  0.7818608E-02  0.1010935E+00
         -1   -1    0    0    0  501 -0.00000000000E+00  0.00000000000E+00  0.12555043724E+04  0.12555043724E+04  0.50400000000E-02 0.  1.
          1   -1    0    0  501    0  0.00000000000E+00 -0.00000000000E+00 -0.64160111168E+03  0.64160111170E+03  0.50400000000E-02 0. -1.
    8880023    1    1    2    0    0  0.15750494350E+03 -0.50401200341E+01  0.11405765083E+04  0.13264833914E+04  0.65864270000E+03 0.  1.
    8880022    1    1    2    0    0 -0.15750494350E+03  0.50401200341E+01 -0.52667324756E+03  0.57062209276E+03  0.15294330000E+03 0.  0.
<mgrwt>
<rscale>  0 0.51104843E+03</rscale>
<asrwt>0</asrwt>
<pdfrwt beam="1">  1        1 0.98707865E-01 0.67723217E+03</pdfrwt>
<pdfrwt beam="2">  1       -1 0.19315452E+00 0.67723217E+03</pdfrwt>
<totfact> 0.54589532E+00</totfact>
</mgrwt>
</event>
<event>
 4    1  0.2514307E-008  0.7917272E+03  0.7818608E-02  0.9728978E-01
          1   -1    0    0  501    0  0.00000000000E+00  0.00000000000E+00  0.17118658397E+04  0.17118658397E+04  0.50400000000E-02 0. -1.
         -1   -1    0    0    0  501 -0.00000000000E+00 -0.00000000000E+00 -0.29844028239E+03  0.29844028243E+03  0.50400000000E-02 0.  1.
    8880023    1    1    2    0    0  0.12112720457E+03 -0.42231493649E+03  0.38250649813E+03  0.87928558083E+03  0.65864270000E+03 0.  0.
    8880022    1    1    2    0    0 -0.12112720457E+03  0.42231493649E+03  0.10309190592E+04  0.11310205413E+04  0.15294330000E+03 0.  0.
<mgrwt>
<rscale>  0 0.69317385E+03</rscale>
<asrwt>0</asrwt>
<pdfrwt beam="1">  1        1 0.26336398E+00 0.79172717E+03</pdfrwt>
<pdfrwt beam="2">  1       -1 0.45913889E-01 0.79172717E+03</pdfrwt>
<totfact> 0.22740584E+01</totfact>
</mgrwt>
</event>
<event>
 4    1  0.2514307E-008  0.7175204E+03  0.7818608E-02  0.9931067E-01
          1   -1    0    0  501    0  0.00000000000E+00  0.00000000000E+00  0.11873200226E+04  0.11873200227E+04  0.50400000000E-02 0. -1.
         -1   -1    0    0    0  501 -0.00000000000E+00 -0.00000000000E+00 -0.65119292653E+03  0.65119292655E+03  0.50400000000E-02 0.  1.
    8880023    1    1    2    0    0  0.28061907437E+03 -0.47731357045E+02 -0.41852044396E+03  0.83065932585E+03  0.65864270000E+03 0.  1.
    8880022    1    1    2    0    0 -0.28061907437E+03  0.47731357045E+02  0.95464754007E+03  0.10078536234E+04  0.15294330000E+03 0.  0.
<mgrwt>
<rscale>  0 0.58778987E+03</rscale>
<asrwt>0</asrwt>
<pdfrwt beam="1">  1        1 0.18266462E+00 0.71752042E+03</pdfrwt>
<pdfrwt beam="2">  1       -1 0.10018353E+00 0.71752042E+03</pdfrwt>
<totfact> 0.10765310E+01</totfact>
</mgrwt>
</event>
<event>
 4    1  0.2514307E-008  0.9380513E+03  0.7818608E-02  0.9467518E-01
          1   -1    0    0  501    0  0.00000000000E+00  0.00000000000E+00  0.13208586183E+04  0.13208586184E+04  0.50400000000E-02 0. -1.
         -1   -1    0    0    0  501 -0.00000000000E+00 -0.00000000000E+00 -0.14290620633E+04  0.14290620633E+04  0.50400000000E-02 0.  1.
    8880023    1    1    2    0    0 -0.51752660576E+03  0.42225136445E+03 -0.11617256406E+04  0.14931666594E+04  0.65864270000E+03 0.  0.
    8880022    1    1    2    0    0  0.51752660576E+03 -0.42225136445E+03  0.10535221957E+04  0.12567540222E+04  0.15294330000E+03 0. -1.
<mgrwt>
<rscale>  0 0.86721522E+03</rscale>
<asrwt>0</asrwt>
<pdfrwt beam="1">  1        1 0.20320902E+00 0.93805128E+03</pdfrwt>
<pdfrwt beam="2">  1       -1 0.21985570E+00 0.93805128E+03</pdfrwt>
<totfact> 0.98035498E-01</totfact>
</mgrwt>
</event>
<event>
 4    1  0.2514307E-008  0.8867202E+03  0.7818608E-02  0.9547695E-01
          1   -1    0    0  501    0  0.00000000000E+00  0.00000000000E+00  0.12180980391E+04  0.12180980391E+04  0.50400000000E-02 0. -1.
         -1   -1    0    0    0  501 -0.00000000000E+00 -0.00000000000E+00 -0.84447817783E+03  0.84447817784E+03  0.50400000000E-02 0.  1.
    8880023    1    1    2    0    0 -0.58668524027E+03 -0.90901152498E+02 -0.48256831332E+03  0.10095271041E+04  0.65864270000E+03 0.  1.
    8880022    1    1    2    0    0  0.58668524027E+03  0.90901152498E+02  0.85618817457E+03  0.10530491128E+04  0.15294330000E+03 0.  0.
<mgrwt>
<rscale>  0 0.80856959E+03</rscale>
<asrwt>0</asrwt>
<pdfrwt beam="1">  1        1 0.18739970E+00 0.88672025E+03</pdfrwt>
<pdfrwt beam="2">  1       -1 0.12991972E+00 0.88672025E+03</pdfrwt>
<totfact> 0.53575766E+00</totfact>
</mgrwt>
</event>
<event>
 4    1  0.2514307E-008  0.7489660E+03  0.7818608E-02  0.9834560E-01
          1   -1    0    0  501    0  0.00000000000E+00  0.00000000000E+00  0.18820749970E+04  0.18820749970E+04  0.50400000000E-02 0. -1.
         -1   -1    0    0    0  501 -0.00000000000E+00 -0.00000000000E+00 -0.64992765753E+03  0.64992765755E+03  0.50400000000E-02 0.  1.
    8880023    1    1    2    0    0  0.24619332627E+03  0.25793147160E+03 -0.40365681142E+03  0.85081656402E+03  0.65864270000E+03 0.  1.
    8880022    1    1    2    0    0 -0.24619332627E+03 -0.25793147160E+03  0.16358041509E+04  0.16811860906E+04  0.15294330000E+03 0.  0.
<mgrwt>
<rscale>  0 0.63540403E+03</rscale>
<asrwt>0</asrwt>
<pdfrwt beam="1">  1        1 0.28955000E+00 0.74896596E+03</pdfrwt>
<pdfrwt beam="2">  1       -1 0.99988872E-01 0.74896596E+03</pdfrwt>
<totfact> 0.35859381E+00</totfact>
</mgrwt>
</event>
<event>
 4    1  0.2514307E-008  0.1028731E+04  0.7818608E-02  0.9344897E-01
         -1   -1    0    0    0  501 -0.00000000000E+00  0.00000000000E+00  0.70809507632E+03  0.70809507634E+03  0.50400000000E-02 0.  1.
          1   -1    0    0  501    0  0.00000000000E+00 -0.00000000000E+00 -0.18139587654E+04  0.18139587654E+04  0.50400000000E-02 0. -1.
    8880023    1    1    2    0    0  0.63328390401E+03 -0.47268316101E+03  0.14059970332E+03  0.10382949276E+04  0.65864270000E+03 0.  0.
    8880022    1    1    2    0    0 -0.63328390401E+03  0.47268316101E+03 -0.12464633924E+04  0.14837589142E+04  0.15294330000E+03 0.  0.
<mgrwt>
<rscale>  0 0.96752547E+03</rscale>
<asrwt>0</asrwt>
<pdfrwt beam="1">  1        1 0.27907058E+00 0.10287313E+04</pdfrwt>
<pdfrwt beam="2">  1       -1 0.10893770E+00 0.10287313E+04</pdfrwt>
<totfact> 0.31278631E+00</totfact>
</mgrwt>
</event>
<event>
 4    1  0.2514307E-008  0.8636797E+03  0.7818608E-02  0.9587051E-01
          1   -1    0    0  501    0  0.00000000000E+00  0.00000000000E+00  0.58324516898E+03  0.58324516900E+03  0.50400000000E-02 0. -1.
         -1   -1    0    0    0  501 -0.00000000000E+00 -0.00000000000E+00 -0.97546299280E+03  0.97546299282E+03  0.50400000000E-02 0.  1.
    8880023    1    1    2    0    0  0.42654272474E+03  0.36082364353E+03 -0.81778349974E+01  0.86371840377E+03  0.65864270000E+03 0. -1.
    8880022    1    1    2    0    0 -0.42654272474E+03 -0.36082364353E+03 -0.38403998882E+03  0.69498975805E+03  0.15294330000E+03 0.  0.
<mgrwt>
<rscale>  0 0.78159179E+03</rscale>
<asrwt>0</asrwt>
<pdfrwt beam="1">  1        1 0.89730026E-01 0.86367969E+03</pdfrwt>
<pdfrwt beam="2">  1       -1 0.15007123E+00 0.86367969E+03</pdfrwt>
<totfact> 0.12629268E+01</totfact>
</mgrwt>
</event>
<event>
 4    1  0.2514307E-008  0.7688376E+03  0.7818608E-02  0.9782743E-01
          1   -1    0    0  501    0  0.00000000000E+00  0.00000000000E+00  0.32649637291E+03  0.32649637295E+03  0.50400000000E-02 0. -1.
         -1   -1    0    0    0  501 -0.00000000000E+00 -0.00000000000E+00 -0.17921933387E+04  0.17921933387E+04  0.50400000000E-02 0.  1.
    8880023    1    1    2    0    0 -0.14919685090E+03  0.36747979639E+03 -0.21589205255E+03  0.79857415792E+03  0.65864270000E+03 0.  0.
    8880022    1    1    2    0    0  0.14919685090E+03 -0.36747979639E+03 -0.12498049133E+04  0.13201155538E+04  0.15294330000E+03 0.  0.
<mgrwt>
<rscale>  0 0.66296953E+03</rscale>
<asrwt>0</asrwt>
<pdfrwt beam="1">  1        1 0.50230212E-01 0.76883763E+03</pdfrwt>
<pdfrwt beam="2">  1       -1 0.27572205E+00 0.76883763E+03</pdfrwt>
<totfact> 0.38759615E+00</totfact>
</mgrwt>
</event>
<event>
 4    1  0.2514307E-008  0.9353023E+03  0.7818608E-02  0.9471584E-01
          1   -1    0    0  501    0  0.00000000000E+00  0.00000000000E+00  0.70315985953E+03  0.70315985955E+03  0.50400000000E-02 0. -1.
         -1   -1    0    0    0  501 -0.00000000000E+00 -0.00000000000E+00 -0.20377172318E+04  0.20377172318E+04  0.50400000000E-02 0.  1.
    8880023    1    1    2    0    0 -0.56820743441E+03  0.34368655352E+03 -0.17200876370E+04  0.19579304944E+04  0.65864270000E+03 0.  1.
    8880022    1    1    2    0    0  0.56820743441E+03 -0.34368655352E+03  0.38553026478E+03  0.78294659694E+03  0.15294330000E+03 0.  0.
<mgrwt>
<rscale>  0 0.86411635E+03</rscale>
<asrwt>0</asrwt>
<pdfrwt beam="1">  1        1 0.10817844E+00 0.93530227E+03</pdfrwt>
<pdfrwt beam="2">  1       -1 0.31349496E+00 0.93530227E+03</pdfrwt>
<totfact> 0.74897533E-01</totfact>
</mgrwt>
</event>
<event>
 4    1  0.2514307E-008  0.1027736E+04  0.7818608E-02  0.9346137E-01
         -1   -1    0    0    0  501 -0.00000000000E+00  0.00000000000E+00  0.10838807849E+04  0.10838807849E+04  0.50400000000E-02 0.  1.
          1   -1    0    0  501    0  0.00000000000E+00 -0.00000000000E+00 -0.13964049338E+04  0.13964049338E+04  0.50400000000E-02 0. -1.
    8880023    1    1    2    0    0 -0.19948913915E+03  0.76330540690E+03  0.65792381631E+03  0.12202889064E+04  0.65864270000E+03 0.  0.
    8880022    1    1    2    0    0  0.19948913915E+03 -0.76330540690E+03 -0.97044796518E+03  0.12599968123E+04  0.15294330000E+03 0.  0.
<mgrwt>
<rscale>  0 0.96644098E+03</rscale>
<asrwt>0</asrwt>
<pdfrwt beam="1">  1        1 0.21483153E+00 0.10277360E+04</pdfrwt>
<pdfrwt beam="2">  1       -1 0.16675089E+00 0.10277360E+04</pdfrwt>
<totfact> 0.20121431E+00</totfact>
</mgrwt>
</event>
<event>
 4    1  0.2514307E-008  0.6985977E+03  0.7818608E-02  0.1000307E+00
         -1   -1    0    0    0  501 -0.00000000000E+00  0.00000000000E+00  0.88240994732E+03  0.88240994733E+03  0.50400000000E-02 0.  1.
          1   -1    0    0  501    0  0.00000000000E+00 -0.00000000000E+00 -0.10800500045E+04  0.10800500045E+04  0.50400000000E-02 0. -1.
    8880023    1    1    2    0    0 -0.18876760622E+03  0.13636450218E+03  0.72014601182E+03  0.10033189778E+04  0.65864270000E+03 0.  0.
    8880022    1    1    2    0    0  0.18876760622E+03 -0.13636450218E+03 -0.91778606896E+03  0.95914097399E+03  0.15294330000E+03 0.  0.
<mgrwt>
<rscale>  0 0.55515870E+03</rscale>
<asrwt>0</asrwt>
<pdfrwt beam="1">  1        1 0.16616154E+00 0.69859766E+03</pdfrwt>
<pdfrwt beam="2">  1       -1 0.13575538E+00 0.69859766E+03</pdfrwt>
<totfact> 0.62251096E+00</totfact>
</mgrwt>
</event>
<event>
 4    1  0.2514307E-008  0.6755767E+03  0.7818608E-02  0.1011945E+00
          1   -1    0    0  501    0  0.00000000000E+00  0.00000000000E+00  0.97170174845E+03  0.97170174846E+03  0.50400000000E-02 0. -1.
         -1   -1    0    0    0  501 -0.00000000000E+00 -0.00000000000E+00 -0.81270043601E+03  0.81270043603E+03  0.50400000000E-02 0.  1.
    8880023    1    1    2    0    0 -0.67268860552E+02  0.13441962351E+03 -0.65599543476E+03  0.94166551996E+03  0.65864270000E+03 0.  1.
    8880022    1    1    2    0    0  0.67268860552E+02 -0.13441962351E+03  0.81499674720E+03  0.84273666453E+03  0.15294330000E+03 0.  0.
<mgrwt>
<rscale>  0 0.50708820E+03</rscale>
<asrwt>0</asrwt>
<pdfrwt beam="1">  1        1 0.14949258E+00 0.67557675E+03</pdfrwt>
<pdfrwt beam="2">  1       -1 0.12503084E+00 0.67557675E+03</pdfrwt>
<totfact> 0.93017893E+00</totfact>
</mgrwt>
</event>
<event>
 4    1  0.2514307E-008  0.7718768E+03  0.7818608E-02  0.9775277E-01
         -1   -1    0    0    0  501 -0.00000000000E+00  0.00000000000E+00  0.25251376933E+03  0.25251376939E+03  0.50400000000E-02 0.  1.
          1   -1    0    0  501    0  0.00000000000E+00 -0.00000000000E+00 -0.35681511802E+04  0.35681511802E+04  0.50400000000E-02 0. -1.
    8880023    1    1    2    0    0  0.16387263123E+03 -0.36759939438E+03 -0.39240559751E+03  0.86589601756E+03  0.65864270000E+03 0.  1.
    8880022    1    1    2    0    0 -0.16387263123E+03  0.36759939438E+03 -0.29232318133E+04  0.29547689320E+04  0.15294330000E+03 0.  0.
<mgrwt>
<rscale>  0 0.66706390E+03</rscale>
<asrwt>0</asrwt>
<pdfrwt beam="1">  1        1 0.54894630E+00 0.77187678E+03</pdfrwt>
<pdfrwt beam="2">  1       -1 0.38848275E-01 0.77187678E+03</pdfrwt>
<totfact> 0.15376100E+00</totfact>
</mgrwt>
</event>
<event>
 4    1  0.2514307E-008  0.1114858E+04  0.7818608E-02  0.9244691E-01
         -1   -1    0    0    0  501 -0.00000000000E+00  0.00000000000E+00  0.18603201098E+04  0.18603201098E+04  0.50400000000E-02 0.  1.
          1   -1    0    0  501    0  0.00000000000E+00 -0.00000000000E+00 -0.78134012129E+03  0.78134012130E+03  0.50400000000E-02 0. -1.
    8880023    1    1    2    0    0  0.66809678030E+03  0.60228274292E+03  0.12901754862E+04  0.17051277963E+04  0.65864270000E+03 0.  0.
    8880022    1    1    2    0    0 -0.66809678030E+03 -0.60228274292E+03 -0.21119549764E+03  0.93653243484E+03  0.15294330000E+03 0.  0.
<mgrwt>
<rscale>  0 0.10603811E+04</rscale>
<asrwt>0</asrwt>
<pdfrwt beam="1">  1        1 0.12020617E+00 0.11148578E+04</pdfrwt>
<pdfrwt beam="2">  1       -1 0.28620309E+00 0.11148578E+04</pdfrwt>
<totfact> 0.92837697E-01</totfact>
</mgrwt>
</event>
<event>
 4    1  0.2514307E-008  0.7408455E+03  0.7818608E-02  0.9857491E-01
          1   -1    0    0  501    0  0.00000000000E+00  0.00000000000E+00  0.14375272759E+04  0.14375272759E+04  0.50400000000E-02 0. -1.
         -1   -1    0    0    0  501 -0.00000000000E+00 -0.00000000000E+00 -0.26726018094E+03  0.26726018099E+03  0.50400000000E-02 0.  1.
    8880023    1    1    2    0    0  0.33042193618E+03  0.76571352400E+02  0.38291809958E+03  0.83395341906E+03  0.65864270000E+03 0.  1.
    8880022    1    1    2    0    0 -0.33042193618E+03 -0.76571352400E+02  0.78734899536E+03  0.87083403782E+03  0.15294330000E+03 0.  0.
<mgrwt>
<rscale>  0 0.62366428E+03</rscale>
<asrwt>0</asrwt>
<pdfrwt beam="1">  1        1 0.22115804E+00 0.74084549E+03</pdfrwt>
<pdfrwt beam="2">  1       -1 0.41116951E-01 0.74084549E+03</pdfrwt>
<totfact> 0.43111683E+01</totfact>
</mgrwt>
</event>
<event>
 4    1  0.2514307E-008  0.8167450E+03  0.7818608E-02  0.9675695E-01
         -1   -1    0    0    0  501 -0.00000000000E+00  0.00000000000E+00  0.37842871947E+03  0.37842871950E+03  0.50400000000E-02 0.  1.
          1   -1    0    0  501    0  0.00000000000E+00 -0.00000000000E+00 -0.20007410207E+04  0.20007410207E+04  0.50400000000E-02 0. -1.
    8880023    1    1    2    0    0  0.28909855895E+03  0.38689039518E+03 -0.16090678896E+03  0.83244420574E+03  0.65864270000E+03 0.  1.
    8880022    1    1    2    0    0 -0.28909855895E+03 -0.38689039518E+03 -0.14614055123E+04  0.15467255345E+04  0.15294330000E+03 0.  0.
<mgrwt>
<rscale>  0 0.72482526E+03</rscale>
<asrwt>0</asrwt>
<pdfrwt beam="1">  1        1 0.30780631E+00 0.81674498E+03</pdfrwt>
<pdfrwt beam="2">  1       -1 0.58219804E-01 0.81674498E+03</pdfrwt>
<totfact> 0.92159095E+00</totfact>
</mgrwt>
</event>
<event>
 4    1  0.2514307E-008  0.7380605E+03  0.7818608E-02  0.9865633E-01
          1   -1    0    0  501    0  0.00000000000E+00  0.00000000000E+00  0.38616072825E+03  0.38616072829E+03  0.50400000000E-02 0. -1.
         -1   -1    0    0    0  501 -0.00000000000E+00 -0.00000000000E+00 -0.18555783195E+04  0.18555783195E+04  0.50400000000E-02 0.  1.
    8880023    1    1    2    0    0 -0.29502039722E+03 -0.15455133139E+03 -0.16686547724E+04  0.18245936820E+04  0.65864270000E+03 0.  1.
    8880022    1    1    2    0    0  0.29502039722E+03  0.15455133139E+03  0.19923718115E+03  0.41714536576E+03  0.15294330000E+03 0.  0.
<mgrwt>
<rscale>  0 0.61956157E+03</rscale>
<asrwt>0</asrwt>
<pdfrwt beam="1">  1        1 0.59409344E-01 0.73806054E+03</pdfrwt>
<pdfrwt beam="2">  1       -1 0.28547358E+00 0.73806054E+03</pdfrwt>
<totfact> 0.27072419E+00</totfact>
</mgrwt>
</event>
<event>
 4    1  0.2514307E-008  0.1198375E+04  0.7818608E-02  0.9158704E-01
          1   -1    0    0  501    0  0.00000000000E+00  0.00000000000E+00  0.18126713347E+04  0.18126713348E+04  0.50400000000E-02 0. -1.
         -1   -1    0    0    0  501 -0.00000000000E+00 -0.00000000000E+00 -0.15908818661E+04  0.15908818661E+04  0.50400000000E-02 0.  1.
    8880023    1    1    2    0    0 -0.63691319969E+03  0.77242098268E+03 -0.11749530812E+04  0.16782781497E+04  0.65864270000E+03 0.  0.
    8880022    1    1    2    0    0  0.63691319969E+03 -0.77242098268E+03  0.13967425499E+04  0.17252750511E+04  0.15294330000E+03 0.  0.
<mgrwt>
<rscale>  0 0.11490033E+04</rscale>
<asrwt>0</asrwt>
<pdfrwt beam="1">  1        1 0.27887251E+00 0.11983751E+04</pdfrwt>
<pdfrwt beam="2">  1       -1 0.24475106E+00 0.11983751E+04</pdfrwt>
<totfact> 0.29592047E-01</totfact>
</mgrwt>
</event>
<event>
 4    1  0.2514307E-008  0.1279701E+04  0.7818608E-02  0.9083291E-01
         -1   -1    0    0    0  501 -0.00000000000E+00  0.00000000000E+00  0.92148225146E+03  0.92148225148E+03  0.50400000000E-02 0.  1.
          1   -1    0    0  501    0  0.00000000000E+00 -0.00000000000E+00 -0.22472985477E+04  0.22472985477E+04  0.50400000000E-02 0. -1.
    8880023    1    1    2    0    0  0.10690010595E+04  0.24710385507E+03  0.18745723165E+03  0.12933576460E+04  0.65864270000E+03 0.  0.
    8880022    1    1    2    0    0 -0.10690010595E+04 -0.24710385507E+03 -0.15132735279E+04  0.18754231532E+04  0.15294330000E+03 0.  0.
<mgrwt>
<rscale>  0 0.12343729E+04</rscale>
<asrwt>0</asrwt>
<pdfrwt beam="1">  1        1 0.34573824E+00 0.12797007E+04</pdfrwt>
<pdfrwt beam="2">  1       -1 0.14176650E+00 0.12797007E+04</pdfrwt>
<totfact> 0.79961284E-01</totfact>
</mgrwt>
</event>
<event>
 4    1  0.2514307E-008  0.1948654E+04  0.7818608E-02  0.8644478E-01
         -1   -1    0    0    0  501 -0.00000000000E+00  0.00000000000E+00  0.21471855969E+04  0.21471855969E+04  0.50400000000E-02 0.  1.
          1   -1    0    0  501    0  0.00000000000E+00 -0.00000000000E+00 -0.17864392008E+04  0.17864392008E+04  0.50400000000E-02 0. -1.
    8880023    1    1    2    0    0  0.24270971672E+03 -0.18178378675E+04  0.68380463656E+03  0.20651492697E+04  0.65864270000E+03 0.  0.
    8880022    1    1    2    0    0 -0.24270971672E+03  0.18178378675E+04 -0.32305824046E+03  0.18684755280E+04  0.15294330000E+03 0.  0.
<mgrwt>
<rscale>  0 0.19209909E+04</rscale>
<asrwt>0</asrwt>
<pdfrwt beam="1">  1        1 0.27483680E+00 0.19486541E+04</pdfrwt>
<pdfrwt beam="2">  1       -1 0.33033625E+00 0.19486541E+04</pdfrwt>
<totfact> 0.78249095E-02</totfact>
</mgrwt>
</event>
<event>
 4    1  0.2514307E-008  0.7684520E+03  0.7818608E-02  0.9783698E-01
         -1   -1    0    0    0  501 -0.00000000000E+00  0.00000000000E+00  0.94203321654E+03  0.94203321656E+03  0.50400000000E-02 0.  1.
          1   -1    0    0  501    0  0.00000000000E+00 -0.00000000000E+00 -0.51616220894E+03  0.51616220897E+03  0.50400000000E-02 0. -1.
    8880023    1    1    2    0    0  0.39513765958E+03 -0.23969948866E+02  0.62394837178E+03  0.98986368020E+03  0.65864270000E+03 0.  0.
    8880022    1    1    2    0    0 -0.39513765958E+03  0.23969948866E+02 -0.19807736418E+03  0.46833174533E+03  0.15294330000E+03 0.  0.
<mgrwt>
<rscale>  0 0.66244799E+03</rscale>
<asrwt>0</asrwt>
<pdfrwt beam="1">  1        1 0.79409571E-01 0.76845204E+03</pdfrwt>
<pdfrwt beam="2">  1       -1 0.14492819E+00 0.76845204E+03</pdfrwt>
<totfact> 0.16631156E+01</totfact>
</mgrwt>
</event>
<event>
 4    1  0.2514307E-008  0.6737832E+03  0.7818608E-02  0.1013084E+00
         -1   -1    0    0    0  501 -0.00000000000E+00  0.00000000000E+00  0.72683024446E+03  0.72683024448E+03  0.50400000000E-02 0.  1.
          1   -1    0    0  501    0  0.00000000000E+00 -0.00000000000E+00 -0.40890825251E+03  0.40890825254E+03  0.50400000000E-02 0. -1.
    8880023    1    1    2    0    0 -0.87720979979E+02 -0.11170801647E+03  0.51547425583E+03  0.84834990773E+03  0.65864270000E+03 0.  1.
    8880022    1    1    2    0    0  0.87720979979E+02  0.11170801647E+03 -0.19755226387E+03  0.28738858928E+03  0.15294330000E+03 0.  0.
<mgrwt>
<rscale>  0 0.50266975E+03</rscale>
<asrwt>0</asrwt>
<pdfrwt beam="1">  1        1 0.62908962E-01 0.67378324E+03</pdfrwt>
<pdfrwt beam="2">  1       -1 0.11182004E+00 0.67378324E+03</pdfrwt>
<totfact> 0.43979428E+01</totfact>
</mgrwt>
</event>
<event>
 4    1  0.2514307E-008  0.1558455E+04  0.7818608E-02  0.8869425E-01
          1   -1    0    0  501    0  0.00000000000E+00  0.00000000000E+00  0.21100978167E+04  0.21100978167E+04  0.50400000000E-02 0. -1.
         -1   -1    0    0    0  501 -0.00000000000E+00 -0.00000000000E+00 -0.10671509069E+04  0.10671509069E+04  0.50400000000E-02 0.  1.
    8880023    1    1    2    0    0 -0.10755616637E+04  0.91549863690E+03  0.35322130493E+03  0.15979818970E+04  0.65864270000E+03 0.  0.
    8880022    1    1    2    0    0  0.10755616637E+04 -0.91549863690E+03  0.68972560489E+03  0.15792668266E+04  0.15294330000E+03 0.  0.
<mgrwt>
<rscale>  0 0.15228093E+04</rscale>
<asrwt>0</asrwt>
<pdfrwt beam="1">  1        1 0.32463043E+00 0.15584546E+04</pdfrwt>
<pdfrwt beam="2">  1       -1 0.16417706E+00 0.15584546E+04</pdfrwt>
<totfact> 0.64256216E-01</totfact>
</mgrwt>
</event>
<event>
 4    1  0.2514307E-008  0.8839915E+03  0.7818608E-02  0.9552235E-01
         -1   -1    0    0    0  501 -0.00000000000E+00  0.00000000000E+00  0.22058882079E+04  0.22058882079E+04  0.50400000000E-02 0.  1.
          1   -1    0    0  501    0  0.00000000000E+00 -0.00000000000E+00 -0.92856218326E+03  0.92856218328E+03  0.50400000000E-02 0. -1.
    8880023    1    1    2    0    0 -0.72693095644E+02 -0.58510382394E+03  0.20015864977E+04  0.21881017995E+04  0.65864270000E+03 0.  1.
    8880022    1    1    2    0    0  0.72693095644E+02  0.58510382394E+03 -0.72426047312E+03  0.94634859163E+03  0.15294330000E+03 0.  0.
<mgrwt>
<rscale>  0 0.80539900E+03</rscale>
<asrwt>0</asrwt>
<pdfrwt beam="1">  1        1 0.14285572E+00 0.88399150E+03</pdfrwt>
<pdfrwt beam="2">  1       -1 0.33936741E+00 0.88399150E+03</pdfrwt>
<totfact> 0.32777545E-01</totfact>
</mgrwt>
</event>
<event>
 4    1  0.2514307E-008  0.6796213E+03  0.7818608E-02  0.1009539E+00
          1   -1    0    0  501    0  0.00000000000E+00  0.00000000000E+00  0.67236904472E+03  0.67236904474E+03  0.50400000000E-02 0. -1.
         -1   -1    0    0    0  501 -0.00000000000E+00 -0.00000000000E+00 -0.83028467778E+03  0.83028467780E+03  0.50400000000E-02 0.  1.
    8880023    1    1    2    0    0 -0.97778253811E+02  0.13606723667E+03 -0.66269611501E+03  0.94923718160E+03  0.65864270000E+03 0.  1.
    8880022    1    1    2    0    0  0.97778253811E+02 -0.13606723667E+03  0.50478048195E+03  0.55341654094E+03  0.15294330000E+03 0.  0.
<mgrwt>
<rscale>  0 0.51658387E+03</rscale>
<asrwt>0</asrwt>
<pdfrwt beam="1">  1        1 0.10344139E+00 0.67962128E+03</pdfrwt>
<pdfrwt beam="2">  1       -1 0.12773610E+00 0.67962128E+03</pdfrwt>
<totfact> 0.15917716E+01</totfact>
</mgrwt>
</event>
<event>
 4    1  0.2514307E-008  0.7133363E+03  0.7818608E-02  0.9945814E-01
         -1   -1    0    0    0  501 -0.00000000000E+00  0.00000000000E+00  0.25234803509E+03  0.25234803514E+03  0.50400000000E-02 0.  1.
          1   -1    0    0  501    0  0.00000000000E+00 -0.00000000000E+00 -0.30730835301E+04  0.30730835301E+04  0.50400000000E-02 0. -1.
    8880023    1    1    2    0    0 -0.78064160058E+02 -0.26257280720E+03 -0.28147321116E+03  0.76686104806E+03  0.65864270000E+03 0.  0.
    8880022    1    1    2    0    0  0.78064160058E+02  0.26257280720E+03 -0.25392622838E+04  0.25585705171E+04  0.15294330000E+03 0.  0.
<mgrwt>
<rscale>  0 0.58091390E+03</rscale>
<asrwt>0</asrwt>
<pdfrwt beam="1">  1        1 0.47278206E+00 0.71333632E+03</pdfrwt>
<pdfrwt beam="2">  1       -1 0.38822777E-01 0.71333632E+03</pdfrwt>
<totfact> 0.36687021E+00</totfact>
</mgrwt>
</event>
<event>
 4    1  0.2514307E-008  0.1752871E+04  0.7818608E-02  0.8749064E-01
         -1   -1    0    0    0  501 -0.00000000000E+00  0.00000000000E+00  0.16641049021E+04  0.16641049021E+04  0.50400000000E-02 0.  1.
          1   -1    0    0  501    0  0.00000000000E+00 -0.00000000000E+00 -0.24658249499E+04  0.24658249499E+04  0.50400000000E-02 0. -1.
    8880023    1    1    2    0    0 -0.12015061816E+04 -0.10932198028E+04  0.72362672054E+03  0.18963629606E+04  0.65864270000E+03 0.  0.
    8880022    1    1    2    0    0  0.12015061816E+04  0.10932198028E+04 -0.15253467683E+04  0.22335668914E+04  0.15294330000E+03 0.  0.
<mgrwt>
<rscale>  0 0.17217350E+04</rscale>
<asrwt>0</asrwt>
<pdfrwt beam="1">  1        1 0.37935769E+00 0.17528710E+04</pdfrwt>
<pdfrwt beam="2">  1       -1 0.25601614E+00 0.17528710E+04</pdfrwt>
<totfact> 0.83352527E-02</totfact>
</mgrwt>
</event>
<event>
 4    1  0.2514307E-008  0.1099288E+04  0.7818608E-02  0.9261850E-01
          1   -1    0    0  501    0  0.00000000000E+00  0.00000000000E+00  0.29306966146E+04  0.29306966146E+04  0.50400000000E-02 0. -1.
         -1   -1    0    0    0  501 -0.00000000000E+00 -0.00000000000E+00 -0.62081952941E+03  0.62081952943E+03  0.50400000000E-02 0.  1.
    8880023    1    1    2    0    0 -0.87275091386E+03 -0.11370458304E+03  0.26492478732E+02  0.10996067240E+04  0.65864270000E+03 0.  0.
    8880022    1    1    2    0    0  0.87275091386E+03  0.11370458304E+03  0.22833846065E+04  0.24519094200E+04  0.15294330000E+03 0.  0.
<mgrwt>
<rscale>  0 0.10437220E+04</rscale>
<asrwt>0</asrwt>
<pdfrwt beam="1">  1        1 0.45087640E+00 0.10992875E+04</pdfrwt>
<pdfrwt beam="2">  1       -1 0.95510698E-01 0.10992875E+04</pdfrwt>
<totfact> 0.71750791E-01</totfact>
</mgrwt>
</event>
<event>
 4    1  0.2514307E-008  0.6806401E+03  0.7818608E-02  0.1008964E+00
         -1   -1    0    0    0  501 -0.00000000000E+00  0.00000000000E+00  0.29131806126E+03  0.29131806130E+03  0.50400000000E-02 0.  1.
          1   -1    0    0  501    0  0.00000000000E+00 -0.00000000000E+00 -0.10721336316E+04  0.10721336316E+04  0.50400000000E-02 0. -1.
    8880023    1    1    2    0    0 -0.16931890457E+03 -0.28138723827E+02 -0.15684639992E+03  0.69847811609E+03  0.65864270000E+03 0.  1.
    8880022    1    1    2    0    0  0.16931890457E+03  0.28138723827E+02 -0.62396917045E+03  0.66497357685E+03  0.15294330000E+03 0.  0.
<mgrwt>
<rscale>  0 0.51888504E+03</rscale>
<asrwt>0</asrwt>
<pdfrwt beam="1">  1        1 0.16494363E+00 0.68064006E+03</pdfrwt>
<pdfrwt beam="2">  1       -1 0.44818164E-01 0.68064006E+03</pdfrwt>
<totfact> 0.67614452E+01</totfact>
</mgrwt>
</event>
<event>
 4    1  0.2514307E-008  0.8328485E+03  0.7818608E-02  0.9643815E-01
         -1   -1    0    0    0  501 -0.00000000000E+00  0.00000000000E+00  0.97588291854E+03  0.97588291856E+03  0.50400000000E-02 0.  1.
          1   -1    0    0  501    0  0.00000000000E+00 -0.00000000000E+00 -0.12661333859E+04  0.12661333860E+04  0.50400000000E-02 0. -1.
    8880023    1    1    2    0    0 -0.46409228665E+03 -0.21081908726E+03  0.71950594571E+03  0.11006022671E+04  0.65864270000E+03 0.  0.
    8880022    1    1    2    0    0  0.46409228665E+03  0.21081908726E+03 -0.10097564131E+04  0.11414140375E+04  0.15294330000E+03 0. -1.
<mgrwt>
<rscale>  0 0.74462839E+03</rscale>
<asrwt>0</asrwt>
<pdfrwt beam="1">  1        1 0.19478975E+00 0.83284845E+03</pdfrwt>
<pdfrwt beam="2">  1       -1 0.15013583E+00 0.83284845E+03</pdfrwt>
<totfact> 0.34206195E+00</totfact>
</mgrwt>
</event>
<event>
 4    1  0.2514307E-008  0.1173005E+04  0.7818608E-02  0.9183820E-01
          1   -1    0    0  501    0  0.00000000000E+00  0.00000000000E+00  0.28328176032E+04  0.28328176032E+04  0.50400000000E-02 0. -1.
         -1   -1    0    0    0  501 -0.00000000000E+00 -0.00000000000E+00 -0.77806256041E+03  0.77806256043E+03  0.50400000000E-02 0.  1.
    8880023    1    1    2    0    0 -0.76326433513E+02 -0.96762870601E+03 -0.16387080624E+03  0.11843964220E+04  0.65864270000E+03 0.  0.
    8880022    1    1    2    0    0  0.76326433513E+02  0.96762870601E+03  0.22186258490E+04  0.24264837416E+04  0.15294330000E+03 0.  0.
<mgrwt>
<rscale>  0 0.11222000E+04</rscale>
<asrwt>0</asrwt>
<pdfrwt beam="1">  1        1 0.43581808E+00 0.11730052E+04</pdfrwt>
<pdfrwt beam="2">  1       -1 0.11970194E+00 0.11730052E+04</pdfrwt>
<totfact> 0.48999297E-01</totfact>
</mgrwt>
</event>
<event>
 4    1  0.2514307E-008  0.8892229E+03  0.7818608E-02  0.9543559E-01
         -1   -1    0    0    0  501 -0.00000000000E+00  0.00000000000E+00  0.60503242366E+03  0.60503242368E+03  0.50400000000E-02 0.  1.
          1   -1    0    0  501    0  0.00000000000E+00 -0.00000000000E+00 -0.12338750822E+04  0.12338750822E+04  0.50400000000E-02 0. -1.
    8880023    1    1    2    0    0 -0.51124536912E+03  0.30908800430E+03  0.87695532784E+02  0.89353675615E+03  0.65864270000E+03 0.  0.
    8880022    1    1    2    0    0  0.51124536912E+03 -0.30908800430E+03 -0.71653819134E+03  0.94537074977E+03  0.15294330000E+03 0.  0.
<mgrwt>
<rscale>  0 0.81147215E+03</rscale>
<asrwt>0</asrwt>
<pdfrwt beam="1">  1        1 0.18982694E+00 0.88922293E+03</pdfrwt>
<pdfrwt beam="2">  1       -1 0.93081911E-01 0.88922293E+03</pdfrwt>
<totfact> 0.11496249E+01</totfact>
</mgrwt>
</event>
<event>
 4    1  0.2514307E-008  0.1032960E+04  0.7818608E-02  0.9339652E-01
         -1   -1    0    0    0  501 -0.00000000000E+00  0.00000000000E+00  0.54292130357E+03  0.54292130360E+03  0.50400000000E-02 0.  1.
          1   -1    0    0  501    0  0.00000000000E+00 -0.00000000000E+00 -0.23282596313E+04  0.23282596313E+04  0.50400000000E-02 0. -1.
    8880023    1    1    2    0    0  0.50298429370E+03  0.61660608745E+03 -0.14694133355E+03  0.10433591081E+04  0.65864270000E+03 0.  1.
    8880022    1    1    2    0    0 -0.50298429370E+03 -0.61660608745E+03 -0.16383969942E+04  0.18278218268E+04  0.15294330000E+03 0.  0.
<mgrwt>
<rscale>  0 0.97212980E+03</rscale>
<asrwt>0</asrwt>
<pdfrwt beam="1">  1        1 0.35819378E+00 0.10329601E+04</pdfrwt>
<pdfrwt beam="2">  1       -1 0.83526356E-01 0.10329601E+04</pdfrwt>
<totfact> 0.25595307E+00</totfact>
</mgrwt>
</event>
<event>
 4    1  0.2514307E-008  0.8009222E+03  0.7818608E-02  0.9708806E-01
          1   -1    0    0  501    0  0.00000000000E+00  0.00000000000E+00  0.15922444001E+04  0.15922444001E+04  0.50400000000E-02 0. -1.
         -1   -1    0    0    0  501 -0.00000000000E+00 -0.00000000000E+00 -0.65631223370E+03  0.65631223372E+03  0.50400000000E-02 0.  1.
    8880023    1    1    2    0    0 -0.10016934397E+03  0.44455848099E+03 -0.35124309838E+03  0.87455592212E+03  0.65864270000E+03 0.  1.
    8880022    1    1    2    0    0  0.10016934397E+03 -0.44455848099E+03  0.12871752648E+04  0.13740007117E+04  0.15294330000E+03 0.  0.
<mgrwt>
<rscale>  0 0.70494920E+03</rscale>
<asrwt>0</asrwt>
<pdfrwt beam="1">  1        1 0.24496067E+00 0.80092219E+03</pdfrwt>
<pdfrwt beam="2">  1       -1 0.10097112E+00 0.80092219E+03</pdfrwt>
<totfact> 0.54468239E+00</totfact>
</mgrwt>
</event>
<event>
 4    1  0.2514307E-008  0.8962803E+03  0.7818608E-02  0.9532030E-01
          1   -1    0    0  501    0  0.00000000000E+00  0.00000000000E+00  0.37052993113E+04  0.37052993114E+04  0.50400000000E-02 0. -1.
         -1   -1    0    0    0  501 -0.00000000000E+00 -0.00000000000E+00 -0.34909500169E+03  0.34909500172E+03  0.50400000000E-02 0.  1.
    8880023    1    1    2    0    0  0.42493829941E+03  0.43466722494E+03  0.31616962369E+03  0.95041127516E+03  0.65864270000E+03 0.  1.
    8880022    1    1    2    0    0 -0.42493829941E+03 -0.43466722494E+03  0.30400346860E+04  0.31039830379E+04  0.15294330000E+03 0.  0.
<mgrwt>
<rscale>  0 0.81963050E+03</rscale>
<asrwt>0</asrwt>
<pdfrwt beam="1">  1        1 0.57004602E+00 0.89628029E+03</pdfrwt>
<pdfrwt beam="2">  1       -1 0.53706926E-01 0.89628029E+03</pdfrwt>
<totfact> 0.63684857E-01</totfact>
</mgrwt>
</event>
<event>
 4    1  0.2566308E-008  0.1130575E+04  0.7818608E-02  0.9227755E-01
          1   -1    0    0  501    0  0.00000000000E+00  0.00000000000E+00  0.21842540150E+04  0.21842540150E+04  0.50400000000E-02 0. -1.
         -1   -1    0    0    0  501 -0.00000000000E+00 -0.00000000000E+00 -0.16969572656E+04  0.16969572656E+04  0.50400000000E-02 0.  1.
    8880023    1    1    2    0    0  0.60567103234E+03 -0.69105162015E+03 -0.13862683685E+04  0.17888375938E+04  0.65864270000E+03 0.  0.
    8880022    1    1    2    0    0 -0.60567103234E+03  0.69105162015E+03  0.18735651180E+04  0.20923736868E+04  0.15294330000E+03 0.  0.
<mgrwt>
<rscale>  0 0.10771491E+04</rscale>
<asrwt>0</asrwt>
<pdfrwt beam="1">  1        1 0.33603908E+00 0.11305751E+04</pdfrwt>
<pdfrwt beam="2">  1       -1 0.26107035E+00 0.11305751E+04</pdfrwt>
<totfact> 0.13135666E-01</totfact>
</mgrwt>
</event>
<event>
 4    1  0.2514307E-008  0.1707846E+04  0.7818608E-02  0.8775302E-01
         -1   -1    0    0    0  501 -0.00000000000E+00  0.00000000000E+00  0.13863886144E+04  0.13863886144E+04  0.50400000000E-02 0.  1.
          1   -1    0    0  501    0  0.00000000000E+00 -0.00000000000E+00 -0.22178493099E+04  0.22178493099E+04  0.50400000000E-02 0. -1.
    8880023    1    1    2    0    0  0.49045147141E+03  0.14974594702E+04  0.19273777510E+03  0.17186871637E+04  0.65864270000E+03 0.  1.
    8880022    1    1    2    0    0 -0.49045147141E+03 -0.14974594702E+04 -0.10241984706E+04  0.18855507606E+04  0.15294330000E+03 0. -1.
<mgrwt>
<rscale>  0 0.16757764E+04</rscale>
<asrwt>0</asrwt>
<pdfrwt beam="1">  1        1 0.34120759E+00 0.17078459E+04</pdfrwt>
<pdfrwt beam="2">  1       -1 0.21329056E+00 0.17078459E+04</pdfrwt>
<totfact> 0.23876415E-01</totfact>
</mgrwt>
</event>
<event>
 4    1  0.2514307E-008  0.7084143E+03  0.7818608E-02  0.9963937E-01
          1   -1    0    0  501    0  0.00000000000E+00  0.00000000000E+00  0.30776664191E+04  0.30776664191E+04  0.50400000000E-02 0. -1.
         -1   -1    0    0    0  501 -0.00000000000E+00 -0.00000000000E+00 -0.15694375462E+03  0.15694375470E+03  0.50400000000E-02 0.  1.
    8880023    1    1    2    0    0 -0.24897568480E+03 -0.77792463984E+02  0.70882368328E+03  0.10021386028E+04  0.65864270000E+03 0.  1.
    8880022    1    1    2    0    0  0.24897568480E+03  0.77792463984E+02  0.22118989812E+04  0.22324715710E+04  0.15294330000E+03 0.  0.
<mgrwt>
<rscale>  0 0.57260202E+03</rscale>
<asrwt>0</asrwt>
<pdfrwt beam="1">  1        1 0.47348710E+00 0.70841426E+03</pdfrwt>
<pdfrwt beam="2">  1       -1 0.24145195E-01 0.70841426E+03</pdfrwt>
<totfact> 0.83607707E+00</totfact>
</mgrwt>
</event>
<event>
 4    1  0.2514307E-008  0.1261426E+04  0.7818608E-02  0.9099608E-01
         -1   -1    0    0    0  501 -0.00000000000E+00  0.00000000000E+00  0.83702687520E+03  0.83702687522E+03  0.50400000000E-02 0.  1.
          1   -1    0    0  501    0  0.00000000000E+00 -0.00000000000E+00 -0.34604806153E+04  0.34604806153E+04  0.50400000000E-02 0. -1.
    8880023    1    1    2    0    0  0.10630791470E+04 -0.16506753043E+03  0.19539303047E+03  0.12764690380E+04  0.65864270000E+03 0.  0.
    8880022    1    1    2    0    0 -0.10630791470E+04  0.16506753043E+03 -0.28188467706E+04  0.30210384525E+04  0.15294330000E+03 0.  0.
<mgrwt>
<rscale>  0 0.12152544E+04</rscale>
<asrwt>0</asrwt>
<pdfrwt beam="1">  1        1 0.53238163E+00 0.12614257E+04</pdfrwt>
<pdfrwt beam="2">  1       -1 0.12877337E+00 0.12614257E+04</pdfrwt>
<totfact> 0.13822801E-01</totfact>
</mgrwt>
</event>
<event>
 4    1  0.2514307E-008  0.8769141E+03  0.7818608E-02  0.9564157E-01
         -1   -1    0    0    0  501 -0.00000000000E+00  0.00000000000E+00  0.11581041812E+04  0.11581041812E+04  0.50400000000E-02 0.  1.
          1   -1    0    0  501    0  0.00000000000E+00 -0.00000000000E+00 -0.11380336583E+04  0.11380336583E+04  0.50400000000E-02 0. -1.
    8880023    1    1    2    0    0 -0.52912278120E+03  0.23494071832E+03  0.88387932273E+03  0.12450786811E+04  0.65864270000E+03 0.  1.
    8880022    1    1    2    0    0  0.52912278120E+03 -0.23494071832E+03 -0.86380879985E+03  0.10510591584E+04  0.15294330000E+03 0.  0.
<mgrwt>
<rscale>  0 0.79714616E+03</rscale>
<asrwt>0</asrwt>
<pdfrwt beam="1">  1        1 0.17508210E+00 0.87691406E+03</pdfrwt>
<pdfrwt beam="2">  1       -1 0.17816987E+00 0.87691406E+03</pdfrwt>
<totfact> 0.26005338E+00</totfact>
</mgrwt>
</event>
<event>
 4    1  0.2514307E-008  0.6811264E+03  0.7818608E-02  0.1008694E+00
          1   -1    0    0  501    0  0.00000000000E+00  0.00000000000E+00  0.12452103711E+04  0.12452103711E+04  0.50400000000E-02 0. -1.
         -1   -1    0    0    0  501 -0.00000000000E+00 -0.00000000000E+00 -0.72055836927E+03  0.72055836929E+03  0.50400000000E-02 0.  1.
    8880023    1    1    2    0    0 -0.17249718753E+03 -0.19173454252E+02 -0.54441229612E+03  0.87196207228E+03  0.65864270000E+03 0.  1.
    8880022    1    1    2    0    0  0.17249718753E+03  0.19173454252E+02  0.10690642979E+04  0.10938066681E+04  0.15294330000E+03 0.  0.
<mgrwt>
<rscale>  0 0.51997175E+03</rscale>
<asrwt>0</asrwt>
<pdfrwt beam="1">  1        1 0.19157083E+00 0.68112635E+03</pdfrwt>
<pdfrwt beam="2">  1       -1 0.11085513E+00 0.68112635E+03</pdfrwt>
<totfact> 0.77773321E+00</totfact>
</mgrwt>
</event>
<event>
 4    1  0.2514307E-008  0.1610264E+04  0.7818608E-02  0.8835459E-01
         -1   -1    0    0    0  501 -0.00000000000E+00  0.00000000000E+00  0.25627898538E+04  0.25627898538E+04  0.50400000000E-02 0.  1.
          1   -1    0    0  501    0  0.00000000000E+00 -0.00000000000E+00 -0.22087220842E+04  0.22087220842E+04  0.50400000000E-02 0. -1.
    8880023    1    1    2    0    0 -0.67534962425E+02  0.14678486707E+04  0.19948336442E+04  0.25636521147E+04  0.65864270000E+03 0.  1.
    8880022    1    1    2    0    0  0.67534962425E+02 -0.14678486707E+04 -0.16407658745E+04  0.22078598233E+04  0.15294330000E+03 0.  0.
<mgrwt>
<rscale>  0 0.15759519E+04</rscale>
<asrwt>0</asrwt>
<pdfrwt beam="1">  1        1 0.33980340E+00 0.16102642E+04</pdfrwt>
<pdfrwt beam="2">  1       -1 0.39427536E+00 0.16102642E+04</pdfrwt>
<totfact> 0.15632749E-02</totfact>
</mgrwt>
</event>
<event>
 4    1  0.2514307E-008  0.7317542E+03  0.7818608E-02  0.9884652E-01
          1   -1    0    0  501    0  0.00000000000E+00  0.00000000000E+00  0.29477578445E+04  0.29477578445E+04  0.50400000000E-02 0. -1.
         -1   -1    0    0    0  501 -0.00000000000E+00 -0.00000000000E+00 -0.27874197395E+03  0.27874197400E+03  0.50400000000E-02 0.  1.
    8880023    1    1    2    0    0  0.27033420139E+03  0.16903660129E+03  0.23739156518E+03  0.76929767613E+03  0.65864270000E+03 0.  1.
    8880022    1    1    2    0    0 -0.27033420139E+03 -0.16903660129E+03  0.24316243054E+04  0.24572021424E+04  0.15294330000E+03 0.  0.
<mgrwt>
<rscale>  0 0.61010904E+03</rscale>
<asrwt>0</asrwt>
<pdfrwt beam="1">  1        1 0.45350125E+00 0.73175417E+03</pdfrwt>
<pdfrwt beam="2">  1       -1 0.42883377E-01 0.73175417E+03</pdfrwt>
<totfact> 0.37499815E+00</totfact>
</mgrwt>
</event>
<event>
 4    1  0.2514307E-008  0.8144619E+03  0.7818608E-02  0.9680357E-01
          1   -1    0    0  501    0  0.00000000000E+00  0.00000000000E+00  0.20254807404E+04  0.20254807405E+04  0.50400000000E-02 0. -1.
         -1   -1    0    0    0  501 -0.00000000000E+00 -0.00000000000E+00 -0.46173031007E+03  0.46173031010E+03  0.50400000000E-02 0.  1.
    8880023    1    1    2    0    0 -0.41585513969E+03  0.23791278124E+03 -0.30987480876E+02  0.81505117564E+03  0.65864270000E+03 0.  0.
    8880022    1    1    2    0    0  0.41585513969E+03 -0.23791278124E+03  0.15947379112E+04  0.16721598749E+04  0.15294330000E+03 0.  0.
<mgrwt>
<rscale>  0 0.72198479E+03</rscale>
<asrwt>0</asrwt>
<pdfrwt beam="1">  1        1 0.31161242E+00 0.81446191E+03</pdfrwt>
<pdfrwt beam="2">  1       -1 0.71035432E-01 0.81446191E+03</pdfrwt>
<totfact> 0.59519847E+00</totfact>
</mgrwt>
</event>
<event>
 4    1  0.2514307E-008  0.9882731E+03  0.7818608E-02  0.9397063E-01
         -1   -1    0    0    0  501 -0.00000000000E+00  0.00000000000E+00  0.65840486530E+03  0.65840486532E+03  0.50400000000E-02 0.  1.
          1   -1    0    0  501    0  0.00000000000E+00 -0.00000000000E+00 -0.22925746526E+04  0.22925746526E+04  0.50400000000E-02 0. -1.
    8880023    1    1    2    0    0  0.21096422459E+03 -0.70595150197E+03  0.16392137087E+03  0.10017753487E+04  0.65864270000E+03 0.  1.
    8880022    1    1    2    0    0 -0.21096422459E+03  0.70595150197E+03 -0.17980911582E+04  0.19492041692E+04  0.15294330000E+03 0.  0.
<mgrwt>
<rscale>  0 0.92317745E+03</rscale>
<asrwt>0</asrwt>
<pdfrwt beam="1">  1        1 0.35270379E+00 0.98827306E+03</pdfrwt>
<pdfrwt beam="2">  1       -1 0.10129306E+00 0.98827306E+03</pdfrwt>
<totfact> 0.17723451E+00</totfact>
</mgrwt>
</event>
<event>
 4    1  0.2514307E-008  0.1033045E+04  0.7818608E-02  0.9339547E-01
          1   -1    0    0  501    0  0.00000000000E+00  0.00000000000E+00  0.17165870176E+04  0.17165870176E+04  0.50400000000E-02 0. -1.
         -1   -1    0    0    0  501 -0.00000000000E+00 -0.00000000000E+00 -0.14360620341E+04  0.14360620341E+04  0.50400000000E-02 0.  1.
    8880023    1    1    2    0    0 -0.26841249319E+03  0.74921746494E+03 -0.11267904560E+04  0.15286723044E+04  0.65864270000E+03 0.  0.
    8880022    1    1    2    0    0  0.26841249319E+03 -0.74921746494E+03  0.14073154395E+04  0.16239767473E+04  0.15294330000E+03 0.  0.
<mgrwt>
<rscale>  0 0.97222240E+03</rscale>
<asrwt>0</asrwt>
<pdfrwt beam="1">  1        1 0.26409031E+00 0.10330452E+04</pdfrwt>
<pdfrwt beam="2">  1       -1 0.22093262E+00 0.10330452E+04</pdfrwt>
<totfact> 0.50632787E-01</totfact>
</mgrwt>
</event>
<event>
 4    1  0.2514307E-008  0.8493675E+03  0.7818608E-02  0.9612764E-01
          1   -1    0    0  501    0  0.00000000000E+00  0.00000000000E+00  0.19547484876E+04  0.19547484876E+04  0.50400000000E-02 0. -1.
         -1   -1    0    0    0  501 -0.00000000000E+00 -0.00000000000E+00 -0.44610630713E+03  0.44610630716E+03  0.50400000000E-02 0.  1.
    8880023    1    1    2    0    0 -0.45984600759E+03 -0.27596487567E+03  0.63379430434E+02  0.85172890157E+03  0.65864270000E+03 0.  1.
    8880022    1    1    2    0    0  0.45984600759E+03  0.27596487567E+03  0.14452627500E+04  0.15491258932E+04  0.15294330000E+03 0.  0.
<mgrwt>
<rscale>  0 0.76457120E+03</rscale>
<asrwt>0</asrwt>
<pdfrwt beam="1">  1        1 0.30073053E+00 0.84936751E+03</pdfrwt>
<pdfrwt beam="2">  1       -1 0.68631740E-01 0.84936751E+03</pdfrwt>
<totfact> 0.70860048E+00</totfact>
</mgrwt>
</event>
<event>
 4    1  0.2514307E-008  0.8305296E+03  0.7818608E-02  0.9648303E-01
          1   -1    0    0  501    0  0.00000000000E+00  0.00000000000E+00  0.13955031252E+04  0.13955031252E+04  0.50400000000E-02 0. -1.
         -1   -1    0    0    0  501 -0.00000000000E+00 -0.00000000000E+00 -0.42425350856E+03  0.42425350859E+03  0.50400000000E-02 0.  1.
    8880023    1    1    2    0    0  0.44179050059E+03 -0.24655706322E+03  0.15127257178E+03  0.84419359691E+03  0.65864270000E+03 0.  1.
    8880022    1    1    2    0    0 -0.44179050059E+03  0.24655706322E+03  0.81997704487E+03  0.97556303690E+03  0.15294330000E+03 0. -1.
<mgrwt>
<rscale>  0 0.74180036E+03</rscale>
<asrwt>0</asrwt>
<pdfrwt beam="1">  1        1 0.21469279E+00 0.83052961E+03</pdfrwt>
<pdfrwt beam="2">  1       -1 0.65269769E-01 0.83052961E+03</pdfrwt>
<totfact> 0.18846248E+01</totfact>
</mgrwt>
</event>
<event>
 4    1  0.2514307E-008  0.7119449E+03  0.7818608E-02  0.9950849E-01
         -1   -1    0    0    0  501 -0.00000000000E+00  0.00000000000E+00  0.98447041368E+03  0.98447041369E+03  0.50400000000E-02 0.  1.
          1   -1    0    0  501    0  0.00000000000E+00 -0.00000000000E+00 -0.10198981958E+04  0.10198981958E+04  0.50400000000E-02 0. -1.
    8880023    1    1    2    0    0  0.27014702907E+03  0.87112352107E+01  0.82493510596E+03  0.10896712524E+04  0.65864270000E+03 0.  0.
    8880022    1    1    2    0    0 -0.27014702907E+03 -0.87112352107E+01 -0.86036288812E+03  0.91469735717E+03  0.15294330000E+03 0.  0.
<mgrwt>
<rscale>  0 0.57858989E+03</rscale>
<asrwt>0</asrwt>
<pdfrwt beam="1">  1        1 0.15690742E+00 0.71194488E+03</pdfrwt>
<pdfrwt beam="2">  1       -1 0.15145699E+00 0.71194488E+03</pdfrwt>
<totfact> 0.51750220E+00</totfact>
</mgrwt>
</event>
<event>
 4    1  0.2514307E-008  0.1006896E+04  0.7818608E-02  0.9372590E-01
         -1   -1    0    0    0  501 -0.00000000000E+00  0.00000000000E+00  0.59090645383E+03  0.59090645385E+03  0.50400000000E-02 0.  1.
          1   -1    0    0  501    0  0.00000000000E+00 -0.00000000000E+00 -0.16684892806E+04  0.16684892806E+04  0.50400000000E-02 0. -1.
    8880023    1    1    2    0    0  0.49069312582E+03  0.58245183128E+03 -0.10159463711E+03  0.10120086739E+04  0.65864270000E+03 0.  1.
    8880022    1    1    2    0    0 -0.49069312582E+03 -0.58245183128E+03 -0.97598818968E+03  0.12473870606E+04  0.15294330000E+03 0.  0.
<mgrwt>
<rscale>  0 0.94366131E+03</rscale>
<asrwt>0</asrwt>
<pdfrwt beam="1">  1        1 0.25669066E+00 0.10068963E+04</pdfrwt>
<pdfrwt beam="2">  1       -1 0.90908686E-01 0.10068963E+04</pdfrwt>
<totfact> 0.59551189E+00</totfact>
</mgrwt>
</event>
<event>
 4    1  0.2514307E-008  0.1028300E+04  0.7818608E-02  0.9345434E-01
         -1   -1    0    0    0  501 -0.00000000000E+00  0.00000000000E+00  0.10559804904E+04  0.10559804904E+04  0.50400000000E-02 0.  1.
          1   -1    0    0  501    0  0.00000000000E+00 -0.00000000000E+00 -0.17683914511E+04  0.17683914511E+04  0.50400000000E-02 0. -1.
    8880023    1    1    2    0    0 -0.88640195612E+02  0.78468731605E+03  0.66834630449E+03  0.12264127597E+04  0.65864270000E+03 0.  0.
    8880022    1    1    2    0    0  0.88640195612E+02 -0.78468731605E+03 -0.13807572652E+04  0.15979591818E+04  0.15294330000E+03 0.  0.
<mgrwt>
<rscale>  0 0.96705588E+03</rscale>
<asrwt>0</asrwt>
<pdfrwt beam="1">  1        1 0.27206022E+00 0.10283003E+04</pdfrwt>
<pdfrwt beam="2">  1       -1 0.16245854E+00 0.10283003E+04</pdfrwt>
<totfact> 0.12036686E+00</totfact>
</mgrwt>
</event>
<event>
 4    1  0.2514307E-008  0.6712954E+03  0.7818608E-02  0.1014751E+00
          1   -1    0    0  501    0  0.00000000000E+00  0.00000000000E+00  0.25363399402E+04  0.25363399402E+04  0.50400000000E-02 0. -1.
         -1   -1    0    0    0  501 -0.00000000000E+00 -0.00000000000E+00 -0.44391585597E+03  0.44391585600E+03  0.50400000000E-02 0.  1.
    8880023    1    1    2    0    0 -0.74139779428E+02 -0.10644525257E+03 -0.18317401212E+03  0.69583778546E+03  0.65864270000E+03 0.  1.
    8880022    1    1    2    0    0  0.74139779428E+02  0.10644525257E+03  0.22755980963E+04  0.22844180107E+04  0.15294330000E+03 0.  0.
<mgrwt>
<rscale>  0 0.49629408E+03</rscale>
<asrwt>0</asrwt>
<pdfrwt beam="1">  1        1 0.39020613E+00 0.67129539E+03</pdfrwt>
<pdfrwt beam="2">  1       -1 0.68294749E-01 0.67129539E+03</pdfrwt>
<totfact> 0.29961372E+00</totfact>
</mgrwt>
</event>
<event>
 4    1  0.2514307E-008  0.8629702E+03  0.7818608E-02  0.9588302E-01
         -1   -1    0    0    0  501 -0.00000000000E+00  0.00000000000E+00  0.90404941455E+03  0.90404941457E+03  0.50400000000E-02 0.  1.
          1   -1    0    0  501    0  0.00000000000E+00 -0.00000000000E+00 -0.39218200092E+04  0.39218200092E+04  0.50400000000E-02 0. -1.
    8880023    1    1    2    0    0 -0.96140272866E+02 -0.54923988404E+03  0.67032508787E+03  0.10927274738E+04  0.65864270000E+03 0.  0.
    8880022    1    1    2    0    0  0.96140272866E+02  0.54923988404E+03 -0.36880956825E+04  0.37331419500E+04  0.15294330000E+03 0.  0.
<mgrwt>
<rscale>  0 0.78075316E+03</rscale>
<asrwt>0</asrwt>
<pdfrwt beam="1">  1        1 0.60335692E+00 0.86297022E+03</pdfrwt>
<pdfrwt beam="2">  1       -1 0.13908453E+00 0.86297022E+03</pdfrwt>
<totfact> 0.52017233E-02</totfact>
</mgrwt>
</event>
<event>
 4    1  0.2514307E-008  0.1235342E+04  0.7818608E-02  0.9123510E-01
         -1   -1    0    0    0  501 -0.00000000000E+00  0.00000000000E+00  0.38915059837E+03  0.38915059840E+03  0.50400000000E-02 0.  1.
          1   -1    0    0  501    0  0.00000000000E+00 -0.00000000000E+00 -0.46025827383E+04  0.46025827383E+04  0.50400000000E-02 0. -1.
    8880023    1    1    2    0    0  0.85794519648E+03 -0.59681672119E+03 -0.94058222927E+03  0.15526639350E+04  0.65864270000E+03 0.  1.
    8880022    1    1    2    0    0 -0.85794519648E+03  0.59681672119E+03 -0.32728499107E+04  0.34390694017E+04  0.15294330000E+03 0.  0.
<mgrwt>
<rscale>  0 0.11879045E+04</rscale>
<asrwt>0</asrwt>
<pdfrwt beam="1">  1        1 0.70808961E+00 0.12353422E+04</pdfrwt>
<pdfrwt beam="2">  1       -1 0.59869326E-01 0.12353422E+04</pdfrwt>
<totfact> 0.73287269E-02</totfact>
</mgrwt>
</event>
<event>
 4    1  0.2514307E-008  0.8434921E+03  0.7818608E-02  0.9623630E-01
         -1   -1    0    0    0  501 -0.00000000000E+00  0.00000000000E+00  0.11412635779E+04  0.11412635779E+04  0.50400000000E-02 0.  1.
          1   -1    0    0  501    0  0.00000000000E+00 -0.00000000000E+00 -0.29329091975E+04  0.29329091975E+04  0.50400000000E-02 0. -1.
    8880023    1    1    2    0    0 -0.37949010494E+03  0.36558990069E+03  0.95447414756E+03  0.12737738496E+04  0.65864270000E+03 0.  0.
    8880022    1    1    2    0    0  0.37949010494E+03 -0.36558990069E+03 -0.27461197672E+04  0.28003989259E+04  0.15294330000E+03 0.  0.
<mgrwt>
<rscale>  0 0.75751714E+03</rscale>
<asrwt>0</asrwt>
<pdfrwt beam="1">  1        1 0.45121680E+00 0.84349210E+03</pdfrwt>
<pdfrwt beam="2">  1       -1 0.17557901E+00 0.84349210E+03</pdfrwt>
<totfact> 0.15918868E-01</totfact>
</mgrwt>
</event>
<event>
 4    1  0.2514307E-008  0.1743291E+04  0.7818608E-02  0.8754572E-01
         -1   -1    0    0    0  501 -0.00000000000E+00  0.00000000000E+00  0.96673391236E+03  0.96673391237E+03  0.50400000000E-02 0.  1.
          1   -1    0    0  501    0  0.00000000000E+00 -0.00000000000E+00 -0.39588061939E+04  0.39588061939E+04  0.50400000000E-02 0. -1.
    8880023    1    1    2    0    0 -0.15865461969E+04 -0.29685792897E+03 -0.27976823916E+03  0.17655973320E+04  0.65864270000E+03 0.  0.
    8880022    1    1    2    0    0  0.15865461969E+04  0.29685792897E+03 -0.27123040424E+04  0.31599427742E+04  0.15294330000E+03 0.  0.
<mgrwt>
<rscale>  0 0.17119612E+04</rscale>
<asrwt>0</asrwt>
<pdfrwt beam="1">  1        1 0.60904710E+00 0.17432910E+04</pdfrwt>
<pdfrwt beam="2">  1       -1 0.14872830E+00 0.17432910E+04</pdfrwt>
<totfact> 0.34656200E-02</totfact>
</mgrwt>
</event>
<event>
 4    1  0.2514307E-008  0.8161601E+03  0.7818608E-02  0.9676886E-01
         -1   -1    0    0    0  501 -0.00000000000E+00  0.00000000000E+00  0.27595105746E+04  0.27595105747E+04  0.50400000000E-02 0.  1.
          1   -1    0    0  501    0  0.00000000000E+00 -0.00000000000E+00 -0.59588621027E+03  0.59588621029E+03  0.50400000000E-02 0. -1.
    8880023    1    1    2    0    0 -0.25107157282E+03 -0.41142450948E+03  0.25764403595E+04  0.27026213561E+04  0.65864270000E+03 0.  1.
    8880022    1    1    2    0    0  0.25107157282E+03  0.41142450948E+03 -0.41281599517E+03  0.65277542889E+03  0.15294330000E+03 0.  0.
<mgrwt>
<rscale>  0 0.72409838E+03</rscale>
<asrwt>0</asrwt>
<pdfrwt beam="1">  1        1 0.91674803E-01 0.81616007E+03</pdfrwt>
<pdfrwt beam="2">  1       -1 0.42454008E+00 0.81616007E+03</pdfrwt>
<totfact> 0.17830647E-01</totfact>
</mgrwt>
</event>
<event>
 4    1  0.2514307E-008  0.6938053E+03  0.7818608E-02  0.1002394E+00
         -1   -1    0    0    0  501 -0.00000000000E+00  0.00000000000E+00  0.27890531600E+03  0.27890531605E+03  0.50400000000E-02 0.  1.
          1   -1    0    0  501    0  0.00000000000E+00 -0.00000000000E+00 -0.32235836233E+04  0.32235836233E+04  0.50400000000E-02 0. -1.
    8880023    1    1    2    0    0 -0.14174622746E+03 -0.16572144337E+03 -0.16904195353E+03  0.71410151807E+03  0.65864270000E+03 0.  1.
    8880022    1    1    2    0    0  0.14174622746E+03  0.16572144337E+03 -0.27756363538E+04  0.27883874213E+04  0.15294330000E+03 0.  0.
<mgrwt>
<rscale>  0 0.54612889E+03</rscale>
<asrwt>0</asrwt>
<pdfrwt beam="1">  1        1 0.49593592E+00 0.69380530E+03</pdfrwt>
<pdfrwt beam="2">  1       -1 0.42908512E-01 0.69380530E+03</pdfrwt>
<totfact> 0.23833199E+00</totfact>
</mgrwt>
</event>
<event>
 4    1  0.2514307E-008  0.1711999E+04  0.7818608E-02  0.8772844E-01
         -1   -1    0    0    0  501 -0.00000000000E+00  0.00000000000E+00  0.13603198434E+04  0.13603198434E+04  0.50400000000E-02 0.  1.
          1   -1    0    0  501    0  0.00000000000E+00 -0.00000000000E+00 -0.21652887869E+04  0.21652887870E+04  0.50400000000E-02 0. -1.
    8880023    1    1    2    0    0  0.65971220342E+03  0.14359349110E+04  0.68893773619E+02  0.17133843172E+04  0.65864270000E+03 0.  0.
    8880022    1    1    2    0    0 -0.65971220342E+03 -0.14359349110E+04 -0.87386271713E+03  0.18122243132E+04  0.15294330000E+03 0.  0.
<mgrwt>
<rscale>  0 0.16800177E+04</rscale>
<asrwt>0</asrwt>
<pdfrwt beam="1">  1        1 0.33312135E+00 0.17119987E+04</pdfrwt>
<pdfrwt beam="2">  1       -1 0.20927998E+00 0.17119987E+04</pdfrwt>
<totfact> 0.27613379E-01</totfact>
</mgrwt>
</event>
<event>
 4    1  0.2514307E-008  0.8007281E+03  0.7818608E-02  0.9709224E-01
          1   -1    0    0  501    0  0.00000000000E+00  0.00000000000E+00  0.18628754354E+04  0.18628754354E+04  0.50400000000E-02 0. -1.
         -1   -1    0    0    0  501 -0.00000000000E+00 -0.00000000000E+00 -0.40009157510E+03  0.40009157513E+03  0.50400000000E-02 0.  1.
    8880023    1    1    2    0    0 -0.45222281089E+03  0.53384085638E+02  0.86649229260E+02  0.80540277283E+03  0.65864270000E+03 0.  1.
    8880022    1    1    2    0    0  0.45222281089E+03 -0.53384085638E+02  0.13761346311E+04  0.14575642378E+04  0.15294330000E+03 0.  0.
<mgrwt>
<rscale>  0 0.70470251E+03</rscale>
<asrwt>0</asrwt>
<pdfrwt beam="1">  1        1 0.28659623E+00 0.80072813E+03</pdfrwt>
<pdfrwt beam="2">  1       -1 0.61552549E-01 0.80072813E+03</pdfrwt>
<totfact> 0.10237560E+01</totfact>
</mgrwt>
</event>
<event>
 4    1  0.2514307E-008  0.7975270E+03  0.7818608E-02  0.9716169E-01
          1   -1    0    0  501    0  0.00000000000E+00  0.00000000000E+00  0.18620613469E+04  0.18620613469E+04  0.50400000000E-02 0. -1.
         -1   -1    0    0    0  501 -0.00000000000E+00 -0.00000000000E+00 -0.61629495914E+03  0.61629495916E+03  0.50400000000E-02 0.  1.
    8880023    1    1    2    0    0 -0.42642441774E+03  0.14283335899E+03 -0.30698867228E+03  0.85457088861E+03  0.65864270000E+03 0.  0.
    8880022    1    1    2    0    0  0.42642441774E+03 -0.14283335899E+03  0.15527550600E+04  0.16237854175E+04  0.15294330000E+03 0.  0.
<mgrwt>
<rscale>  0 0.70062214E+03</rscale>
<asrwt>0</asrwt>
<pdfrwt beam="1">  1        1 0.28647097E+00 0.79752703E+03</pdfrwt>
<pdfrwt beam="2">  1       -1 0.94814611E-01 0.79752703E+03</pdfrwt>
<totfact> 0.41349170E+00</totfact>
</mgrwt>
</event>
<event>
 4    1  0.2514307E-008  0.7652422E+03  0.7818608E-02  0.9791720E-01
          1   -1    0    0  501    0  0.00000000000E+00  0.00000000000E+00  0.12027909512E+04  0.12027909512E+04  0.50400000000E-02 0. -1.
         -1   -1    0    0    0  501 -0.00000000000E+00 -0.00000000000E+00 -0.48472370993E+03  0.48472370996E+03  0.50400000000E-02 0.  1.
    8880023    1    1    2    0    0  0.19494315914E+03  0.33731664759E+03 -0.96902100166E+02  0.77135308343E+03  0.65864270000E+03 0.  1.
    8880022    1    1    2    0    0 -0.19494315914E+03 -0.33731664759E+03  0.81496934142E+03  0.91616157773E+03  0.15294330000E+03 0.  0.
<mgrwt>
<rscale>  0 0.65808775E+03</rscale>
<asrwt>0</asrwt>
<pdfrwt beam="1">  1        1 0.18504476E+00 0.76524216E+03</pdfrwt>
<pdfrwt beam="2">  1       -1 0.74572879E-01 0.76524216E+03</pdfrwt>
<totfact> 0.19807016E+01</totfact>
</mgrwt>
</event>
<event>
 4    1  0.2514307E-008  0.1215828E+04  0.7818608E-02  0.9141888E-01
          1   -1    0    0  501    0  0.00000000000E+00  0.00000000000E+00  0.18374029770E+04  0.18374029770E+04  0.50400000000E-02 0. -1.
         -1   -1    0    0    0  501 -0.00000000000E+00 -0.00000000000E+00 -0.16028194634E+04  0.16028194634E+04  0.50400000000E-02 0.  1.
    8880023    1    1    2    0    0  0.10215167534E+04  0.30522606118E+02 -0.11760801630E+04  0.16915681668E+04  0.65864270000E+03 0.  1.
    8880022    1    1    2    0    0 -0.10215167534E+04 -0.30522606118E+02  0.14106636766E+04  0.17486542736E+04  0.15294330000E+03 0.  0.
<mgrwt>
<rscale>  0 0.11673912E+04</rscale>
<asrwt>0</asrwt>
<pdfrwt beam="1">  1        1 0.28267738E+00 0.12158282E+04</pdfrwt>
<pdfrwt beam="2">  1       -1 0.24658761E+00 0.12158282E+04</pdfrwt>
<totfact> 0.27625076E-01</totfact>
</mgrwt>
</event>
<event>
 4    1  0.2514307E-008  0.8124253E+03  0.7818608E-02  0.9684547E-01
         -1   -1    0    0    0  501 -0.00000000000E+00  0.00000000000E+00  0.74044522807E+03  0.74044522809E+03  0.50400000000E-02 0.  1.
          1   -1    0    0  501    0  0.00000000000E+00 -0.00000000000E+00 -0.86129081848E+03  0.86129081849E+03  0.50400000000E-02 0. -1.
    8880023    1    1    2    0    0  0.16680407586E+03 -0.44542234442E+03  0.37769804968E+03  0.89593006849E+03  0.65864270000E+03 0.  1.
    8880022    1    1    2    0    0 -0.16680407586E+03  0.44542234442E+03 -0.49854364009E+03  0.70580597809E+03  0.15294330000E+03 0.  0.
<mgrwt>
<rscale>  0 0.71944351E+03</rscale>
<asrwt>0</asrwt>
<pdfrwt beam="1">  1        1 0.13250628E+00 0.81242530E+03</pdfrwt>
<pdfrwt beam="2">  1       -1 0.11391465E+00 0.81242530E+03</pdfrwt>
<totfact> 0.14061410E+01</totfact>
</mgrwt>
</event>
<event>
 4    1  0.2514307E-008  0.7408361E+03  0.7818608E-02  0.9857518E-01
         -1   -1    0    0    0  501 -0.00000000000E+00  0.00000000000E+00  0.27742229853E+03  0.27742229857E+03  0.50400000000E-02 0.  1.
          1   -1    0    0  501    0  0.00000000000E+00 -0.00000000000E+00 -0.11518813333E+04  0.11518813333E+04  0.50400000000E-02 0. -1.
    8880023    1    1    2    0    0 -0.89932853494E+02 -0.32701679853E+03 -0.69670371604E+03  0.10169730473E+04  0.65864270000E+03 0.  0.
    8880022    1    1    2    0    0  0.89932853494E+02  0.32701679853E+03 -0.17775531874E+03  0.41233058462E+03  0.15294330000E+03 0.  0.
<mgrwt>
<rscale>  0 0.62365051E+03</rscale>
<asrwt>0</asrwt>
<pdfrwt beam="1">  1        1 0.17721251E+00 0.74083609E+03</pdfrwt>
<pdfrwt beam="2">  1       -1 0.42680354E-01 0.74083609E+03</pdfrwt>
<totfact> 0.64184917E+01</totfact>
</mgrwt>
</event>
<event>
 4    1  0.2514307E-008  0.1207261E+04  0.7818608E-02  0.9150096E-01
         -1   -1    0    0    0  501 -0.00000000000E+00  0.00000000000E+00  0.10369848631E+04  0.10369848631E+04  0.50400000000E-02 0.  1.
          1   -1    0    0  501    0  0.00000000000E+00 -0.00000000000E+00 -0.17635125004E+04  0.17635125004E+04  0.50400000000E-02 0. -1.
    8880023    1    1    2    0    0  0.58376978141E+03 -0.82636636786E+03  0.40644068533E+03  0.12738417361E+04  0.65864270000E+03 0.  0.
    8880022    1    1    2    0    0 -0.58376978141E+03  0.82636636786E+03 -0.11329683226E+04  0.15266556274E+04  0.15294330000E+03 0.  0.
<mgrwt>
<rscale>  0 0.11583700E+04</rscale>
<asrwt>0</asrwt>
<pdfrwt beam="1">  1        1 0.27130962E+00 0.12072608E+04</pdfrwt>
<pdfrwt beam="2">  1       -1 0.15953613E+00 0.12072608E+04</pdfrwt>
<totfact> 0.12460096E+00</totfact>
</mgrwt>
</event>
<event>
 4    1  0.2514307E-008  0.9072979E+03  0.7818608E-02  0.9514416E-01
         -1   -1    0    0    0  501 -0.00000000000E+00  0.00000000000E+00  0.11262643958E+04  0.11262643958E+04  0.50400000000E-02 0.  1.
          1   -1    0    0  501    0  0.00000000000E+00 -0.00000000000E+00 -0.14765827983E+04  0.14765827983E+04  0.50400000000E-02 0. -1.
    8880023    1    1    2    0    0  0.20434552784E+03  0.58959492324E+03  0.84881378906E+03  0.12424469095E+04  0.65864270000E+03 0.  1.
    8880022    1    1    2    0    0 -0.20434552784E+03 -0.58959492324E+03 -0.11991321916E+04  0.13604002846E+04  0.15294330000E+03 0.  0.
<mgrwt>
<rscale>  0 0.83229266E+03</rscale>
<asrwt>0</asrwt>
<pdfrwt beam="1">  1        1 0.22716658E+00 0.90729790E+03</pdfrwt>
<pdfrwt beam="2">  1       -1 0.17327145E+00 0.90729790E+03</pdfrwt>
<totfact> 0.16129498E+00</totfact>
</mgrwt>
</event>
<event>
 4    1  0.2514307E-008  0.7003163E+03  0.7818608E-02  0.9995892E-01
          1   -1    0    0  501    0  0.00000000000E+00  0.00000000000E+00  0.25513927324E+04  0.25513927324E+04  0.50400000000E-02 0. -1.
         -1   -1    0    0    0  501 -0.00000000000E+00 -0.00000000000E+00 -0.77287372133E+03  0.77287372135E+03  0.50400000000E-02 0.  1.
    8880023    1    1    2    0    0 -0.19450529439E+03 -0.13711437873E+03 -0.60412762453E+03  0.92488542825E+03  0.65864270000E+03 0.  1.
    8880022    1    1    2    0    0  0.19450529439E+03  0.13711437873E+03  0.23826466356E+04  0.23993810255E+04  0.15294330000E+03 0.  0.
<mgrwt>
<rscale>  0 0.55830743E+03</rscale>
<asrwt>0</asrwt>
<pdfrwt beam="1">  1        1 0.39252196E+00 0.70031626E+03</pdfrwt>
<pdfrwt beam="2">  1       -1 0.11890365E+00 0.70031626E+03</pdfrwt>
<totfact> 0.85478595E-01</totfact>
</mgrwt>
</event>
<event>
 4    1  0.2514307E-008  0.7110176E+03  0.7818608E-02  0.9954241E-01
          1   -1    0    0  501    0  0.00000000000E+00  0.00000000000E+00  0.24674334323E+04  0.24674334323E+04  0.50400000000E-02 0. -1.
         -1   -1    0    0    0  501 -0.00000000000E+00 -0.00000000000E+00 -0.47684246989E+03  0.47684246992E+03  0.50400000000E-02 0.  1.
    8880023    1    1    2    0    0  0.14906534697E+03  0.22252045601E+03 -0.19480638679E+03  0.73722151732E+03  0.65864270000E+03 0.  1.
    8880022    1    1    2    0    0 -0.14906534697E+03 -0.22252045601E+03  0.21853973492E+04  0.22070543849E+04  0.15294330000E+03 0.  0.
<mgrwt>
<rscale>  0 0.57703017E+03</rscale>
<asrwt>0</asrwt>
<pdfrwt beam="1">  1        1 0.37960514E+00 0.71101761E+03</pdfrwt>
<pdfrwt beam="2">  1       -1 0.73360380E-01 0.71101761E+03</pdfrwt>
<totfact> 0.28585159E+00</totfact>
</mgrwt>
</event>
<event>
 4    1  0.2514307E-008  0.6654034E+03  0.7818608E-02  0.1019197E+00
         -1   -1    0    0    0  501 -0.00000000000E+00  0.00000000000E+00  0.66655608063E+03  0.66655608065E+03  0.50400000000E-02 0.  1.
          1   -1    0    0  501    0  0.00000000000E+00 -0.00000000000E+00 -0.10282025367E+04  0.10282025367E+04  0.50400000000E-02 0. -1.
    8880023    1    1    2    0    0  0.43388007116E+02  0.84077027796E+02  0.48871167087E+03  0.82559116351E+03  0.65864270000E+03 0.  1.
    8880022    1    1    2    0    0 -0.43388007116E+02 -0.84077027796E+02 -0.85035812693E+03  0.86916745384E+03  0.15294330000E+03 0.  0.
<mgrwt>
<rscale>  0 0.47977376E+03</rscale>
<asrwt>0</asrwt>
<pdfrwt beam="1">  1        1 0.15818501E+00 0.66540339E+03</pdfrwt>
<pdfrwt beam="2">  1       -1 0.10254709E+00 0.66540339E+03</pdfrwt>
<totfact> 0.13504024E+01</totfact>
</mgrwt>
</event>
<event>
 4    1  0.2514307E-008  0.6833189E+03  0.7818608E-02  0.1007505E+00
          1   -1    0    0  501    0  0.00000000000E+00  0.00000000000E+00  0.22806762176E+03  0.22806762181E+03  0.50400000000E-02 0. -1.
         -1   -1    0    0    0  501 -0.00000000000E+00 -0.00000000000E+00 -0.15285058849E+04  0.15285058849E+04  0.50400000000E-02 0.  1.
    8880023    1    1    2    0    0 -0.10765821228E+03  0.14671115031E+03 -0.13506078278E+04  0.15136268243E+04  0.65864270000E+03 0.  1.
    8880022    1    1    2    0    0  0.10765821228E+03 -0.14671115031E+03  0.50169564657E+02  0.24294668248E+03  0.15294330000E+03 0.  0.
<mgrwt>
<rscale>  0 0.52478266E+03</rscale>
<asrwt>0</asrwt>
<pdfrwt beam="1">  1        1 0.35087327E-01 0.68331886E+03</pdfrwt>
<pdfrwt beam="2">  1       -1 0.23515475E+00 0.68331886E+03</pdfrwt>
<totfact> 0.11384684E+01</totfact>
</mgrwt>
</event>
<event>
 4    1  0.2514307E-008  0.1065492E+04  0.7818608E-02  0.9300486E-01
         -1   -1    0    0    0  501 -0.00000000000E+00  0.00000000000E+00  0.91201153497E+03  0.91201153499E+03  0.50400000000E-02 0.  1.
          1   -1    0    0  501    0  0.00000000000E+00 -0.00000000000E+00 -0.13204341071E+04  0.13204341071E+04  0.50400000000E-02 0. -1.
    8880023    1    1    2    0    0  0.57271349153E+03  0.61111496680E+03  0.31943268141E+03  0.11123442319E+04  0.65864270000E+03 0.  0.
    8880022    1    1    2    0    0 -0.57271349153E+03 -0.61111496680E+03 -0.72785525353E+03  0.11201014102E+04  0.15294330000E+03 0.  0.
<mgrwt>
<rscale>  0 0.10073812E+04</rscale>
<asrwt>0</asrwt>
<pdfrwt beam="1">  1        1 0.20314371E+00 0.10654916E+04</pdfrwt>
<pdfrwt beam="2">  1       -1 0.14030947E+00 0.10654916E+04</pdfrwt>
<totfact> 0.36309127E+00</totfact>
</mgrwt>
</event>
<event>
 4    1  0.2514307E-008  0.6848976E+03  0.7818608E-02  0.1006679E+00
         -1   -1    0    0    0  501 -0.00000000000E+00  0.00000000000E+00  0.13179708546E+03  0.13179708556E+03  0.50400000000E-02 0.  1.
          1   -1    0    0  501    0  0.00000000000E+00 -0.00000000000E+00 -0.18359062865E+04  0.18359062865E+04  0.50400000000E-02 0. -1.
    8880023    1    1    2    0    0  0.18047643420E+03  0.51988269580E+02 -0.91940631782E+03  0.11464696712E+04  0.65864270000E+03 0.  1.
    8880022    1    1    2    0    0 -0.18047643420E+03 -0.51988269580E+02 -0.78470288322E+03  0.82123370085E+03  0.15294330000E+03 0.  0.
<mgrwt>
<rscale>  0 0.52816268E+03</rscale>
<asrwt>0</asrwt>
<pdfrwt beam="1">  1        1 0.28244710E+00 0.68489761E+03</pdfrwt>
<pdfrwt beam="2">  1       -1 0.20276476E-01 0.68489761E+03</pdfrwt>
<totfact> 0.79697781E+01</totfact>
</mgrwt>
</event>
<event>
 4    1  0.2514307E-008  0.1749981E+04  0.7818608E-02  0.8750721E-01
          1   -1    0    0  501    0  0.00000000000E+00  0.00000000000E+00  0.19157527771E+04  0.19157527771E+04  0.50400000000E-02 0. -1.
         -1   -1    0    0    0  501 -0.00000000000E+00 -0.00000000000E+00 -0.19220489510E+04  0.19220489511E+04  0.50400000000E-02 0.  1.
    8880023    1    1    2    0    0  0.14630526390E+04 -0.69864256271E+03 -0.91307456641E+03  0.19738641860E+04  0.65864270000E+03 0.  1.
    8880022    1    1    2    0    0 -0.14630526390E+04  0.69864256271E+03  0.90677839248E+03  0.18639375421E+04  0.15294330000E+03 0.  0.
<mgrwt>
<rscale>  0 0.17187871E+04</rscale>
<asrwt>0</asrwt>
<pdfrwt beam="1">  1        1 0.29473120E+00 0.17499813E+04</pdfrwt>
<pdfrwt beam="2">  1       -1 0.29569984E+00 0.17499813E+04</pdfrwt>
<totfact> 0.10968314E-01</totfact>
</mgrwt>
</event>
<event>
 4    1  0.2514307E-008  0.7425858E+03  0.7818608E-02  0.9852478E-01
         -1   -1    0    0    0  501 -0.00000000000E+00  0.00000000000E+00  0.96141707678E+03  0.96141707680E+03  0.50400000000E-02 0.  1.
          1   -1    0    0  501    0  0.00000000000E+00 -0.00000000000E+00 -0.13223397918E+04  0.13223397918E+04  0.50400000000E-02 0. -1.
    8880023    1    1    2    0    0  0.32632786712E+03  0.10551611607E+03  0.78338406526E+03  0.10794092493E+04  0.65864270000E+03 0.  1.
    8880022    1    1    2    0    0 -0.32632786712E+03 -0.10551611607E+03 -0.11443067802E+04  0.12043476192E+04  0.15294330000E+03 0.  0.
<mgrwt>
<rscale>  0 0.62620745E+03</rscale>
<asrwt>0</asrwt>
<pdfrwt beam="1">  1        1 0.20343689E+00 0.74258584E+03</pdfrwt>
<pdfrwt beam="2">  1       -1 0.14791032E+00 0.74258584E+03</pdfrwt>
<totfact> 0.32963348E+00</totfact>
</mgrwt>
</event>
<event>
 4    1  0.2514307E-008  0.6613151E+03  0.7818608E-02  0.1022848E+00
         -1   -1    0    0    0  501 -0.00000000000E+00  0.00000000000E+00  0.58804893082E+03  0.58804893084E+03  0.50400000000E-02 0.  1.
          1   -1    0    0  501    0  0.00000000000E+00 -0.00000000000E+00 -0.41202080363E+03  0.41202080366E+03  0.50400000000E-02 0. -1.
    8880023    1    1    2    0    0 -0.36560316001E+02  0.46806281467E+02  0.36049948368E+03  0.75319158830E+03  0.65864270000E+03 0.  1.
    8880022    1    1    2    0    0  0.36560316001E+02 -0.46806281467E+02 -0.18447135650E+03  0.24687814620E+03  0.15294330000E+03 0.  0.
<mgrwt>
<rscale>  0 0.46672814E+03</rscale>
<asrwt>0</asrwt>
<pdfrwt beam="1">  1        1 0.63387816E-01 0.66131512E+03</pdfrwt>
<pdfrwt beam="2">  1       -1 0.90469066E-01 0.66131512E+03</pdfrwt>
<totfact> 0.70668638E+01</totfact>
</mgrwt>
</event>
<event>
 4    1  0.2514307E-008  0.6924145E+03  0.7818608E-02  0.1003025E+00
          1   -1    0    0  501    0  0.00000000000E+00  0.00000000000E+00  0.20373506874E+04  0.20373506874E+04  0.50400000000E-02 0. -1.
         -1   -1    0    0    0  501 -0.00000000000E+00 -0.00000000000E+00 -0.33451227297E+03  0.33451227301E+03  0.50400000000E-02 0.  1.
    8880023    1    1    2    0    0  0.21123534025E+03  0.31737717732E+02  0.45582919300E+02  0.69391329465E+03  0.65864270000E+03 0.  1.
    8880022    1    1    2    0    0 -0.21123534025E+03 -0.31737717732E+02  0.16572554952E+04  0.16779496658E+04  0.15294330000E+03 0.  0.
<mgrwt>
<rscale>  0 0.54343292E+03</rscale>
<asrwt>0</asrwt>
<pdfrwt beam="1">  1        1 0.31343857E+00 0.69241451E+03</pdfrwt>
<pdfrwt beam="2">  1       -1 0.51463427E-01 0.69241451E+03</pdfrwt>
<totfact> 0.11269881E+01</totfact>
</mgrwt>
</event>
<event>
 4    1  0.2514307E-008  0.1009734E+04  0.7818608E-02  0.9368933E-01
         -1   -1    0    0    0  501 -0.00000000000E+00  0.00000000000E+00  0.16781051684E+04  0.16781051684E+04  0.50400000000E-02 0.  1.
          1   -1    0    0  501    0  0.00000000000E+00 -0.00000000000E+00 -0.50648572316E+03  0.50648572318E+03  0.50400000000E-02 0. -1.
    8880023    1    1    2    0    0  0.75702492114E+03  0.11253841831E+03  0.91602617653E+03  0.13633289365E+04  0.65864270000E+03 0.  0.
    8880022    1    1    2    0    0 -0.75702492114E+03 -0.11253841831E+03  0.25559326874E+03  0.82126195508E+03  0.15294330000E+03 0.  0.
<mgrwt>
<rscale>  0 0.94677116E+03</rscale>
<asrwt>0</asrwt>
<pdfrwt beam="1">  1        1 0.77920883E-01 0.10097335E+04</pdfrwt>
<pdfrwt beam="2">  1       -1 0.25817002E+00 0.10097335E+04</pdfrwt>
<totfact> 0.27069368E+00</totfact>
</mgrwt>
</event>
<event>
 4    1  0.2514307E-008  0.1652954E+04  0.7818608E-02  0.8808559E-01
         -1   -1    0    0    0  501 -0.00000000000E+00  0.00000000000E+00  0.15418248604E+04  0.15418248604E+04  0.50400000000E-02 0.  1.
          1   -1    0    0  501    0  0.00000000000E+00 -0.00000000000E+00 -0.19916623097E+04  0.19916623097E+04  0.50400000000E-02 0. -1.
    8880023    1    1    2    0    0  0.14944159517E+04  0.25527873847E+03 -0.97821528072E+03  0.19207190353E+04  0.65864270000E+03 0.  0.
    8880022    1    1    2    0    0 -0.14944159517E+04 -0.25527873847E+03  0.52837783136E+03  0.16127681348E+04  0.15294330000E+03 0.  0.
<mgrwt>
<rscale>  0 0.16196625E+04</rscale>
<asrwt>0</asrwt>
<pdfrwt beam="1">  1        1 0.30640959E+00 0.16529539E+04</pdfrwt>
<pdfrwt beam="2">  1       -1 0.23720382E+00 0.16529539E+04</pdfrwt>
<totfact> 0.23692016E-01</totfact>
</mgrwt>
</event>
<event>
 4    1  0.2514307E-008  0.2059622E+04  0.7818608E-02  0.8591075E-01
         -1   -1    0    0    0  501 -0.00000000000E+00  0.00000000000E+00  0.13893031618E+04  0.13893031618E+04  0.50400000000E-02 0.  1.
          1   -1    0    0  501    0  0.00000000000E+00 -0.00000000000E+00 -0.32258598720E+04  0.32258598721E+04  0.50400000000E-02 0. -1.
    8880023    1    1    2    0    0 -0.95951408304E+03 -0.16992839593E+04 -0.21036017413E+03  0.20703368951E+04  0.65864270000E+03 0.  0.
    8880022    1    1    2    0    0  0.95951408304E+03  0.16992839593E+04 -0.16261965361E+04  0.25448261388E+04  0.15294330000E+03 0.  0.
<mgrwt>
<rscale>  0 0.20335907E+04</rscale>
<asrwt>0</asrwt>
<pdfrwt beam="1">  1        1 0.49628613E+00 0.20596222E+04</pdfrwt>
<pdfrwt beam="2">  1       -1 0.21373895E+00 0.20596222E+04</pdfrwt>
<totfact> 0.43738818E-02</totfact>
</mgrwt>
</event>
<event>
 4    1  0.2514307E-008  0.9150888E+03  0.7818608E-02  0.9502231E-01
         -1   -1    0    0    0  501 -0.00000000000E+00  0.00000000000E+00  0.96326333868E+03  0.96326333870E+03  0.50400000000E-02 0.  1.
          1   -1    0    0  501    0  0.00000000000E+00 -0.00000000000E+00 -0.18358654168E+04  0.18358654168E+04  0.50400000000E-02 0. -1.
    8880023    1    1    2    0    0 -0.28935218461E+03  0.56555519580E+03  0.66317186283E+03  0.11301258745E+04  0.65864270000E+03 0.  1.
    8880022    1    1    2    0    0  0.28935218461E+03 -0.56555519580E+03 -0.15357739410E+04  0.16690028811E+04  0.15294330000E+03 0.  0.
<mgrwt>
<rscale>  0 0.84119559E+03</rscale>
<asrwt>0</asrwt>
<pdfrwt beam="1">  1        1 0.28244083E+00 0.91508883E+03</pdfrwt>
<pdfrwt beam="2">  1       -1 0.14819436E+00 0.91508883E+03</pdfrwt>
<totfact> 0.14196070E+00</totfact>
</mgrwt>
</event>
<event>
 4    1  0.2514307E-008  0.7335459E+03  0.7818608E-02  0.9879163E-01
         -1   -1    0    0    0  501 -0.00000000000E+00  0.00000000000E+00  0.23887767961E+03  0.23887767966E+03  0.50400000000E-02 0.  1.
          1   -1    0    0  501    0  0.00000000000E+00 -0.00000000000E+00 -0.46046070320E+04  0.46046070320E+04  0.50400000000E-02 0. -1.
    8880023    1    1    2    0    0  0.28671125785E+03  0.14858000629E+03 -0.35155188245E+03  0.81343610441E+03  0.65864270000E+03 0.  1.
    8880022    1    1    2    0    0 -0.28671125785E+03 -0.14858000629E+03 -0.40141774699E+04  0.40300486073E+04  0.15294330000E+03 0.  0.
<mgrwt>
<rscale>  0 0.61281869E+03</rscale>
<asrwt>0</asrwt>
<pdfrwt beam="1">  1        1 0.70840102E+00 0.73354589E+03</pdfrwt>
<pdfrwt beam="2">  1       -1 0.36750416E-01 0.73354589E+03</pdfrwt>
<totfact> 0.20390096E-01</totfact>
</mgrwt>
</event>
<event>
 4    1  0.2514307E-008  0.7845044E+03  0.7818608E-02  0.9745360E-01
          1   -1    0    0  501    0  0.00000000000E+00  0.00000000000E+00  0.20154224365E+04  0.20154224365E+04  0.50400000000E-02 0. -1.
         -1   -1    0    0    0  501 -0.00000000000E+00 -0.00000000000E+00 -0.15790793037E+04  0.15790793037E+04  0.50400000000E-02 0.  1.
    8880023    1    1    2    0    0 -0.80849700185E+02 -0.41844987597E+03 -0.14532148145E+04  0.16514479937E+04  0.65864270000E+03 0.  0.
    8880022    1    1    2    0    0  0.80849700185E+02  0.41844987597E+03  0.18895579473E+04  0.19430537465E+04  0.15294330000E+03 0. -1.
<mgrwt>
<rscale>  0 0.68379096E+03</rscale>
<asrwt>0</asrwt>
<pdfrwt beam="1">  1        1 0.31006499E+00 0.78450442E+03</pdfrwt>
<pdfrwt beam="2">  1       -1 0.24293528E+00 0.78450442E+03</pdfrwt>
<totfact> 0.23996423E-01</totfact>
</mgrwt>
</event>
<event>
 4    1  0.2514307E-008  0.1227450E+04  0.7818608E-02  0.9130890E-01
         -1   -1    0    0    0  501 -0.00000000000E+00  0.00000000000E+00  0.13061138899E+04  0.13061138899E+04  0.50400000000E-02 0.  1.
          1   -1    0    0  501    0  0.00000000000E+00 -0.00000000000E+00 -0.13734154644E+04  0.13734154644E+04  0.50400000000E-02 0. -1.
    8880023    1    1    2    0    0 -0.88010877414E+03 -0.54610636217E+03 -0.74168875067E+03  0.14341324982E+04  0.65864270000E+03 0.  0.
    8880022    1    1    2    0    0  0.88010877414E+03  0.54610636217E+03  0.67438717617E+03  0.12453968562E+04  0.15294330000E+03 0.  0.
<mgrwt>
<rscale>  0 0.11796139E+04</rscale>
<asrwt>0</asrwt>
<pdfrwt beam="1">  1        1 0.21129469E+00 0.12274501E+04</pdfrwt>
<pdfrwt beam="2">  1       -1 0.20094060E+00 0.12274501E+04</pdfrwt>
<totfact> 0.11615575E+00</totfact>
</mgrwt>
</event>
<event>
 4    1  0.2514307E-008  0.1250767E+04  0.7818608E-02  0.9109286E-01
          1   -1    0    0  501    0  0.00000000000E+00  0.00000000000E+00  0.24621157936E+04  0.24621157936E+04  0.50400000000E-02 0. -1.
         -1   -1    0    0    0  501 -0.00000000000E+00 -0.00000000000E+00 -0.59437845791E+03  0.59437845793E+03  0.50400000000E-02 0.  1.
    8880023    1    1    2    0    0  0.14409539261E+03  0.10534915094E+04  0.14210187925E+04  0.18930695860E+04  0.65864270000E+03 0. -1.
    8880022    1    1    2    0    0 -0.14409539261E+03 -0.10534915094E+04  0.44671854319E+03  0.11634246655E+04  0.15294330000E+03 0.  0.
<mgrwt>
<rscale>  0 0.12040874E+04</rscale>
<asrwt>0</asrwt>
<pdfrwt beam="1">  1        1 0.37878703E+00 0.12507670E+04</pdfrwt>
<pdfrwt beam="2">  1       -1 0.91442842E-01 0.12507670E+04</pdfrwt>
<totfact> 0.16521138E+00</totfact>
</mgrwt>
</event>
<event>
 4    1  0.2514307E-008  0.8817296E+03  0.7818608E-02  0.9556022E-01
         -1   -1    0    0    0  501 -0.00000000000E+00  0.00000000000E+00  0.39924507544E+03  0.39924507547E+03  0.50400000000E-02 0.  1.
          1   -1    0    0  501    0  0.00000000000E+00 -0.00000000000E+00 -0.18338482166E+04  0.18338482166E+04  0.50400000000E-02 0. -1.
    8880023    1    1    2    0    0  0.58276676570E+03  0.63401174794E+02 -0.27304691037E+03  0.92303934569E+03  0.65864270000E+03 0.  1.
    8880022    1    1    2    0    0 -0.58276676570E+03 -0.63401174794E+02 -0.11615562308E+04  0.13100539464E+04  0.15294330000E+03 0.  0.
<mgrwt>
<rscale>  0 0.80276609E+03</rscale>
<asrwt>0</asrwt>
<pdfrwt beam="1">  1        1 0.28213049E+00 0.88172956E+03</pdfrwt>
<pdfrwt beam="2">  1       -1 0.61422320E-01 0.88172956E+03</pdfrwt>
<totfact> 0.10633753E+01</totfact>
</mgrwt>
</event>
<event>
 4    1  0.2514307E-008  0.1351170E+04  0.7818608E-02  0.9022585E-01
          1   -1    0    0  501    0  0.00000000000E+00  0.00000000000E+00  0.15251825103E+04  0.15251825103E+04  0.50400000000E-02 0. -1.
         -1   -1    0    0    0  501 -0.00000000000E+00 -0.00000000000E+00 -0.11561915436E+04  0.11561915436E+04  0.50400000000E-02 0.  1.
    8880023    1    1    2    0    0 -0.84286670101E+02 -0.11767519421E+04 -0.19438159318E+03  0.13650801391E+04  0.65864270000E+03 0. -1.
    8880022    1    1    2    0    0  0.84286670101E+02  0.11767519421E+04  0.56337255981E+03  0.13162939148E+04  0.15294330000E+03 0.  1.
<mgrwt>
<rscale>  0 0.13088390E+04</rscale>
<asrwt>0</asrwt>
<pdfrwt beam="1">  1        1 0.23464346E+00 0.13511697E+04</pdfrwt>
<pdfrwt beam="2">  1       -1 0.17787562E+00 0.13511697E+04</pdfrwt>
<totfact> 0.13053472E+00</totfact>
</mgrwt>
</event>
<event>
 4    1  0.2514307E-008  0.6955935E+03  0.7818608E-02  0.1001600E+00
          1   -1    0    0  501    0  0.00000000000E+00  0.00000000000E+00  0.10446364329E+04  0.10446364329E+04  0.50400000000E-02 0. -1.
         -1   -1    0    0    0  501 -0.00000000000E+00 -0.00000000000E+00 -0.56739364462E+03  0.56739364464E+03  0.50400000000E-02 0.  1.
    8880023    1    1    2    0    0 -0.64662938249E+02  0.21414669714E+03 -0.32316276627E+03  0.76699705556E+03  0.65864270000E+03 0.  1.
    8880022    1    1    2    0    0  0.64662938249E+02 -0.21414669714E+03  0.80040555455E+03  0.84503302198E+03  0.15294330000E+03 0.  0.
<mgrwt>
<rscale>  0 0.54954356E+03</rscale>
<asrwt>0</asrwt>
<pdfrwt beam="1">  1        1 0.16071329E+00 0.69559349E+03</pdfrwt>
<pdfrwt beam="2">  1       -1 0.87291331E-01 0.69559349E+03</pdfrwt>
<totfact> 0.18720448E+01</totfact>
</mgrwt>
</event>
<event>
 4    1  0.2514307E-008  0.6756877E+03  0.7818608E-02  0.1011876E+00
         -1   -1    0    0    0  501 -0.00000000000E+00  0.00000000000E+00  0.53058073479E+03  0.53058073481E+03  0.50400000000E-02 0.  1.
          1   -1    0    0  501    0  0.00000000000E+00 -0.00000000000E+00 -0.39492221547E+03  0.39492221550E+03  0.50400000000E-02 0. -1.
    8880023    1    1    2    0    0  0.85919752706E+02  0.12394138477E+03  0.19389373456E+03  0.70295708072E+03  0.65864270000E+03 0.  0.
    8880022    1    1    2    0    0 -0.85919752706E+02 -0.12394138477E+03 -0.58235215238E+02  0.22254586959E+03  0.15294330000E+03 0.  0.
<mgrwt>
<rscale>  0 0.50735706E+03</rscale>
<asrwt>0</asrwt>
<pdfrwt beam="1">  1        1 0.60757264E-01 0.67568771E+03</pdfrwt>
<pdfrwt beam="2">  1       -1 0.81627806E-01 0.67568771E+03</pdfrwt>
<totfact> 0.93272510E+01</totfact>
</mgrwt>
</event>
<event>
 4    1  0.2514307E-008  0.8213539E+03  0.7818608E-02  0.9666395E-01
          1   -1    0    0  501    0  0.00000000000E+00  0.00000000000E+00  0.73865187331E+03  0.73865187333E+03  0.50400000000E-02 0. -1.
         -1   -1    0    0    0  501 -0.00000000000E+00 -0.00000000000E+00 -0.11877440332E+04  0.11877440332E+04  0.50400000000E-02 0.  1.
    8880023    1    1    2    0    0 -0.22774855372E+03  0.43467539196E+03 -0.91717702554E+03  0.12311929185E+04  0.65864270000E+03 0.  1.
    8880022    1    1    2    0    0  0.22774855372E+03 -0.43467539196E+03  0.46808486566E+03  0.69520298804E+03  0.15294330000E+03 0.  0.
<mgrwt>
<rscale>  0 0.73053350E+03</rscale>
<asrwt>0</asrwt>
<pdfrwt beam="1">  1        1 0.11363875E+00 0.82135395E+03</pdfrwt>
<pdfrwt beam="2">  1       -1 0.18272985E+00 0.82135395E+03</pdfrwt>
<totfact> 0.51156345E+00</totfact>
</mgrwt>
</event>
<event>
 4    1  0.2514307E-008  0.7503623E+03  0.7818608E-02  0.9830729E-01
          1   -1    0    0  501    0  0.00000000000E+00  0.00000000000E+00  0.16344591265E+04  0.16344591265E+04  0.50400000000E-02 0. -1.
         -1   -1    0    0    0  501 -0.00000000000E+00 -0.00000000000E+00 -0.39470057883E+03  0.39470057886E+03  0.50400000000E-02 0.  1.
    8880023    1    1    2    0    0  0.35939437267E+03 -0.83115567139E+01  0.22450432665E+02  0.75069809196E+03  0.65864270000E+03 0.  1.
    8880022    1    1    2    0    0 -0.35939437267E+03  0.83115567139E+01  0.12173081150E+04  0.12784616134E+04  0.15294330000E+03 0. -1.
<mgrwt>
<rscale>  0 0.63739182E+03</rscale>
<asrwt>0</asrwt>
<pdfrwt beam="1">  1        1 0.25145525E+00 0.75036231E+03</pdfrwt>
<pdfrwt beam="2">  1       -1 0.60723165E-01 0.75036231E+03</pdfrwt>
<totfact> 0.15085545E+01</totfact>
</mgrwt>
</event>
<event>
 4    1  0.2514307E-008  0.7259531E+03  0.7818608E-02  0.9902934E-01
         -1   -1    0    0    0  501 -0.00000000000E+00  0.00000000000E+00  0.28226249077E+03  0.28226249081E+03  0.50400000000E-02 0.  1.
          1   -1    0    0  501    0  0.00000000000E+00 -0.00000000000E+00 -0.23665990758E+04  0.23665990758E+04  0.50400000000E-02 0. -1.
    8880023    1    1    2    0    0  0.29470028558E+03  0.79683464088E+02 -0.22731615994E+03  0.76071055968E+03  0.65864270000E+03 0.  1.
    8880022    1    1    2    0    0 -0.29470028558E+03 -0.79683464088E+02 -0.18570204251E+04  0.18881510069E+04  0.15294330000E+03 0.  0.
<mgrwt>
<rscale>  0 0.60119283E+03</rscale>
<asrwt>0</asrwt>
<pdfrwt beam="1">  1        1 0.36409215E+00 0.72595311E+03</pdfrwt>
<pdfrwt beam="2">  1       -1 0.43425000E-01 0.72595311E+03</pdfrwt>
<totfact> 0.92606319E+00</totfact>
</mgrwt>
</event>
<event>
 4    1  0.2514307E-008  0.7029841E+03  0.7818608E-02  0.9985040E-01
         -1   -1    0    0    0  501 -0.00000000000E+00  0.00000000000E+00  0.11962425025E+04  0.11962425025E+04  0.50400000000E-02 0.  1.
          1   -1    0    0  501    0  0.00000000000E+00 -0.00000000000E+00 -0.47888387916E+03  0.47888387919E+03  0.50400000000E-02 0. -1.
    8880023    1    1    2    0    0  0.15903402558E+03  0.18730874017E+03  0.10313149738E+04  0.12481174492E+04  0.65864270000E+03 0.  0.
    8880022    1    1    2    0    0 -0.15903402558E+03 -0.18730874017E+03 -0.31395635048E+03  0.42700893253E+03  0.15294330000E+03 0. -1.
<mgrwt>
<rscale>  0 0.56311086E+03</rscale>
<asrwt>0</asrwt>
<pdfrwt beam="1">  1        1 0.73674443E-01 0.70298406E+03</pdfrwt>
<pdfrwt beam="2">  1       -1 0.18403731E+00 0.70298406E+03</pdfrwt>
<totfact> 0.95030375E+00</totfact>
</mgrwt>
</event>
<event>
 4    1  0.2514307E-008  0.8529921E+03  0.7818608E-02  0.9606153E-01
         -1   -1    0    0    0  501 -0.00000000000E+00  0.00000000000E+00  0.53894601215E+03  0.53894601218E+03  0.50400000000E-02 0.  1.
          1   -1    0    0  501    0  0.00000000000E+00 -0.00000000000E+00 -0.11757641132E+04  0.11757641132E+04  0.50400000000E-02 0. -1.
    8880023    1    1    2    0    0  0.27397707484E+03  0.46767704403E+03  0.15215087596E+02  0.85312775140E+03  0.65864270000E+03 0.  1.
    8880022    1    1    2    0    0 -0.27397707484E+03 -0.46767704403E+03 -0.65203318863E+03  0.86158237397E+03  0.15294330000E+03 0.  0.
<mgrwt>
<rscale>  0 0.76890279E+03</rscale>
<asrwt>0</asrwt>
<pdfrwt beam="1">  1        1 0.18088679E+00 0.85299206E+03</pdfrwt>
<pdfrwt beam="2">  1       -1 0.82914771E-01 0.85299206E+03</pdfrwt>
<totfact> 0.16389579E+01</totfact>
</mgrwt>
</event>
<event>
 4    1  0.2514307E-008  0.7097860E+03  0.7818608E-02  0.9958797E-01
          1   -1    0    0  501    0  0.00000000000E+00  0.00000000000E+00  0.29162892824E+04  0.29162892824E+04  0.50400000000E-02 0. -1.
         -1   -1    0    0    0  501 -0.00000000000E+00 -0.00000000000E+00 -0.26719413069E+03  0.26719413074E+03  0.50400000000E-02 0.  1.
    8880023    1    1    2    0    0 -0.13878751998E+03 -0.22521970275E+03  0.23139992587E+03  0.74655342887E+03  0.65864270000E+03 0.  0.
    8880022    1    1    2    0    0  0.13878751998E+03  0.22521970275E+03  0.24176952259E+04  0.24369299843E+04  0.15294330000E+03 0.  0.
<mgrwt>
<rscale>  0 0.57494441E+03</rscale>
<asrwt>0</asrwt>
<pdfrwt beam="1">  1        1 0.44865992E+00 0.70978595E+03</pdfrwt>
<pdfrwt beam="2">  1       -1 0.41106787E-01 0.70978595E+03</pdfrwt>
<totfact> 0.42851795E+00</totfact>
</mgrwt>
</event>
<event>
 4    1  0.2514307E-008  0.9980749E+03  0.7818608E-02  0.9384081E-01
          1   -1    0    0  501    0  0.00000000000E+00  0.00000000000E+00  0.32997402638E+04  0.32997402638E+04  0.50400000000E-02 0. -1.
         -1   -1    0    0    0  501 -0.00000000000E+00 -0.00000000000E+00 -0.33294668799E+03  0.33294668803E+03  0.50400000000E-02 0.  1.
    8880023    1    1    2    0    0  0.71240035583E+03  0.23415585196E+03  0.64584630194E+03  0.11888107007E+04  0.65864270000E+03 0.  1.
    8880022    1    1    2    0    0 -0.71240035583E+03 -0.23415585196E+03  0.23209472738E+04  0.24438762512E+04  0.15294330000E+03 0.  0.
<mgrwt>
<rscale>  0 0.93397441E+03</rscale>
<asrwt>0</asrwt>
<pdfrwt beam="1">  1        1 0.50765236E+00 0.99807487E+03</pdfrwt>
<pdfrwt beam="2">  1       -1 0.51222567E-01 0.99807487E+03</pdfrwt>
<totfact> 0.14171579E+00</totfact>
</mgrwt>
</event>
<event>
 4    1  0.2514307E-008  0.1055799E+04  0.7818608E-02  0.9311942E-01
         -1   -1    0    0    0  501 -0.00000000000E+00  0.00000000000E+00  0.13583339568E+04  0.13583339568E+04  0.50400000000E-02 0.  1.
          1   -1    0    0  501    0  0.00000000000E+00 -0.00000000000E+00 -0.20057685391E+04  0.20057685391E+04  0.50400000000E-02 0. -1.
    8880023    1    1    2    0    0  0.82701938215E+01  0.82512625312E+03 -0.17102534535E+04  0.20098952239E+04  0.65864270000E+03 0.  0.
    8880022    1    1    2    0    0 -0.82701938215E+01 -0.82512625312E+03  0.10628188712E+04  0.13542072720E+04  0.15294330000E+03 0.  0.
<mgrwt>
<rscale>  0 0.99690826E+03</rscale>
<asrwt>0</asrwt>
<pdfrwt beam="1">  1        1 0.30857978E+00 0.10557992E+04</pdfrwt>
<pdfrwt beam="2">  1       -1 0.20897445E+00 0.10557992E+04</pdfrwt>
<totfact> 0.38724962E-01</totfact>
</mgrwt>
</event>
<event>
 4    1  0.2514307E-008  0.6836946E+03  0.7818608E-02  0.1007306E+00
          1   -1    0    0  501    0  0.00000000000E+00  0.00000000000E+00  0.25536796720E+04  0.25536796720E+04  0.50400000000E-02 0. -1.
         -1   -1    0    0    0  501 -0.00000000000E+00 -0.00000000000E+00 -0.52043464643E+03  0.52043464646E+03  0.50400000000E-02 0.  1.
    8880023    1    1    2    0    0 -0.65426672046E+02  0.17131089136E+03 -0.28708996436E+03  0.74152472974E+03  0.65864270000E+03 0.  1.
    8880022    1    1    2    0    0  0.65426672046E+02 -0.17131089136E+03  0.23203349899E+04  0.23325895887E+04  0.15294330000E+03 0.  0.
<mgrwt>
<rscale>  0 0.52559320E+03</rscale>
<asrwt>0</asrwt>
<pdfrwt beam="1">  1        1 0.39287380E+00 0.68369458E+03</pdfrwt>
<pdfrwt beam="2">  1       -1 0.80066868E-01 0.68369458E+03</pdfrwt>
<totfact> 0.20909146E+00</totfact>
</mgrwt>
</event>
<event>
 4    1  0.2514307E-008  0.7928625E+03  0.7818608E-02  0.9726447E-01
         -1   -1    0    0    0  501 -0.00000000000E+00  0.00000000000E+00  0.10687127497E+04  0.10687127497E+04  0.50400000000E-02 0.  1.
          1   -1    0    0  501    0  0.00000000000E+00 -0.00000000000E+00 -0.12685074716E+04  0.12685074716E+04  0.50400000000E-02 0. -1.
    8880023    1    1    2    0    0 -0.80433280343E+02 -0.43399443890E+03  0.86564713928E+03  0.11738721658E+04  0.65864270000E+03 0.  0.
    8880022    1    1    2    0    0  0.80433280343E+02  0.43399443890E+03 -0.10654418612E+04  0.11633480555E+04  0.15294330000E+03 0.  0.
<mgrwt>
<rscale>  0 0.69463763E+03</rscale>
<asrwt>0</asrwt>
<pdfrwt beam="1">  1        1 0.19515499E+00 0.79286247E+03</pdfrwt>
<pdfrwt beam="2">  1       -1 0.16441735E+00 0.79286247E+03</pdfrwt>
<totfact> 0.26703413E+00</totfact>
</mgrwt>
</event>
<event>
 4    1  0.2514307E-008  0.8111873E+03  0.7818608E-02  0.9687109E-01
         -1   -1    0    0    0  501 -0.00000000000E+00  0.00000000000E+00  0.85383457272E+03  0.85383457273E+03  0.50400000000E-02 0.  1.
          1   -1    0    0  501    0  0.00000000000E+00 -0.00000000000E+00 -0.34979530621E+04  0.34979530621E+04  0.50400000000E-02 0. -1.
    8880023    1    1    2    0    0 -0.24288827112E+03  0.40647257668E+03  0.63808787005E+03  0.10320760650E+04  0.65864270000E+03 0.  0.
    8880022    1    1    2    0    0  0.24288827112E+03 -0.40647257668E+03 -0.32822063594E+04  0.33197115698E+04  0.15294330000E+03 0. -1.
<mgrwt>
<rscale>  0 0.71789525E+03</rscale>
<asrwt>0</asrwt>
<pdfrwt beam="1">  1        1 0.53814662E+00 0.81118732E+03</pdfrwt>
<pdfrwt beam="2">  1       -1 0.13135917E+00 0.81118732E+03</pdfrwt>
<totfact> 0.13442716E-01</totfact>
</mgrwt>
</event>
<event>
 4    1  0.2514307E-008  0.6814374E+03  0.7818608E-02  0.1008522E+00
          1   -1    0    0  501    0  0.00000000000E+00  0.00000000000E+00  0.10569474990E+04  0.10569474990E+04  0.50400000000E-02 0. -1.
         -1   -1    0    0    0  501 -0.00000000000E+00 -0.00000000000E+00 -0.91012240923E+03  0.91012240924E+03  0.50400000000E-02 0.  1.
    8880023    1    1    2    0    0  0.54011224292E+02  0.16622130816E+03 -0.76595648714E+03  0.10252054829E+04  0.65864270000E+03 0.  1.
    8880022    1    1    2    0    0 -0.54011224292E+02 -0.16622130816E+03  0.91278157691E+03  0.94186442538E+03  0.15294330000E+03 0.  0.
<mgrwt>
<rscale>  0 0.52066301E+03</rscale>
<asrwt>0</asrwt>
<pdfrwt beam="1">  1        1 0.16260731E+00 0.68143741E+03</pdfrwt>
<pdfrwt beam="2">  1       -1 0.14001883E+00 0.68143741E+03</pdfrwt>
<totfact> 0.59996977E+00</totfact>
</mgrwt>
</event>
<event>
 4    1  0.2514307E-008  0.1787570E+04  0.7818608E-02  0.8729444E-01
          1   -1    0    0  501    0  0.00000000000E+00  0.00000000000E+00  0.28917759126E+04  0.28917759126E+04  0.50400000000E-02 0. -1.
         -1   -1    0    0    0  501 -0.00000000000E+00 -0.00000000000E+00 -0.14873695341E+04  0.14873695341E+04  0.50400000000E-02 0.  1.
    8880023    1    1    2    0    0 -0.14275391380E+04  0.85072234568E+03 -0.49098718686E+03  0.18537732126E+04  0.65864270000E+03 0.  0.
    8880022    1    1    2    0    0  0.14275391380E+04 -0.85072234568E+03  0.18953935654E+04  0.25253722341E+04  0.15294330000E+03 0.  0.
<mgrwt>
<rscale>  0 0.17571151E+04</rscale>
<asrwt>0</asrwt>
<pdfrwt beam="1">  1        1 0.44488860E+00 0.17875701E+04</pdfrwt>
<pdfrwt beam="2">  1       -1 0.22882608E+00 0.17875701E+04</pdfrwt>
<totfact> 0.62788084E-02</totfact>
</mgrwt>
</event>
<event>
 4    1  0.2514307E-008  0.7367162E+03  0.7818608E-02  0.9869618E-01
         -1   -1    0    0    0  501 -0.00000000000E+00  0.00000000000E+00  0.47376607835E+03  0.47376607838E+03  0.50400000000E-02 0.  1.
          1   -1    0    0  501    0  0.00000000000E+00 -0.00000000000E+00 -0.10682719884E+04  0.10682719884E+04  0.50400000000E-02 0. -1.
    8880023    1    1    2    0    0  0.24722419874E+03  0.21867967659E+03  0.11411141984E+03  0.74550132649E+03  0.65864270000E+03 0.  0.
    8880022    1    1    2    0    0 -0.24722419874E+03 -0.21867967659E+03 -0.70861732988E+03  0.79653674028E+03  0.15294330000E+03 0.  0.
<mgrwt>
<rscale>  0 0.61756603E+03</rscale>
<asrwt>0</asrwt>
<pdfrwt beam="1">  1        1 0.16434954E+00 0.73671624E+03</pdfrwt>
<pdfrwt beam="2">  1       -1 0.72887089E-01 0.73671624E+03</pdfrwt>
<totfact> 0.26194286E+01</totfact>
</mgrwt>
</event>
<event>
 4    1  0.2514307E-008  0.7237347E+03  0.7818608E-02  0.9910146E-01
          1   -1    0    0  501    0  0.00000000000E+00  0.00000000000E+00  0.10786919596E+04  0.10786919596E+04  0.50400000000E-02 0. -1.
         -1   -1    0    0    0  501 -0.00000000000E+00 -0.00000000000E+00 -0.55565860524E+03  0.55565860527E+03  0.50400000000E-02 0.  1.
    8880023    1    1    2    0    0  0.16022445213E+02  0.29954123925E+03 -0.27026631687E+03  0.77255146175E+03  0.65864270000E+03 0.  1.
    8880022    1    1    2    0    0 -0.16022445213E+02 -0.29954123925E+03  0.79329967125E+03  0.86179910314E+03  0.15294330000E+03 0.  0.
<mgrwt>
<rscale>  0 0.59772084E+03</rscale>
<asrwt>0</asrwt>
<pdfrwt beam="1">  1        1 0.16595261E+00 0.72373467E+03</pdfrwt>
<pdfrwt beam="2">  1       -1 0.85485940E-01 0.72373467E+03</pdfrwt>
<totfact> 0.18393718E+01</totfact>
</mgrwt>
</event>
<event>
 4    1  0.2514307E-008  0.7784904E+03  0.7818608E-02  0.9759395E-01
         -1   -1    0    0    0  501 -0.00000000000E+00  0.00000000000E+00  0.41407661750E+03  0.41407661754E+03  0.50400000000E-02 0.  1.
          1   -1    0    0  501    0  0.00000000000E+00 -0.00000000000E+00 -0.11898070864E+04  0.11898070865E+04  0.50400000000E-02 0. -1.
    8880023    1    1    2    0    0 -0.29844200592E+03 -0.28839125982E+03 -0.84236016968E+02  0.78303452188E+03  0.65864270000E+03 0.  1.
    8880022    1    1    2    0    0  0.29844200592E+03  0.28839125982E+03 -0.69149445197E+03  0.82084918211E+03  0.15294330000E+03 0.  0.
<mgrwt>
<rscale>  0 0.67587917E+03</rscale>
<asrwt>0</asrwt>
<pdfrwt beam="1">  1        1 0.18304724E+00 0.77849043E+03</pdfrwt>
<pdfrwt beam="2">  1       -1 0.63704095E-01 0.77849043E+03</pdfrwt>
<totfact> 0.27869296E+01</totfact>
</mgrwt>
</event>
<event>
 4    1  0.2514307E-008  0.7276456E+03  0.7818608E-02  0.9897517E-01
          1   -1    0    0  501    0  0.00000000000E+00  0.00000000000E+00  0.30242032946E+03  0.30242032950E+03  0.50400000000E-02 0. -1.
         -1   -1    0    0    0  501 -0.00000000000E+00 -0.00000000000E+00 -0.15556848092E+04  0.15556848092E+04  0.50400000000E-02 0.  1.
    8880023    1    1    2    0    0  0.30561528748E+03  0.47510624560E+02 -0.13194394353E+04  0.15067808709E+04  0.65864270000E+03 0.  1.
    8880022    1    1    2    0    0 -0.30561528748E+03 -0.47510624560E+02  0.66174955511E+02  0.35132426779E+03  0.15294330000E+03 0.  0.
<mgrwt>
<rscale>  0 0.60381785E+03</rscale>
<asrwt>0</asrwt>
<pdfrwt beam="1">  1        1 0.46526206E-01 0.72764563E+03</pdfrwt>
<pdfrwt beam="2">  1       -1 0.23933612E+00 0.72764563E+03</pdfrwt>
<totfact> 0.73814707E+00</totfact>
</mgrwt>
</event>
<event>
 4    1  0.2514307E-008  0.1682143E+04  0.7818608E-02  0.8790695E-01
         -1   -1    0    0    0  501 -0.00000000000E+00  0.00000000000E+00  0.14705015123E+04  0.14705015123E+04  0.50400000000E-02 0.  1.
          1   -1    0    0  501    0  0.00000000000E+00 -0.00000000000E+00 -0.24520256009E+04  0.24520256009E+04  0.50400000000E-02 0. -1.
    8880023    1    1    2    0    0  0.10336785690E+04 -0.11520859520E+04  0.51995596303E+03  0.17606697119E+04  0.65864270000E+03 0.  0.
    8880022    1    1    2    0    0 -0.10336785690E+04  0.11520859520E+04 -0.15014800517E+04  0.21618574012E+04  0.15294330000E+03 0.  0.
<mgrwt>
<rscale>  0 0.16495130E+04</rscale>
<asrwt>0</asrwt>
<pdfrwt beam="1">  1        1 0.37723471E+00 0.16821426E+04</pdfrwt>
<pdfrwt beam="2">  1       -1 0.22623100E+00 0.16821426E+04</pdfrwt>
<totfact> 0.13511390E-01</totfact>
</mgrwt>
</event>
<event>
 4    1  0.2514307E-008  0.1216130E+04  0.7818608E-02  0.9141600E-01
          1   -1    0    0  501    0  0.00000000000E+00  0.00000000000E+00  0.16993597470E+04  0.16993597471E+04  0.50400000000E-02 0. -1.
         -1   -1    0    0    0  501 -0.00000000000E+00 -0.00000000000E+00 -0.13866065208E+04  0.13866065208E+04  0.50400000000E-02 0.  1.
    8880023    1    1    2    0    0 -0.10801291689E+03  0.10166099788E+04 -0.88482591130E+03  0.15039580242E+04  0.65864270000E+03 0.  1.
    8880022    1    1    2    0    0  0.10801291689E+03 -0.10166099788E+04  0.11975791376E+04  0.15820082436E+04  0.15294330000E+03 0.  0.
<mgrwt>
<rscale>  0 0.11677091E+04</rscale>
<asrwt>0</asrwt>
<pdfrwt beam="1">  1        1 0.26143996E+00 0.12161303E+04</pdfrwt>
<pdfrwt beam="2">  1       -1 0.21332408E+00 0.12161303E+04</pdfrwt>
<totfact> 0.56963472E-01</totfact>
</mgrwt>
</event>
<event>
 4    1  0.2514307E-008  0.1038702E+04  0.7818608E-02  0.9332588E-01
         -1   -1    0    0    0  501 -0.00000000000E+00  0.00000000000E+00  0.55257445278E+03  0.55257445280E+03  0.50400000000E-02 0.  1.
          1   -1    0    0  501    0  0.00000000000E+00 -0.00000000000E+00 -0.27003654358E+04  0.27003654358E+04  0.50400000000E-02 0. -1.
    8880023    1    1    2    0    0  0.56533292312E+03 -0.57051714591E+03 -0.94666080507E+02  0.10430067118E+04  0.65864270000E+03 0.  1.
    8880022    1    1    2    0    0 -0.56533292312E+03  0.57051714591E+03 -0.20531249025E+04  0.22099331768E+04  0.15294330000E+03 0.  0.
<mgrwt>
<rscale>  0 0.97837293E+03</rscale>
<asrwt>0</asrwt>
<pdfrwt beam="1">  1        1 0.41544083E+00 0.10387018E+04</pdfrwt>
<pdfrwt beam="2">  1       -1 0.85011456E-01 0.10387018E+04</pdfrwt>
<totfact> 0.13641184E+00</totfact>
</mgrwt>
</event>
<event>
 4    1  0.2514307E-008  0.1256060E+04  0.7818608E-02  0.9104465E-01
          1   -1    0    0  501    0  0.00000000000E+00  0.00000000000E+00  0.24964459405E+04  0.24964459405E+04  0.50400000000E-02 0. -1.
         -1   -1    0    0    0  501 -0.00000000000E+00 -0.00000000000E+00 -0.59220420295E+03  0.59220420297E+03  0.50400000000E-02 0.  1.
    8880023    1    1    2    0    0 -0.10659405808E+04 -0.87450439883E+02  0.59115369614E+03  0.13882182105E+04  0.65864270000E+03 0.  0.
    8880022    1    1    2    0    0  0.10659405808E+04  0.87450439883E+02  0.13130880414E+04  0.17004319330E+04  0.15294330000E+03 0.  0.
<mgrwt>
<rscale>  0 0.12096345E+04</rscale>
<asrwt>0</asrwt>
<pdfrwt beam="1">  1        1 0.38406860E+00 0.12560602E+04</pdfrwt>
<pdfrwt beam="2">  1       -1 0.91108340E-01 0.12560602E+04</pdfrwt>
<totfact> 0.15762886E+00</totfact>
</mgrwt>
</event>
<event>
 4    1  0.2514307E-008  0.7814503E+03  0.7818608E-02  0.9752441E-01
          1   -1    0    0  501    0  0.00000000000E+00  0.00000000000E+00  0.17052551277E+04  0.17052551277E+04  0.50400000000E-02 0. -1.
         -1   -1    0    0    0  501 -0.00000000000E+00 -0.00000000000E+00 -0.43104393253E+03  0.43104393256E+03  0.50400000000E-02 0.  1.
    8880023    1    1    2    0    0 -0.36823496608E+03  0.20311924318E+03 -0.45899919766E+01  0.78146381329E+03  0.65864270000E+03 0.  1.
    8880022    1    1    2    0    0  0.36823496608E+03 -0.20311924318E+03  0.12788011871E+04  0.13548352469E+04  0.15294330000E+03 0.  0.
<mgrwt>
<rscale>  0 0.67978494E+03</rscale>
<asrwt>0</asrwt>
<pdfrwt beam="1">  1        1 0.26234694E+00 0.78145033E+03</pdfrwt>
<pdfrwt beam="2">  1       -1 0.66314451E-01 0.78145033E+03</pdfrwt>
<totfact> 0.11283539E+01</totfact>
</mgrwt>
</event>
<event>
 4    1  0.2514307E-008  0.8386563E+03  0.7818608E-02  0.9632719E-01
         -1   -1    0    0    0  501 -0.00000000000E+00  0.00000000000E+00  0.77985977949E+03  0.77985977951E+03  0.50400000000E-02 0.  1.
          1   -1    0    0  501    0  0.00000000000E+00 -0.00000000000E+00 -0.12969217589E+04  0.12969217589E+04  0.50400000000E-02 0. -1.
    8880023    1    1    2    0    0  0.51846961196E+03  0.26898312469E+02  0.46243556695E+03  0.95770095415E+03  0.65864270000E+03 0.  1.
    8880022    1    1    2    0    0 -0.51846961196E+03 -0.26898312469E+02 -0.97949754632E+03  0.11190805842E+04  0.15294330000E+03 0.  0.
<mgrwt>
<rscale>  0 0.75167958E+03</rscale>
<asrwt>0</asrwt>
<pdfrwt beam="1">  1        1 0.19952642E+00 0.83865634E+03</pdfrwt>
<pdfrwt beam="2">  1       -1 0.11997843E+00 0.83865634E+03</pdfrwt>
<totfact> 0.57707611E+00</totfact>
</mgrwt>
</event>
<event>
 4    1  0.2514307E-008  0.7407599E+03  0.7818608E-02  0.9857739E-01
         -1   -1    0    0    0  501 -0.00000000000E+00  0.00000000000E+00  0.10939281869E+04  0.10939281869E+04  0.50400000000E-02 0.  1.
          1   -1    0    0  501    0  0.00000000000E+00 -0.00000000000E+00 -0.13553683201E+04  0.13553683201E+04  0.50400000000E-02 0. -1.
    8880023    1    1    2    0    0 -0.92246900825E+02  0.32619850634E+03  0.93702104497E+03  0.11944595436E+04  0.65864270000E+03 0.  1.
    8880022    1    1    2    0    0  0.92246900825E+02 -0.32619850634E+03 -0.11984611781E+04  0.12548369634E+04  0.15294330000E+03 0.  0.
<mgrwt>
<rscale>  0 0.62353875E+03</rscale>
<asrwt>0</asrwt>
<pdfrwt beam="1">  1        1 0.20851820E+00 0.74075985E+03</pdfrwt>
<pdfrwt beam="2">  1       -1 0.16829664E+00 0.74075985E+03</pdfrwt>
<totfact> 0.21906072E+00</totfact>
</mgrwt>
</event>
<event>
 4    1  0.2514307E-008  0.1140174E+04  0.7818608E-02  0.9217592E-01
          1   -1    0    0  501    0  0.00000000000E+00  0.00000000000E+00  0.10066476620E+04  0.10066476620E+04  0.50400000000E-02 0. -1.
         -1   -1    0    0    0  501 -0.00000000000E+00 -0.00000000000E+00 -0.11082277123E+04  0.11082277123E+04  0.50400000000E-02 0.  1.
    8880023    1    1    2    0    0 -0.93061171851E+03  0.12198529027E+02 -0.22956970751E+03  0.11630560741E+04  0.65864270000E+03 0.  1.
    8880022    1    1    2    0    0  0.93061171851E+03 -0.12198529027E+02  0.12798965717E+03  0.95181930013E+03  0.15294330000E+03 0. -1.
<mgrwt>
<rscale>  0 0.10873677E+04</rscale>
<asrwt>0</asrwt>
<pdfrwt beam="1">  1        1 0.15486887E+00 0.11401742E+04</pdfrwt>
<pdfrwt beam="2">  1       -1 0.17049657E+00 0.11401742E+04</pdfrwt>
<totfact> 0.36023398E+00</totfact>
</mgrwt>
</event>
<event>
 4    1  0.2514307E-008  0.1145170E+04  0.7818608E-02  0.9212356E-01
         -1   -1    0    0    0  501 -0.00000000000E+00  0.00000000000E+00  0.22974505432E+04  0.22974505432E+04  0.50400000000E-02 0.  1.
          1   -1    0    0  501    0  0.00000000000E+00 -0.00000000000E+00 -0.13034845576E+04  0.13034845576E+04  0.50400000000E-02 0. -1.
    8880023    1    1    2    0    0 -0.93669731059E+03 -0.14229977896E+02  0.19451107870E+04  0.22571819873E+04  0.65864270000E+03 0.  0.
    8880022    1    1    2    0    0  0.93669731059E+03  0.14229977896E+02 -0.95114480139E+03  0.13437531135E+04  0.15294330000E+03 0.  0.
<mgrwt>
<rscale>  0 0.10926797E+04</rscale>
<asrwt>0</asrwt>
<pdfrwt beam="1">  1        1 0.20053609E+00 0.11451701E+04</pdfrwt>
<pdfrwt beam="2">  1       -1 0.35345393E+00 0.11451701E+04</pdfrwt>
<totfact> 0.13214532E-01</totfact>
</mgrwt>
</event>
<event>
 4    1  0.2514307E-008  0.1025921E+04  0.7818608E-02  0.9348404E-01
         -1   -1    0    0    0  501 -0.00000000000E+00  0.00000000000E+00  0.15029069213E+04  0.15029069213E+04  0.50400000000E-02 0.  1.
          1   -1    0    0  501    0  0.00000000000E+00 -0.00000000000E+00 -0.11165621471E+04  0.11165621471E+04  0.50400000000E-02 0. -1.
    8880023    1    1    2    0    0  0.74492992848E+03  0.25255314665E+03  0.11300088598E+04  0.15262483152E+04  0.65864270000E+03 0.  1.
    8880022    1    1    2    0    0 -0.74492992848E+03 -0.25255314665E+03 -0.74366408549E+03  0.10932207532E+04  0.15294330000E+03 0.  0.
<mgrwt>
<rscale>  0 0.96446257E+03</rscale>
<asrwt>0</asrwt>
<pdfrwt beam="1">  1        1 0.17177879E+00 0.10259210E+04</pdfrwt>
<pdfrwt beam="2">  1       -1 0.23121645E+00 0.10259210E+04</pdfrwt>
<totfact> 0.11451512E+00</totfact>
</mgrwt>
</event>
<event>
 4    1  0.2514307E-008  0.1400126E+04  0.7818608E-02  0.8983585E-01
         -1   -1    0    0    0  501 -0.00000000000E+00  0.00000000000E+00  0.17781345011E+04  0.17781345011E+04  0.50400000000E-02 0.  1.
          1   -1    0    0  501    0  0.00000000000E+00 -0.00000000000E+00 -0.19918777154E+04  0.19918777155E+04  0.50400000000E-02 0. -1.
    8880023    1    1    2    0    0 -0.85045999496E+03  0.89624824511E+03  0.12299674737E+04  0.18636451681E+04  0.65864270000E+03 0.  0.
    8880022    1    1    2    0    0  0.85045999496E+03 -0.89624824511E+03 -0.14437106880E+04  0.19063670485E+04  0.15294330000E+03 0.  0.
<mgrwt>
<rscale>  0 0.13596107E+04</rscale>
<asrwt>0</asrwt>
<pdfrwt beam="1">  1        1 0.30644273E+00 0.14001262E+04</pdfrwt>
<pdfrwt beam="2">  1       -1 0.27355915E+00 0.14001262E+04</pdfrwt>
<totfact> 0.14130964E-01</totfact>
</mgrwt>
</event>
<event>
 4    1  0.2514307E-008  0.7787399E+03  0.7818608E-02  0.9758805E-01
          1   -1    0    0  501    0  0.00000000000E+00  0.00000000000E+00  0.15011427464E+04  0.15011427464E+04  0.50400000000E-02 0. -1.
         -1   -1    0    0    0  501 -0.00000000000E+00 -0.00000000000E+00 -0.10243452361E+04  0.10243452361E+04  0.50400000000E-02 0.  1.
    8880023    1    1    2    0    0  0.13880940262E+03  0.39160899715E+03 -0.83453057893E+03  0.11414364417E+04  0.65864270000E+03 0.  1.
    8880022    1    1    2    0    0 -0.13880940262E+03 -0.39160899715E+03  0.13113280892E+04  0.13840515408E+04  0.15294330000E+03 0.  0.
<mgrwt>
<rscale>  0 0.67620929E+03</rscale>
<asrwt>0</asrwt>
<pdfrwt beam="1">  1        1 0.23094504E+00 0.77873992E+03</pdfrwt>
<pdfrwt beam="2">  1       -1 0.15759158E+00 0.77873992E+03</pdfrwt>
<totfact> 0.20731201E+00</totfact>
</mgrwt>
</event>
<event>
 4    1  0.2514307E-008  0.7389188E+03  0.7818608E-02  0.9863108E-01
         -1   -1    0    0    0  501 -0.00000000000E+00  0.00000000000E+00  0.18001573353E+04  0.18001573353E+04  0.50400000000E-02 0.  1.
          1   -1    0    0  501    0  0.00000000000E+00 -0.00000000000E+00 -0.33804321402E+03  0.33804321406E+03  0.50400000000E-02 0. -1.
    8880023    1    1    2    0    0 -0.31749776722E+03 -0.10670527952E+03  0.15860149563E+04  0.17496984016E+04  0.65864270000E+03 0.  1.
    8880022    1    1    2    0    0  0.31749776722E+03  0.10670527952E+03 -0.12390083499E+03  0.38850214774E+03  0.15294330000E+03 0.  0.
<mgrwt>
<rscale>  0 0.62083045E+03</rscale>
<asrwt>0</asrwt>
<pdfrwt beam="1">  1        1 0.52006648E-01 0.73891884E+03</pdfrwt>
<pdfrwt beam="2">  1       -1 0.27694729E+00 0.73891884E+03</pdfrwt>
<totfact> 0.36538926E+00</totfact>
</mgrwt>
</event>
<event>
 4    1  0.2514307E-008  0.8915553E+03  0.7818608E-02  0.9539726E-01
          1   -1    0    0  501    0  0.00000000000E+00  0.00000000000E+00  0.14138604879E+04  0.14138604879E+04  0.50400000000E-02 0. -1.
         -1   -1    0    0    0  501 -0.00000000000E+00 -0.00000000000E+00 -0.47510386997E+03  0.47510387000E+03  0.50400000000E-02 0.  1.
    8880023    1    1    2    0    0  0.51942166715E+03 -0.30209572100E+03  0.18079801525E+03  0.90970260060E+03  0.65864270000E+03 0.  1.
    8880022    1    1    2    0    0 -0.51942166715E+03  0.30209572100E+03  0.75795860270E+03  0.97926175733E+03  0.15294330000E+03 0.  0.
<mgrwt>
<rscale>  0 0.81417270E+03</rscale>
<asrwt>0</asrwt>
<pdfrwt beam="1">  1        1 0.21751700E+00 0.89155533E+03</pdfrwt>
<pdfrwt beam="2">  1       -1 0.73092903E-01 0.89155533E+03</pdfrwt>
<totfact> 0.14414923E+01</totfact>
</mgrwt>
</event>
<event>
 4    1  0.2514307E-008  0.6592106E+03  0.7818608E-02  0.1024980E+00
          1   -1    0    0  501    0  0.00000000000E+00  0.00000000000E+00  0.82365094190E+03  0.82365094192E+03  0.50400000000E-02 0. -1.
         -1   -1    0    0    0  501 -0.00000000000E+00 -0.00000000000E+00 -0.10740754704E+04  0.10740754704E+04  0.50400000000E-02 0.  1.
    8880023    1    1    2    0    0  0.18269865767E+02 -0.20363222487E+02 -0.96377255985E+03  0.11676541449E+04  0.65864270000E+03 0.  1.
    8880022    1    1    2    0    0 -0.18269865767E+02  0.20363222487E+02  0.71334803133E+03  0.73007226741E+03  0.15294330000E+03 0.  0.
<mgrwt>
<rscale>  0 0.45931491E+03</rscale>
<asrwt>0</asrwt>
<pdfrwt beam="1">  1        1 0.12671553E+00 0.65921063E+03</pdfrwt>
<pdfrwt beam="2">  1       -1 0.16524238E+00 0.65921063E+03</pdfrwt>
<totfact> 0.59080240E+00</totfact>
</mgrwt>
</event>
<event>
 4    1  0.2514307E-008  0.1138473E+04  0.7818608E-02  0.9219384E-01
          1   -1    0    0  501    0  0.00000000000E+00  0.00000000000E+00  0.33503263263E+04  0.33503263263E+04  0.50400000000E-02 0. -1.
         -1   -1    0    0    0  501 -0.00000000000E+00 -0.00000000000E+00 -0.56495393863E+03  0.56495393866E+03  0.50400000000E-02 0.  1.
    8880023    1    1    2    0    0 -0.23044909732E+03  0.89955706209E+03  0.18957882169E+03  0.11541490503E+04  0.65864270000E+03 0.  1.
    8880022    1    1    2    0    0  0.23044909732E+03 -0.89955706209E+03  0.25957935660E+04  0.27611312146E+04  0.15294330000E+03 0.  0.
<mgrwt>
<rscale>  0 0.10855576E+04</rscale>
<asrwt>0</asrwt>
<pdfrwt beam="1">  1        1 0.51543480E+00 0.11384726E+04</pdfrwt>
<pdfrwt beam="2">  1       -1 0.86915994E-01 0.11384726E+04</pdfrwt>
<totfact> 0.43143253E-01</totfact>
</mgrwt>
</event>
<event>
 4    1  0.3346105E-008  0.1347956E+04  0.7818608E-02  0.9025215E-01
         -1   -1    0    0    0  501 -0.00000000000E+00  0.00000000000E+00  0.18933476278E+04  0.18933476278E+04  0.50400000000E-02 0.  1.
          1   -1    0    0  501    0  0.00000000000E+00 -0.00000000000E+00 -0.28472457383E+04  0.28472457383E+04  0.50400000000E-02 0. -1.
    8880023    1    1    2    0    0  0.62754309816E+03  0.99466845296E+03  0.14990554007E+04  0.20159744473E+04  0.65864270000E+03 0.  1.
    8880022    1    1    2    0    0 -0.62754309816E+03 -0.99466845296E+03 -0.24529535113E+04  0.27246189189E+04  0.15294330000E+03 0.  0.
<mgrwt>
<rscale>  0 0.13055001E+04</rscale>
<asrwt>0</asrwt>
<pdfrwt beam="1">  1        1 0.43803781E+00 0.13479562E+04</pdfrwt>
<pdfrwt beam="2">  1       -1 0.29128425E+00 0.13479562E+04</pdfrwt>
<totfact> 0.28056700E-02</totfact>
</mgrwt>
</event>
<event>
 4    1  0.2514307E-008  0.7917463E+03  0.7818608E-02  0.9728935E-01
          1   -1    0    0  501    0  0.00000000000E+00  0.00000000000E+00  0.21769332189E+04  0.21769332189E+04  0.50400000000E-02 0. -1.
         -1   -1    0    0    0  501 -0.00000000000E+00 -0.00000000000E+00 -0.49786250797E+03  0.49786250800E+03  0.50400000000E-02 0.  1.
    8880023    1    1    2    0    0 -0.40148170380E+03 -0.17850598526E+03 -0.13398327606E+03  0.80300290771E+03  0.65864270000E+03 0.  0.
    8880022    1    1    2    0    0  0.40148170380E+03  0.17850598526E+03  0.18130539870E+04  0.18717928192E+04  0.15294330000E+03 0.  0.
<mgrwt>
<rscale>  0 0.69319850E+03</rscale>
<asrwt>0</asrwt>
<pdfrwt beam="1">  1        1 0.33491280E+00 0.79174627E+03</pdfrwt>
<pdfrwt beam="2">  1       -1 0.76594233E-01 0.79174627E+03</pdfrwt>
<totfact> 0.40432259E+00</totfact>
</mgrwt>
</event>
<event>
 4    1  0.2514307E-008  0.1169546E+04  0.7818608E-02  0.9187310E-01
         -1   -1    0    0    0  501 -0.00000000000E+00  0.00000000000E+00  0.90694516980E+03  0.90694516982E+03  0.50400000000E-02 0.  1.
          1   -1    0    0  501    0  0.00000000000E+00 -0.00000000000E+00 -0.15236493696E+04  0.15236493696E+04  0.50400000000E-02 0. -1.
    8880023    1    1    2    0    0 -0.96568231104E+03 -0.38529352866E+02  0.16116122014E+03  0.11805972988E+04  0.65864270000E+03 0.  1.
    8880022    1    1    2    0    0  0.96568231104E+03  0.38529352866E+02 -0.77786541993E+03  0.12499972406E+04  0.15294330000E+03 0. -1.
<mgrwt>
<rscale>  0 0.11185377E+04</rscale>
<asrwt>0</asrwt>
<pdfrwt beam="1">  1        1 0.23440759E+00 0.11695457E+04</pdfrwt>
<pdfrwt beam="2">  1       -1 0.13953003E+00 0.11695457E+04</pdfrwt>
<totfact> 0.26237032E+00</totfact>
</mgrwt>
</event>
<event>
 4    1  0.2514307E-008  0.8004418E+03  0.7818608E-02  0.9709842E-01
          1   -1    0    0  501    0  0.00000000000E+00  0.00000000000E+00  0.43152476969E+04  0.43152476969E+04  0.50400000000E-02 0. -1.
         -1   -1    0    0    0  501 -0.00000000000E+00 -0.00000000000E+00 -0.76866467637E+03  0.76866467638E+03  0.50400000000E-02 0.  1.
    8880023    1    1    2    0    0  0.35547605525E+02 -0.45346802342E+03 -0.54237506238E+03  0.96689078756E+03  0.65864270000E+03 0.  0.
    8880022    1    1    2    0    0 -0.35547605525E+02  0.45346802342E+03  0.40889580829E+04  0.41170215857E+04  0.15294330000E+03 0.  0.
<mgrwt>
<rscale>  0 0.70433839E+03</rscale>
<asrwt>0</asrwt>
<pdfrwt beam="1">  1        1 0.66388427E+00 0.80044181E+03</pdfrwt>
<pdfrwt beam="2">  1       -1 0.11825610E+00 0.80044181E+03</pdfrwt>
<totfact> 0.35420474E-02</totfact>
</mgrwt>
</event>
<event>
 4    1  0.2514307E-008  0.8744199E+03  0.7818608E-02  0.9568411E-01
          1   -1    0    0  501    0  0.00000000000E+00  0.00000000000E+00  0.18065442738E+04  0.18065442738E+04  0.50400000000E-02 0. -1.
         -1   -1    0    0    0  501 -0.00000000000E+00 -0.00000000000E+00 -0.38401782632E+03  0.38401782636E+03  0.50400000000E-02 0.  1.
    8880023    1    1    2    0    0 -0.17368295988E+03 -0.54830114914E+03  0.30797797743E+03  0.92707095820E+03  0.65864270000E+03 0.  0.
    8880022    1    1    2    0    0  0.17368295988E+03  0.54830114914E+03  0.11145484701E+04  0.12634911420E+04  0.15294330000E+03 0.  0.
<mgrwt>
<rscale>  0 0.79422727E+03</rscale>
<asrwt>0</asrwt>
<pdfrwt beam="1">  1        1 0.27792989E+00 0.87441988E+03</pdfrwt>
<pdfrwt beam="2">  1       -1 0.59079665E-01 0.87441988E+03</pdfrwt>
<totfact> 0.11991263E+01</totfact>
</mgrwt>
</event>
<event>
 4    1  0.2514307E-008  0.6780425E+03  0.7818608E-02  0.1010453E+00
         -1   -1    0    0    0  501 -0.00000000000E+00  0.00000000000E+00  0.80724597092E+02  0.80724597250E+02  0.50400000000E-02 0.  1.
          1   -1    0    0  501    0  0.00000000000E+00 -0.00000000000E+00 -0.25222448937E+04  0.25222448937E+04  0.50400000000E-02 0. -1.
    8880023    1    1    2    0    0  0.94541915943E+02  0.13035816637E+03 -0.17553452589E+04  0.18817488168E+04  0.65864270000E+03 0.  0.
    8880022    1    1    2    0    0 -0.94541915943E+02 -0.13035816637E+03 -0.68617503774E+03  0.72122067417E+03  0.15294330000E+03 0.  1.
<mgrwt>
<rscale>  0 0.51294873E+03</rscale>
<asrwt>0</asrwt>
<pdfrwt beam="1">  1        1 0.38803762E+00 0.67804250E+03</pdfrwt>
<pdfrwt beam="2">  1       -1 0.12419171E-01 0.67804250E+03</pdfrwt>
<totfact> 0.61463802E+01</totfact>
</mgrwt>
</event>
<event>
 4    1  0.2514307E-008  0.8484947E+03  0.7818608E-02  0.9614366E-01
         -1   -1    0    0    0  501 -0.00000000000E+00  0.00000000000E+00  0.80825690600E+03  0.80825690602E+03  0.50400000000E-02 0.  1.
          1   -1    0    0  501    0  0.00000000000E+00 -0.00000000000E+00 -0.15925239277E+04  0.15925239277E+04  0.50400000000E-02 0. -1.
    8880023    1    1    2    0    0  0.38361757363E+02 -0.53353666246E+03  0.51141711095E+03  0.99070210570E+03  0.65864270000E+03 0.  1.
    8880022    1    1    2    0    0 -0.38361757363E+02  0.53353666246E+03 -0.12956841326E+04  0.14100787280E+04  0.15294330000E+03 0.  0.
<mgrwt>
<rscale>  0 0.76352585E+03</rscale>
<asrwt>0</asrwt>
<pdfrwt beam="1">  1        1 0.24500368E+00 0.84849467E+03</pdfrwt>
<pdfrwt beam="2">  1       -1 0.12434722E+00 0.84849467E+03</pdfrwt>
<totfact> 0.32920149E+00</totfact>
</mgrwt>
</event>
<event>
 4    1  0.2514307E-008  0.1232033E+04  0.7818608E-02  0.9126596E-01
         -1   -1    0    0    0  501 -0.00000000000E+00  0.00000000000E+00  0.60159982467E+03  0.60159982469E+03  0.50400000000E-02 0.  1.
          1   -1    0    0  501    0  0.00000000000E+00 -0.00000000000E+00 -0.28442532917E+04  0.28442532917E+04  0.50400000000E-02 0. -1.
    8880023    1    1    2    0    0 -0.75221041705E+03 -0.71991221205E+03 -0.20263270837E+04  0.23714775481E+04  0.65864270000E+03 0.  0.
    8880022    1    1    2    0    0  0.75221041705E+03  0.71991221205E+03 -0.21632638325E+03  0.10743755683E+04  0.15294330000E+03 0.  0.
<mgrwt>
<rscale>  0 0.11844287E+04</rscale>
<asrwt>0</asrwt>
<pdfrwt beam="1">  1        1 0.43757742E+00 0.12320326E+04</pdfrwt>
<pdfrwt beam="2">  1       -1 0.92553821E-01 0.12320326E+04</pdfrwt>
<totfact> 0.87113914E-01</totfact>
</mgrwt>
</event>
<event>
 4    1  0.2514307E-008  0.7051994E+03  0.7818608E-02  0.9976279E-01
         -1   -1    0    0    0  501 -0.00000000000E+00  0.00000000000E+00  0.31695268340E+03  0.31695268344E+03  0.50400000000E-02 0.  1.
          1   -1    0    0  501    0  0.00000000000E+00 -0.00000000000E+00 -0.12364062335E+04  0.12364062335E+04  0.50400000000E-02 0. -1.
    8880023    1    1    2    0    0  0.24342406238E+03  0.65120406380E+02 -0.13855852732E+03  0.71868255386E+03  0.65864270000E+03 0.  0.
    8880022    1    1    2    0    0 -0.24342406238E+03 -0.65120406380E+02 -0.78089502274E+03  0.83467636305E+03  0.15294330000E+03 0.  0.
<mgrwt>
<rscale>  0 0.56702689E+03</rscale>
<asrwt>0</asrwt>
<pdfrwt beam="1">  1        1 0.19021634E+00 0.70519937E+03</pdfrwt>
<pdfrwt beam="2">  1       -1 0.48761952E-01 0.70519937E+03</pdfrwt>
<totfact> 0.43668333E+01</totfact>
</mgrwt>
</event>
<event>
 4    1  0.2514307E-008  0.8344779E+03  0.7818608E-02  0.9640682E-01
          1   -1    0    0  501    0  0.00000000000E+00  0.00000000000E+00  0.58669957116E+03  0.58669957118E+03  0.50400000000E-02 0. -1.
         -1   -1    0    0    0  501 -0.00000000000E+00 -0.00000000000E+00 -0.18034802228E+04  0.18034802228E+04  0.50400000000E-02 0.  1.
    8880023    1    1    2    0    0  0.25015123539E+03 -0.44717720862E+03 -0.15498356012E+04  0.17602112639E+04  0.65864270000E+03 0.  1.
    8880022    1    1    2    0    0 -0.25015123539E+03  0.44717720862E+03  0.33305494956E+03  0.62996853010E+03  0.15294330000E+03 0.  0.
<mgrwt>
<rscale>  0 0.74661117E+03</rscale>
<asrwt>0</asrwt>
<pdfrwt beam="1">  1        1 0.90261474E-01 0.83447786E+03</pdfrwt>
<pdfrwt beam="2">  1       -1 0.27745849E+00 0.83447786E+03</pdfrwt>
<totfact> 0.16930472E+00</totfact>
</mgrwt>
</event>
<event>
 4    1  0.2514307E-008  0.7604882E+03  0.7818608E-02  0.9803845E-01
          1   -1    0    0  501    0  0.00000000000E+00  0.00000000000E+00  0.48626219006E+03  0.48626219008E+03  0.50400000000E-02 0. -1.
         -1   -1    0    0    0  501 -0.00000000000E+00 -0.00000000000E+00 -0.76520785105E+03  0.76520785106E+03  0.50400000000E-02 0.  1.
    8880023    1    1    2    0    0 -0.26314156850E+03 -0.27438761611E+03 -0.34727459535E+03  0.83602745157E+03  0.65864270000E+03 0.  1.
    8880022    1    1    2    0    0  0.26314156850E+03  0.27438761611E+03  0.68328934360E+02  0.41544258957E+03  0.15294330000E+03 0.  0.
<mgrwt>
<rscale>  0 0.65156590E+03</rscale>
<asrwt>0</asrwt>
<pdfrwt beam="1">  1        1 0.74809567E-01 0.76048817E+03</pdfrwt>
<pdfrwt beam="2">  1       -1 0.11772429E+00 0.76048817E+03</pdfrwt>
<totfact> 0.30556527E+01</totfact>
</mgrwt>
</event>
<event>
 4    1  0.2514307E-008  0.9152159E+03  0.7818608E-02  0.9502034E-01
         -1   -1    0    0    0  501 -0.00000000000E+00  0.00000000000E+00  0.11121598354E+04  0.11121598354E+04  0.50400000000E-02 0.  1.
          1   -1    0    0  501    0  0.00000000000E+00 -0.00000000000E+00 -0.14193480070E+04  0.14193480070E+04  0.50400000000E-02 0. -1.
    8880023    1    1    2    0    0 -0.63250333619E+03  0.61233553431E+02  0.81980410233E+03  0.12286980877E+04  0.65864270000E+03 0.  0.
    8880022    1    1    2    0    0  0.63250333619E+03 -0.61233553431E+02 -0.11269922739E+04  0.13028097547E+04  0.15294330000E+03 0.  0.
<mgrwt>
<rscale>  0 0.84134051E+03</rscale>
<asrwt>0</asrwt>
<pdfrwt beam="1">  1        1 0.21836123E+00 0.91521594E+03</pdfrwt>
<pdfrwt beam="2">  1       -1 0.17110151E+00 0.91521594E+03</pdfrwt>
<totfact> 0.18305458E+00</totfact>
</mgrwt>
</event>
<event>
 4    1  0.2514307E-008  0.9809154E+03  0.7818608E-02  0.9406963E-01
         -1   -1    0    0    0  501 -0.00000000000E+00  0.00000000000E+00  0.19277192133E+04  0.19277192133E+04  0.50400000000E-02 0.  1.
          1   -1    0    0  501    0  0.00000000000E+00 -0.00000000000E+00 -0.50295393787E+03  0.50295393790E+03  0.50400000000E-02 0. -1.
    8880023    1    1    2    0    0  0.35670407538E+03 -0.63336173195E+03  0.13711870852E+04  0.16859267807E+04  0.65864270000E+03 0.  0.
    8880022    1    1    2    0    0 -0.35670407538E+03  0.63336173195E+03  0.53578190192E+02  0.74474637050E+03  0.15294330000E+03 0.  0.
<mgrwt>
<rscale>  0 0.91504843E+03</rscale>
<asrwt>0</asrwt>
<pdfrwt beam="1">  1        1 0.77377530E-01 0.98091543E+03</pdfrwt>
<pdfrwt beam="2">  1       -1 0.29657218E+00 0.98091543E+03</pdfrwt>
<totfact> 0.15532497E+00</totfact>
</mgrwt>
</event>
<event>
 4    1  0.2514307E-008  0.7141243E+03  0.7818608E-02  0.9942993E-01
         -1   -1    0    0    0  501 -0.00000000000E+00  0.00000000000E+00  0.63243694868E+03  0.63243694870E+03  0.50400000000E-02 0.  1.
          1   -1    0    0  501    0  0.00000000000E+00 -0.00000000000E+00 -0.24458864090E+04  0.24458864090E+04  0.50400000000E-02 0. -1.
    8880023    1    1    2    0    0 -0.89310103320E+02  0.26112636216E+03  0.41613482864E+03  0.82652384929E+03  0.65864270000E+03 0.  1.
    8880022    1    1    2    0    0  0.89310103320E+02 -0.26112636216E+03 -0.22295842890E+04  0.22517995084E+04  0.15294330000E+03 0.  0.
<mgrwt>
<rscale>  0 0.58222143E+03</rscale>
<asrwt>0</asrwt>
<pdfrwt beam="1">  1        1 0.37629021E+00 0.71412427E+03</pdfrwt>
<pdfrwt beam="2">  1       -1 0.97297993E-01 0.71412427E+03</pdfrwt>
<totfact> 0.16065888E+00</totfact>
</mgrwt>
</event>
<event>
 4    1  0.2514307E-008  0.1148122E+04  0.7818608E-02  0.9209280E-01
         -1   -1    0    0    0  501 -0.00000000000E+00  0.00000000000E+00  0.49429085215E+03  0.49429085218E+03  0.50400000000E-02 0.  1.
          1   -1    0    0  501    0  0.00000000000E+00 -0.00000000000E+00 -0.35171849791E+04  0.35171849791E+04  0.50400000000E-02 0. -1.
    8880023    1    1    2    0    0 -0.74649801556E+03 -0.57193881241E+03 -0.39171215039E+03  0.12131042442E+04  0.65864270000E+03 0.  0.
    8880022    1    1    2    0    0  0.74649801556E+03  0.57193881241E+03 -0.26311819765E+04  0.27983715870E+04  0.15294330000E+03 0.  0.
<mgrwt>
<rscale>  0 0.10958160E+04</rscale>
<asrwt>0</asrwt>
<pdfrwt beam="1">  1        1 0.54110537E+00 0.11481217E+04</pdfrwt>
<pdfrwt beam="2">  1       -1 0.76044749E-01 0.11481217E+04</pdfrwt>
<totfact> 0.42687182E-01</totfact>
</mgrwt>
</event>
<event>
 4    1  0.2514307E-008  0.7726441E+03  0.7818608E-02  0.9773409E-01
          1   -1    0    0  501    0  0.00000000000E+00  0.00000000000E+00  0.23329044162E+04  0.23329044162E+04  0.50400000000E-02 0. -1.
         -1   -1    0    0    0  501 -0.00000000000E+00 -0.00000000000E+00 -0.22571656133E+03  0.22571656139E+03  0.50400000000E-02 0.  1.
    8880023    1    1    2    0    0 -0.36065838544E+03 -0.18191829968E+03  0.56525805646E+03  0.95733777498E+03  0.65864270000E+03 0.  1.
    8880022    1    1    2    0    0  0.36065838544E+03  0.18191829968E+03  0.15419297984E+04  0.16012832026E+04  0.15294330000E+03 0.  0.
<mgrwt>
<rscale>  0 0.66809321E+03</rscale>
<asrwt>0</asrwt>
<pdfrwt beam="1">  1        1 0.35890839E+00 0.77264413E+03</pdfrwt>
<pdfrwt beam="2">  1       -1 0.34725623E-01 0.77264413E+03</pdfrwt>
<totfact> 0.14522824E+01</totfact>
</mgrwt>
</event>
<event>
 4    1  0.2514307E-008  0.7571342E+03  0.7818608E-02  0.9812584E-01
          1   -1    0    0  501    0  0.00000000000E+00  0.00000000000E+00  0.10835081025E+04  0.10835081025E+04  0.50400000000E-02 0. -1.
         -1   -1    0    0    0  501 -0.00000000000E+00 -0.00000000000E+00 -0.10157863142E+04  0.10157863142E+04  0.50400000000E-02 0.  1.
    8880023    1    1    2    0    0  0.34267420339E+03  0.14837934343E+03 -0.82490363166E+03  0.11196956046E+04  0.65864270000E+03 0.  1.
    8880022    1    1    2    0    0 -0.34267420339E+03 -0.14837934343E+03  0.89262541997E+03  0.97959881207E+03  0.15294330000E+03 0.  0.
<mgrwt>
<rscale>  0 0.64691571E+03</rscale>
<asrwt>0</asrwt>
<pdfrwt beam="1">  1        1 0.16669355E+00 0.75713423E+03</pdfrwt>
<pdfrwt beam="2">  1       -1 0.15627482E+00 0.75713423E+03</pdfrwt>
<totfact> 0.42221240E+00</totfact>
</mgrwt>
</event>
<event>
 4    1  0.2514307E-008  0.1761721E+04  0.7818608E-02  0.8744012E-01
         -1   -1    0    0    0  501 -0.00000000000E+00  0.00000000000E+00  0.19924541741E+04  0.19924541741E+04  0.50400000000E-02 0.  1.
          1   -1    0    0  501    0  0.00000000000E+00 -0.00000000000E+00 -0.28043523797E+04  0.28043523797E+04  0.50400000000E-02 0. -1.
    8880023    1    1    2    0    0  0.13817003187E+04 -0.87221348483E+03 -0.20778374854E+04  0.27241642675E+04  0.65864270000E+03 0.  0.
    8880022    1    1    2    0    0 -0.13817003187E+04  0.87221348483E+03  0.12659392799E+04  0.20726422864E+04  0.15294330000E+03 0.  0.
<mgrwt>
<rscale>  0 0.17307621E+04</rscale>
<asrwt>0</asrwt>
<pdfrwt beam="1">  1        1 0.43143883E+00 0.17617214E+04</pdfrwt>
<pdfrwt beam="2">  1       -1 0.30653141E+00 0.17617214E+04</pdfrwt>
<totfact> 0.22583020E-02</totfact>
</mgrwt>
</event>
<event>
 4    1  0.2514307E-008  0.7046597E+03  0.7818608E-02  0.9978394E-01
          1   -1    0    0  501    0  0.00000000000E+00  0.00000000000E+00  0.63689760996E+03  0.63689760998E+03  0.50400000000E-02 0. -1.
         -1   -1    0    0    0  501 -0.00000000000E+00 -0.00000000000E+00 -0.19756421491E+04  0.19756421491E+04  0.50400000000E-02 0.  1.
    8880023    1    1    2    0    0  0.22303615040E+03  0.11397363679E+03 -0.18740028771E+04  0.20021069162E+04  0.65864270000E+03 0.  1.
    8880022    1    1    2    0    0 -0.22303615040E+03 -0.11397363679E+03  0.53525833798E+03  0.61043284287E+03  0.15294330000E+03 0.  0.
<mgrwt>
<rscale>  0 0.56607875E+03</rscale>
<asrwt>0</asrwt>
<pdfrwt beam="1">  1        1 0.97984248E-01 0.70465972E+03</pdfrwt>
<pdfrwt beam="2">  1       -1 0.30394494E+00 0.70465972E+03</pdfrwt>
<totfact> 0.10418357E+00</totfact>
</mgrwt>
</event>
<event>
 4    1  0.2514307E-008  0.7781333E+03  0.7818608E-02  0.9760240E-01
         -1   -1    0    0    0  501 -0.00000000000E+00  0.00000000000E+00  0.31696924995E+03  0.31696924999E+03  0.50400000000E-02 0.  1.
          1   -1    0    0  501    0  0.00000000000E+00 -0.00000000000E+00 -0.13757913355E+04  0.13757913356E+04  0.50400000000E-02 0. -1.
    8880023    1    1    2    0    0 -0.64563844002E+02  0.40928312070E+03 -0.34017668230E+03  0.84924174667E+03  0.65864270000E+03 0.  1.
    8880022    1    1    2    0    0  0.64563844002E+02 -0.40928312070E+03 -0.71864540329E+03  0.84351883887E+03  0.15294330000E+03 0.  0.
<mgrwt>
<rscale>  0 0.67540625E+03</rscale>
<asrwt>0</asrwt>
<pdfrwt beam="1">  1        1 0.21166020E+00 0.77813326E+03</pdfrwt>
<pdfrwt beam="2">  1       -1 0.48764501E-01 0.77813326E+03</pdfrwt>
<totfact> 0.34523141E+01</totfact>
</mgrwt>
</event>
<event>
 4    1  0.2514307E-008  0.1001365E+04  0.7818608E-02  0.9379774E-01
          1   -1    0    0  501    0  0.00000000000E+00  0.00000000000E+00  0.94802784043E+03  0.94802784044E+03  0.50400000000E-02 0. -1.
         -1   -1    0    0    0  501 -0.00000000000E+00 -0.00000000000E+00 -0.83966034471E+03  0.83966034472E+03  0.50400000000E-02 0.  1.
    8880023    1    1    2    0    0  0.70850807364E+03  0.25872423467E+03  0.16964452782E+03  0.10156334930E+04  0.65864270000E+03 0.  0.
    8880022    1    1    2    0    0 -0.70850807364E+03 -0.25872423467E+03 -0.61277032104E+02  0.77205469217E+03  0.15294330000E+03 0.  0.
<mgrwt>
<rscale>  0 0.93759074E+03</rscale>
<asrwt>0</asrwt>
<pdfrwt beam="1">  1        1 0.14585044E+00 0.10013651E+04</pdfrwt>
<pdfrwt beam="2">  1       -1 0.12917851E+00 0.10013651E+04</pdfrwt>
<totfact> 0.85917066E+00</totfact>
</mgrwt>
</event>
<event>
 4    1  0.2514307E-008  0.1106915E+04  0.7818608E-02  0.9253396E-01
          1   -1    0    0  501    0  0.00000000000E+00  0.00000000000E+00  0.12330552108E+04  0.12330552108E+04  0.50400000000E-02 0. -1.
         -1   -1    0    0    0  501 -0.00000000000E+00 -0.00000000000E+00 -0.19060782957E+04  0.19060782957E+04  0.50400000000E-02 0.  1.
    8880023    1    1    2    0    0  0.65223262986E+03 -0.60501551449E+03 -0.15340106291E+04  0.18916791464E+04  0.65864270000E+03 0.  1.
    8880022    1    1    2    0    0 -0.65223262986E+03  0.60501551449E+03  0.86098754422E+03  0.12474543601E+04  0.15294330000E+03 0.  0.
<mgrwt>
<rscale>  0 0.10518892E+04</rscale>
<asrwt>0</asrwt>
<pdfrwt beam="1">  1        1 0.18970080E+00 0.11069153E+04</pdfrwt>
<pdfrwt beam="2">  1       -1 0.29324281E+00 0.11069153E+04</pdfrwt>
<totfact> 0.36820298E-01</totfact>
</mgrwt>
</event>
<event>
 4    1  0.2514307E-008  0.1427295E+04  0.7818608E-02  0.8962759E-01
          1   -1    0    0  501    0  0.00000000000E+00  0.00000000000E+00  0.14535631882E+04  0.14535631882E+04  0.50400000000E-02 0. -1.
         -1   -1    0    0    0  501 -0.00000000000E+00 -0.00000000000E+00 -0.16654840389E+04  0.16654840390E+04  0.50400000000E-02 0.  1.
    8880023    1    1    2    0    0  0.71754250852E+03  0.10433083899E+04 -0.88247849733E+03  0.16780757291E+04  0.65864270000E+03 0.  0.
    8880022    1    1    2    0    0 -0.71754250852E+03 -0.10433083899E+04  0.67055764658E+03  0.14409714981E+04  0.15294330000E+03 0.  0.
<mgrwt>
<rscale>  0 0.13877152E+04</rscale>
<asrwt>0</asrwt>
<pdfrwt beam="1">  1        1 0.22362511E+00 0.14272946E+04</pdfrwt>
<pdfrwt beam="2">  1       -1 0.25622831E+00 0.14272946E+04</pdfrwt>
<totfact> 0.42674240E-01</totfact>
</mgrwt>
</event>
<event>
 4    1  0.2514307E-008  0.6927691E+03  0.7818608E-02  0.1002863E+00
          1   -1    0    0  501    0  0.00000000000E+00  0.00000000000E+00  0.16878738087E+04  0.16878738087E+04  0.50400000000E-02 0. -1.
         -1   -1    0    0    0  501 -0.00000000000E+00 -0.00000000000E+00 -0.17032667945E+03  0.17032667952E+03  0.50400000000E-02 0.  1.
    8880023    1    1    2    0    0  0.12695030392E+02  0.21437750520E+03  0.64448270328E+03  0.94619608941E+03  0.65864270000E+03 0.  1.
    8880022    1    1    2    0    0 -0.12695030392E+02 -0.21437750520E+03  0.87306442595E+03  0.91200439878E+03  0.15294330000E+03 0.  0.
<mgrwt>
<rscale>  0 0.54412381E+03</rscale>
<asrwt>0</asrwt>
<pdfrwt beam="1">  1        1 0.25967289E+00 0.69276914E+03</pdfrwt>
<pdfrwt beam="2">  1       -1 0.26204105E-01 0.69276914E+03</pdfrwt>
<totfact> 0.64888931E+01</totfact>
</mgrwt>
</event>
<event>
 4    1  0.2514307E-008  0.9669665E+03  0.7818608E-02  0.9426112E-01
         -1   -1    0    0    0  501 -0.00000000000E+00  0.00000000000E+00  0.79328465939E+03  0.79328465941E+03  0.50400000000E-02 0.  1.
          1   -1    0    0  501    0  0.00000000000E+00 -0.00000000000E+00 -0.45408579295E+04  0.45408579296E+04  0.50400000000E-02 0. -1.
    8880023    1    1    2    0    0 -0.42117727275E+03  0.56905513887E+03  0.45566891977E+03  0.10689520180E+04  0.65864270000E+03 0.  0.
    8880022    1    1    2    0    0  0.42117727275E+03 -0.56905513887E+03 -0.42032421899E+04  0.42651905709E+04  0.15294330000E+03 0.  0.
<mgrwt>
<rscale>  0 0.89957568E+03</rscale>
<asrwt>0</asrwt>
<pdfrwt beam="1">  1        1 0.69859351E+00 0.96696652E+03</pdfrwt>
<pdfrwt beam="2">  1       -1 0.12204380E+00 0.96696652E+03</pdfrwt>
<totfact> 0.18808802E-02</totfact>
</mgrwt>
</event>
<event>
 4    1  0.2514307E-008  0.8083431E+03  0.7818608E-02  0.9693039E-01
          1   -1    0    0  501    0  0.00000000000E+00  0.00000000000E+00  0.17687185516E+04  0.17687185516E+04  0.50400000000E-02 0. -1.
         -1   -1    0    0    0  501 -0.00000000000E+00 -0.00000000000E+00 -0.63189131620E+03  0.63189131622E+03  0.50400000000E-02 0.  1.
    8880023    1    1    2    0    0  0.43895507023E+03  0.16409389403E+03 -0.31486785608E+03  0.86750235320E+03  0.65864270000E+03 0.  1.
    8880022    1    1    2    0    0 -0.43895507023E+03 -0.16409389403E+03  0.14516950915E+04  0.15331075146E+04  0.15294330000E+03 0.  0.
<mgrwt>
<rscale>  0 0.71432786E+03</rscale>
<asrwt>0</asrwt>
<pdfrwt beam="1">  1        1 0.27211054E+00 0.80834310E+03</pdfrwt>
<pdfrwt beam="2">  1       -1 0.97214050E-01 0.80834310E+03</pdfrwt>
<totfact> 0.45073156E+00</totfact>
</mgrwt>
</event>
<event>
 4    1  0.2514307E-008  0.9700343E+03  0.7818608E-02  0.9421857E-01
         -1   -1    0    0    0  501 -0.00000000000E+00  0.00000000000E+00  0.71232499602E+03  0.71232499604E+03  0.50400000000E-02 0.  1.
          1   -1    0    0  501    0  0.00000000000E+00 -0.00000000000E+00 -0.18403019161E+04  0.18403019161E+04  0.50400000000E-02 0. -1.
    8880023    1    1    2    0    0 -0.61693736918E+03 -0.35573113110E+03  0.24314311218E+03  0.10000425663E+04  0.65864270000E+03 0.  0.
    8880022    1    1    2    0    0  0.61693736918E+03  0.35573113110E+03 -0.13711200323E+04  0.15525843459E+04  0.15294330000E+03 0.  0.
<mgrwt>
<rscale>  0 0.90298577E+03</rscale>
<asrwt>0</asrwt>
<pdfrwt beam="1">  1        1 0.28312337E+00 0.97003431E+03</pdfrwt>
<pdfrwt beam="2">  1       -1 0.10958846E+00 0.97003431E+03</pdfrwt>
<totfact> 0.29842206E+00</totfact>
</mgrwt>
</event>
<event>
 4    1  0.2514307E-008  0.7572910E+03  0.7818608E-02  0.9812172E-01
          1   -1    0    0  501    0  0.00000000000E+00  0.00000000000E+00  0.59876432830E+03  0.59876432832E+03  0.50400000000E-02 0. -1.
         -1   -1    0    0    0  501 -0.00000000000E+00 -0.00000000000E+00 -0.12331493775E+04  0.12331493775E+04  0.50400000000E-02 0.  1.
    8880023    1    1    2    0    0 -0.32526980925E+03 -0.18406239793E+03 -0.10221143310E+04  0.12720877828E+04  0.65864270000E+03 0.  0.
    8880022    1    1    2    0    0  0.32526980925E+03  0.18406239793E+03  0.38772928182E+03  0.55982592307E+03  0.15294330000E+03 0.  0.
<mgrwt>
<rscale>  0 0.64713397E+03</rscale>
<asrwt>0</asrwt>
<pdfrwt beam="1">  1        1 0.92117589E-01 0.75729098E+03</pdfrwt>
<pdfrwt beam="2">  1       -1 0.18971529E+00 0.75729098E+03</pdfrwt>
<totfact> 0.62999709E+00</totfact>
</mgrwt>
</event>
<event>
 4    1  0.2514307E-008  0.6951425E+03  0.7818608E-02  0.1001798E+00
         -1   -1    0    0    0  501 -0.00000000000E+00  0.00000000000E+00  0.73702555074E+03  0.73702555075E+03  0.50400000000E-02 0.  1.
          1   -1    0    0  501    0  0.00000000000E+00 -0.00000000000E+00 -0.14969909753E+04  0.14969909753E+04  0.50400000000E-02 0. -1.
    8880023    1    1    2    0    0  0.17056793719E+03  0.14254649844E+03  0.55632927288E+03  0.89035127424E+03  0.65864270000E+03 0.  1.
    8880022    1    1    2    0    0 -0.17056793719E+03 -0.14254649844E+03 -0.13162946974E+04  0.13436652518E+04  0.15294330000E+03 0.  0.
<mgrwt>
<rscale>  0 0.54868771E+03</rscale>
<asrwt>0</asrwt>
<pdfrwt beam="1">  1        1 0.23030630E+00 0.69514253E+03</pdfrwt>
<pdfrwt beam="2">  1       -1 0.11338855E+00 0.69514253E+03</pdfrwt>
<totfact> 0.49099072E+00</totfact>
</mgrwt>
</event>
<event>
 4    1  0.2514307E-008  0.6911867E+03  0.7818608E-02  0.1003594E+00
         -1   -1    0    0    0  501 -0.00000000000E+00  0.00000000000E+00  0.22159065844E+03  0.22159065850E+03  0.50400000000E-02 0.  1.
          1   -1    0    0  501    0  0.00000000000E+00 -0.00000000000E+00 -0.15709673897E+04  0.15709673898E+04  0.50400000000E-02 0. -1.
    8880023    1    1    2    0    0  0.92045615082E+02  0.18829870729E+03 -0.37937996759E+03  0.78845936135E+03  0.65864270000E+03 0.  1.
    8880022    1    1    2    0    0 -0.92045615082E+02 -0.18829870729E+03 -0.96999676371E+03  0.10040986869E+04  0.15294330000E+03 0.  0.
<mgrwt>
<rscale>  0 0.54102196E+03</rscale>
<asrwt>0</asrwt>
<pdfrwt beam="1">  1        1 0.24168728E+00 0.69118666E+03</pdfrwt>
<pdfrwt beam="2">  1       -1 0.34090872E-01 0.69118666E+03</pdfrwt>
<totfact> 0.49230396E+01</totfact>
</mgrwt>
</event>
<event>
 4    1  0.2514307E-008  0.8108844E+03  0.7818608E-02  0.9687738E-01
         -1   -1    0    0    0  501 -0.00000000000E+00  0.00000000000E+00  0.13860809904E+04  0.13860809904E+04  0.50400000000E-02 0.  1.
          1   -1    0    0  501    0  0.00000000000E+00 -0.00000000000E+00 -0.10976190538E+04  0.10976190538E+04  0.50400000000E-02 0. -1.
    8880023    1    1    2    0    0 -0.43295651460E+03  0.19045199699E+03  0.11983224375E+04  0.14468967403E+04  0.65864270000E+03 0.  1.
    8880022    1    1    2    0    0  0.43295651460E+03 -0.19045199699E+03 -0.90986050095E+03  0.10368033039E+04  0.15294330000E+03 0.  0.
<mgrwt>
<rscale>  0 0.71751600E+03</rscale>
<asrwt>0</asrwt>
<pdfrwt beam="1">  1        1 0.16886447E+00 0.81088440E+03</pdfrwt>
<pdfrwt beam="2">  1       -1 0.21324323E+00 0.81088440E+03</pdfrwt>
<totfact> 0.16105804E+00</totfact>
</mgrwt>
</event>
<event>
 4    1  0.2514307E-008  0.1616837E+04  0.7818608E-02  0.8831256E-01
          1   -1    0    0  501    0  0.00000000000E+00  0.00000000000E+00  0.23432883700E+04  0.23432883700E+04  0.50400000000E-02 0. -1.
         -1   -1    0    0    0  501 -0.00000000000E+00 -0.00000000000E+00 -0.10918156642E+04  0.10918156642E+04  0.50400000000E-02 0.  1.
    8880023    1    1    2    0    0 -0.12067660714E+03  0.14716620218E+04  0.22998887112E+03  0.16331126835E+04  0.65864270000E+03 0.  0.
    8880022    1    1    2    0    0  0.12067660714E+03 -0.14716620218E+04  0.10214838347E+04  0.18019913506E+04  0.15294330000E+03 0.  0.
<mgrwt>
<rscale>  0 0.15826863E+04</rscale>
<asrwt>0</asrwt>
<pdfrwt beam="1">  1        1 0.36050590E+00 0.16168371E+04</pdfrwt>
<pdfrwt beam="2">  1       -1 0.16797164E+00 0.16168371E+04</pdfrwt>
<totfact> 0.41432167E-01</totfact>
</mgrwt>
</event>
<event>
 4    1  0.2514307E-008  0.7992137E+03  0.7818608E-02  0.9712499E-01
         -1   -1    0    0    0  501 -0.00000000000E+00  0.00000000000E+00  0.78158020293E+03  0.78158020294E+03  0.50400000000E-02 0.  1.
          1   -1    0    0  501    0  0.00000000000E+00 -0.00000000000E+00 -0.66431243562E+03  0.66431243564E+03  0.50400000000E-02 0. -1.
    8880023    1    1    2    0    0 -0.16661754615E+03  0.42091676214E+03  0.39680627989E+03  0.89229914118E+03  0.65864270000E+03 0.  1.
    8880022    1    1    2    0    0  0.16661754615E+03 -0.42091676214E+03 -0.27953851259E+03  0.55359349740E+03  0.15294330000E+03 0.  0.
<mgrwt>
<rscale>  0 0.70277472E+03</rscale>
<asrwt>0</asrwt>
<pdfrwt beam="1">  1        1 0.10220191E+00 0.79921370E+03</pdfrwt>
<pdfrwt beam="2">  1       -1 0.12024311E+00 0.79921370E+03</pdfrwt>
<totfact> 0.18553552E+01</totfact>
</mgrwt>
</event>
<event>
 4    1  0.2514307E-008  0.7767445E+03  0.7818608E-02  0.9763541E-01
         -1   -1    0    0    0  501 -0.00000000000E+00  0.00000000000E+00  0.24864452959E+03  0.24864452964E+03  0.50400000000E-02 0.  1.
          1   -1    0    0  501    0  0.00000000000E+00 -0.00000000000E+00 -0.15739572722E+04  0.15739572722E+04  0.50400000000E-02 0. -1.
    8880023    1    1    2    0    0  0.40860328703E+03  0.50646875449E+02 -0.62969070287E+03  0.99992116675E+03  0.65864270000E+03 0.  1.
    8880022    1    1    2    0    0 -0.40860328703E+03 -0.50646875449E+02 -0.69562203970E+03  0.82268063506E+03  0.15294330000E+03 0.  0.
<mgrwt>
<rscale>  0 0.67356409E+03</rscale>
<asrwt>0</asrwt>
<pdfrwt beam="1">  1        1 0.24214727E+00 0.77674446E+03</pdfrwt>
<pdfrwt beam="2">  1       -1 0.38253006E-01 0.77674446E+03</pdfrwt>
<totfact> 0.39482620E+01</totfact>
</mgrwt>
</event>
<event>
 4    1  0.2514307E-008  0.9544168E+03  0.7818608E-02  0.9443788E-01
          1   -1    0    0  501    0  0.00000000000E+00  0.00000000000E+00  0.87251974062E+03  0.87251974063E+03  0.50400000000E-02 0. -1.
         -1   -1    0    0    0  501 -0.00000000000E+00 -0.00000000000E+00 -0.22158201188E+04  0.22158201188E+04  0.50400000000E-02 0.  1.
    8880023    1    1    2    0    0  0.53741071625E+03 -0.43392497416E+03 -0.19405069397E+04  0.21625167168E+04  0.65864270000E+03 0.  1.
    8880022    1    1    2    0    0 -0.53741071625E+03  0.43392497416E+03  0.59720656158E+03  0.92582314259E+03  0.15294330000E+03 0.  0.
<mgrwt>
<rscale>  0 0.88558097E+03</rscale>
<asrwt>0</asrwt>
<pdfrwt beam="1">  1        1 0.13423381E+00 0.95441677E+03</pdfrwt>
<pdfrwt beam="2">  1       -1 0.34089540E+00 0.95441677E+03</pdfrwt>
<totfact> 0.35154153E-01</totfact>
</mgrwt>
</event>
<event>
 4    1  0.2514307E-008  0.7088166E+03  0.7818608E-02  0.9962422E-01
          1   -1    0    0  501    0  0.00000000000E+00  0.00000000000E+00  0.11720747914E+04  0.11720747915E+04  0.50400000000E-02 0. -1.
         -1   -1    0    0    0  501 -0.00000000000E+00 -0.00000000000E+00 -0.35862934759E+03  0.35862934762E+03  0.50400000000E-02 0.  1.
    8880023    1    1    2    0    0 -0.26179964364E+03 -0.84660410857E+01  0.51593866464E+02  0.71069181829E+03  0.65864270000E+03 0.  0.
    8880022    1    1    2    0    0  0.26179964364E+03  0.84660410857E+01  0.76185157739E+03  0.82001232079E+03  0.15294330000E+03 0.  0.
<mgrwt>
<rscale>  0 0.57329121E+03</rscale>
<asrwt>0</asrwt>
<pdfrwt beam="1">  1        1 0.18031920E+00 0.70881657E+03</pdfrwt>
<pdfrwt beam="2">  1       -1 0.55173745E-01 0.70881657E+03</pdfrwt>
<totfact> 0.38385170E+01</totfact>
</mgrwt>
</event>
<event>
 4    1  0.2514307E-008  0.1030285E+04  0.7818608E-02  0.9342966E-01
          1   -1    0    0  501    0  0.00000000000E+00  0.00000000000E+00  0.52493505143E+03  0.52493505146E+03  0.50400000000E-02 0. -1.
         -1   -1    0    0    0  501 -0.00000000000E+00 -0.00000000000E+00 -0.19385737289E+04  0.19385737289E+04  0.50400000000E-02 0.  1.
    8880023    1    1    2    0    0  0.78905195828E+03  0.71228430965E+02 -0.27213712105E+03  0.10656196794E+04  0.65864270000E+03 0.  1.
    8880022    1    1    2    0    0 -0.78905195828E+03 -0.71228430965E+02 -0.11415015565E+04  0.13978891010E+04  0.15294330000E+03 0.  0.
<mgrwt>
<rscale>  0 0.96921753E+03</rscale>
<asrwt>0</asrwt>
<pdfrwt beam="1">  1        1 0.80759240E-01 0.10302848E+04</pdfrwt>
<pdfrwt beam="2">  1       -1 0.29824211E+00 0.10302848E+04</pdfrwt>
<totfact> 0.14184907E+00</totfact>
</mgrwt>
</event>
<event>
 4    1  0.2514307E-008  0.1233143E+04  0.7818608E-02  0.9125559E-01
         -1   -1    0    0    0  501 -0.00000000000E+00  0.00000000000E+00  0.58653325987E+03  0.58653325989E+03  0.50400000000E-02 0.  1.
          1   -1    0    0  501    0  0.00000000000E+00 -0.00000000000E+00 -0.33080108438E+04  0.33080108438E+04  0.50400000000E-02 0. -1.
    8880023    1    1    2    0    0 -0.77285215176E+03  0.69966579259E+03 -0.32287481837E+03  0.12747121339E+04  0.65864270000E+03 0.  0.
    8880022    1    1    2    0    0  0.77285215176E+03 -0.69966579259E+03 -0.23986027656E+04  0.26198319698E+04  0.15294330000E+03 0.  0.
<mgrwt>
<rscale>  0 0.11855955E+04</rscale>
<asrwt>0</asrwt>
<pdfrwt beam="1">  1        1 0.50892473E+00 0.12331435E+04</pdfrwt>
<pdfrwt beam="2">  1       -1 0.90235888E-01 0.12331435E+04</pdfrwt>
<totfact> 0.42156737E-01</totfact>
</mgrwt>
</event>
<event>
 4    1  0.2514307E-008  0.6996319E+03  0.7818608E-02  0.9998731E-01
          1   -1    0    0  501    0  0.00000000000E+00  0.00000000000E+00  0.18622911668E+04  0.18622911668E+04  0.50400000000E-02 0. -1.
         -1   -1    0    0    0  501 -0.00000000000E+00 -0.00000000000E+00 -0.14492458360E+03  0.14492458369E+03  0.50400000000E-02 0.  1.
    8880023    1    1    2    0    0 -0.12032888883E+03  0.20296697795E+03  0.88198874474E+03  0.11257837216E+04  0.65864270000E+03 0.  0.
    8880022    1    1    2    0    0  0.12032888883E+03 -0.20296697795E+03  0.83537783848E+03  0.88143202895E+03  0.15294330000E+03 0.  0.
<mgrwt>
<rscale>  0 0.55705893E+03</rscale>
<asrwt>0</asrwt>
<pdfrwt beam="1">  1        1 0.28650632E+00 0.69963193E+03</pdfrwt>
<pdfrwt beam="2">  1       -1 0.22296091E-01 0.69963193E+03</pdfrwt>
<totfact> 0.65170415E+01</totfact>
</mgrwt>
</event>
<event>
 4    1  0.2514307E-008  0.1118432E+04  0.7818608E-02  0.9240807E-01
         -1   -1    0    0    0  501 -0.00000000000E+00  0.00000000000E+00  0.15795445127E+04  0.15795445127E+04  0.50400000000E-02 0.  1.
          1   -1    0    0  501    0  0.00000000000E+00 -0.00000000000E+00 -0.11432900054E+04  0.11432900054E+04  0.50400000000E-02 0. -1.
    8880023    1    1    2    0    0 -0.46689733370E+03  0.77400698898E+03  0.11172047579E+04  0.15808341521E+04  0.65864270000E+03 0.  1.
    8880022    1    1    2    0    0  0.46689733370E+03 -0.77400698898E+03 -0.68095025060E+03  0.11420003660E+04  0.15294330000E+03 0.  0.
<mgrwt>
<rscale>  0 0.10641983E+04</rscale>
<asrwt>0</asrwt>
<pdfrwt beam="1">  1        1 0.17589077E+00 0.11184320E+04</pdfrwt>
<pdfrwt beam="2">  1       -1 0.24300685E+00 0.11184320E+04</pdfrwt>
<totfact> 0.90380620E-01</totfact>
</mgrwt>
</event>
<event>
 4    1  0.2514307E-008  0.1319896E+04  0.7818608E-02  0.9048566E-01
         -1   -1    0    0    0  501 -0.00000000000E+00  0.00000000000E+00  0.12552144107E+04  0.12552144107E+04  0.50400000000E-02 0.  1.
          1   -1    0    0  501    0  0.00000000000E+00 -0.00000000000E+00 -0.15527561562E+04  0.15527561562E+04  0.50400000000E-02 0. -1.
    8880023    1    1    2    0    0 -0.41918047004E+03 -0.10642387911E+04  0.49321825733E+03  0.14090390082E+04  0.65864270000E+03 0.  0.
    8880022    1    1    2    0    0  0.41918047004E+03  0.10642387911E+04 -0.79076000279E+03  0.13989315587E+04  0.15294330000E+03 0.  0.
<mgrwt>
<rscale>  0 0.12763096E+04</rscale>
<asrwt>0</asrwt>
<pdfrwt beam="1">  1        1 0.23888556E+00 0.13198965E+04</pdfrwt>
<pdfrwt beam="2">  1       -1 0.19310991E+00 0.13198965E+04</pdfrwt>
<totfact> 0.97640166E-01</totfact>
</mgrwt>
</event>
<event>
 4    1  0.2514307E-008  0.7287280E+03  0.7818608E-02  0.9894089E-01
         -1   -1    0    0    0  501 -0.00000000000E+00  0.00000000000E+00  0.18884263904E+04  0.18884263904E+04  0.50400000000E-02 0.  1.
          1   -1    0    0  501    0  0.00000000000E+00 -0.00000000000E+00 -0.41047975668E+03  0.41047975671E+03  0.50400000000E-02 0. -1.
    8880023    1    1    2    0    0  0.14813333644E+03  0.27439166074E+03  0.17250522312E+04  0.18726584514E+04  0.65864270000E+03 0.  1.
    8880022    1    1    2    0    0 -0.14813333644E+03 -0.27439166074E+03 -0.24710559745E+03  0.42624769578E+03  0.15294330000E+03 0.  0.
<mgrwt>
<rscale>  0 0.60548608E+03</rscale>
<asrwt>0</asrwt>
<pdfrwt beam="1">  1        1 0.63150731E-01 0.72872798E+03</pdfrwt>
<pdfrwt beam="2">  1       -1 0.29052714E+00 0.72872798E+03</pdfrwt>
<totfact> 0.23215924E+00</totfact>
</mgrwt>
</event>
<event>
 4    1  0.2514307E-008  0.7385261E+03  0.7818608E-02  0.9864261E-01
         -1   -1    0    0    0  501 -0.00000000000E+00  0.00000000000E+00  0.69504288992E+03  0.69504288994E+03  0.50400000000E-02 0.  1.
          1   -1    0    0  501    0  0.00000000000E+00 -0.00000000000E+00 -0.23399497628E+04  0.23399497628E+04  0.50400000000E-02 0. -1.
    8880023    1    1    2    0    0 -0.48695105326E+02  0.33051375907E+03  0.47852670064E+03  0.88000486800E+03  0.65864270000E+03 0.  1.
    8880022    1    1    2    0    0  0.48695105326E+02 -0.33051375907E+03 -0.21234335735E+04  0.21549877847E+04  0.15294330000E+03 0.  0.
<mgrwt>
<rscale>  0 0.62025030E+03</rscale>
<asrwt>0</asrwt>
<pdfrwt beam="1">  1        1 0.35999227E+00 0.73852608E+03</pdfrwt>
<pdfrwt beam="2">  1       -1 0.10692968E+00 0.73852608E+03</pdfrwt>
<totfact> 0.15179563E+00</totfact>
</mgrwt>
</event>
<event>
 4    1  0.2514307E-008  0.7598431E+03  0.7818608E-02  0.9805514E-01
          1   -1    0    0  501    0  0.00000000000E+00  0.00000000000E+00  0.57345592671E+03  0.57345592674E+03  0.50400000000E-02 0. -1.
         -1   -1    0    0    0  501 -0.00000000000E+00 -0.00000000000E+00 -0.10496776685E+04  0.10496776685E+04  0.50400000000E-02 0.  1.
    8880023    1    1    2    0    0  0.91025819039E+02 -0.36778485067E+03 -0.79886387701E+03  0.11025176173E+04  0.65864270000E+03 0.  0.
    8880022    1    1    2    0    0 -0.91025819039E+02  0.36778485067E+03  0.32264213522E+03  0.52061597800E+03  0.15294330000E+03 0.  0.
<mgrwt>
<rscale>  0 0.65067483E+03</rscale>
<asrwt>0</asrwt>
<pdfrwt beam="1">  1        1 0.88223989E-01 0.75984314E+03</pdfrwt>
<pdfrwt beam="2">  1       -1 0.16148887E+00 0.75984314E+03</pdfrwt>
<totfact> 0.10708890E+01</totfact>
</mgrwt>
</event>
<event>
 4    1  0.2514307E-008  0.1264991E+04  0.7818608E-02  0.9096398E-01
         -1   -1    0    0    0  501 -0.00000000000E+00  0.00000000000E+00  0.84484704691E+03  0.84484704693E+03  0.50400000000E-02 0.  1.
          1   -1    0    0  501    0  0.00000000000E+00 -0.00000000000E+00 -0.19138145434E+04  0.19138145434E+04  0.50400000000E-02 0. -1.
    8880023    1    1    2    0    0 -0.10092776286E+04  0.38438281581E+03 -0.49987100049E+02  0.12659780398E+04  0.65864270000E+03 0.  0.
    8880022    1    1    2    0    0  0.10092776286E+04 -0.38438281581E+03 -0.10189803965E+04  0.14926835506E+04  0.15294330000E+03 0.  0.
<mgrwt>
<rscale>  0 0.12189868E+04</rscale>
<asrwt>0</asrwt>
<pdfrwt beam="1">  1        1 0.29443300E+00 0.12649908E+04</pdfrwt>
<pdfrwt beam="2">  1       -1 0.12997647E+00 0.12649908E+04</pdfrwt>
<totfact> 0.16884236E+00</totfact>
</mgrwt>
</event>
<event>
 4    1  0.2514307E-008  0.6611398E+03  0.7818608E-02  0.1023018E+00
         -1   -1    0    0    0  501 -0.00000000000E+00  0.00000000000E+00  0.80822527450E+03  0.80822527452E+03  0.50400000000E-02 0.  1.
          1   -1    0    0  501    0  0.00000000000E+00 -0.00000000000E+00 -0.37651688696E+03  0.37651688699E+03  0.50400000000E-02 0. -1.
    8880023    1    1    2    0    0 -0.47603835941E+02  0.32085642954E+02  0.63990795034E+03  0.92010217088E+03  0.65864270000E+03 0.  1.
    8880022    1    1    2    0    0  0.47603835941E+02 -0.32085642954E+02 -0.20819956279E+03  0.26463999063E+03  0.15294330000E+03 0.  0.
<mgrwt>
<rscale>  0 0.46613100E+03</rscale>
<asrwt>0</asrwt>
<pdfrwt beam="1">  1        1 0.57925676E-01 0.66113979E+03</pdfrwt>
<pdfrwt beam="2">  1       -1 0.12434235E+00 0.66113979E+03</pdfrwt>
<totfact> 0.37997852E+01</totfact>
</mgrwt>
</event>
<event>
 4    1  0.2514307E-008  0.1896141E+04  0.7818608E-02  0.8671140E-01
          1   -1    0    0  501    0  0.00000000000E+00  0.00000000000E+00  0.28601736084E+04  0.28601736085E+04  0.50400000000E-02 0. -1.
         -1   -1    0    0    0  501 -0.00000000000E+00 -0.00000000000E+00 -0.14078936491E+04  0.14078936491E+04  0.50400000000E-02 0.  1.
    8880023    1    1    2    0    0  0.71727288147E+03 -0.16269786909E+04  0.15949386565E+04  0.24777367841E+04  0.65864270000E+03 0.  0.
    8880022    1    1    2    0    0 -0.71727288147E+03  0.16269786909E+04 -0.14265869712E+03  0.17903304734E+04  0.15294330000E+03 0.  0.
<mgrwt>
<rscale>  0 0.18676284E+04</rscale>
<asrwt>0</asrwt>
<pdfrwt beam="1">  1        1 0.44002670E+00 0.18961409E+04</pdfrwt>
<pdfrwt beam="2">  1       -1 0.21659903E+00 0.18961409E+04</pdfrwt>
<totfact> 0.79024789E-02</totfact>
</mgrwt>
</event>
<event>
 4    1  0.2514307E-008  0.9614555E+03  0.7818608E-02  0.9433820E-01
         -1   -1    0    0    0  501 -0.00000000000E+00  0.00000000000E+00  0.65044063642E+03  0.65044063644E+03  0.50400000000E-02 0.  1.
          1   -1    0    0  501    0  0.00000000000E+00 -0.00000000000E+00 -0.19389851563E+04  0.19389851563E+04  0.50400000000E-02 0. -1.
    8880023    1    1    2    0    0  0.61739148928E+03  0.33077814817E+03  0.15858395054E+03  0.97444625813E+03  0.65864270000E+03 0.  0.
    8880022    1    1    2    0    0 -0.61739148928E+03 -0.33077814817E+03 -0.14471284705E+04  0.16149795347E+04  0.15294330000E+03 0.  0.
<mgrwt>
<rscale>  0 0.89343911E+03</rscale>
<asrwt>0</asrwt>
<pdfrwt beam="1">  1        1 0.29830541E+00 0.96145548E+03</pdfrwt>
<pdfrwt beam="2">  1       -1 0.10006779E+00 0.96145548E+03</pdfrwt>
<totfact> 0.31689174E+00</totfact>
</mgrwt>
</event>
<event>
 4    1  0.2514307E-008  0.1430936E+04  0.7818608E-02  0.8960010E-01
          1   -1    0    0  501    0  0.00000000000E+00  0.00000000000E+00  0.74774348258E+03  0.74774348260E+03  0.50400000000E-02 0. -1.
         -1   -1    0    0    0  501 -0.00000000000E+00 -0.00000000000E+00 -0.32212652075E+04  0.32212652075E+04  0.50400000000E-02 0.  1.
    8880023    1    1    2    0    0  0.95265325321E+03  0.84036854790E+03 -0.22554055193E+04  0.26710357130E+04  0.65864270000E+03 0.  1.
    8880022    1    1    2    0    0 -0.95265325321E+03 -0.84036854790E+03 -0.21811620559E+03  0.12979729771E+04  0.15294330000E+03 0.  0.
<mgrwt>
<rscale>  0 0.13914785E+04</rscale>
<asrwt>0</asrwt>
<pdfrwt beam="1">  1        1 0.11503746E+00 0.14309360E+04</pdfrwt>
<pdfrwt beam="2">  1       -1 0.49557926E+00 0.14309360E+04</pdfrwt>
<totfact> 0.37522382E-02</totfact>
</mgrwt>
</event>
<event>
 4    1  0.2514307E-008  0.1544804E+04  0.7818608E-02  0.8878629E-01
          1   -1    0    0  501    0  0.00000000000E+00  0.00000000000E+00  0.13888377489E+04  0.13888377490E+04  0.50400000000E-02 0. -1.
         -1   -1    0    0    0  501 -0.00000000000E+00 -0.00000000000E+00 -0.21825104530E+04  0.21825104530E+04  0.50400000000E-02 0.  1.
    8880023    1    1    2    0    0 -0.11189893797E+04 -0.83694197187E+03 -0.13577681032E+04  0.20566850815E+04  0.65864270000E+03 0.  1.
    8880022    1    1    2    0    0  0.11189893797E+04  0.83694197187E+03  0.56409539911E+03  0.15146631205E+04  0.15294330000E+03 0.  0.
<mgrwt>
<rscale>  0 0.15087887E+04</rscale>
<asrwt>0</asrwt>
<pdfrwt beam="1">  1        1 0.21366735E+00 0.15448040E+04</pdfrwt>
<pdfrwt beam="2">  1       -1 0.33577084E+00 0.15448040E+04</pdfrwt>
<totfact> 0.14219173E-01</totfact>
</mgrwt>
</event>
<event>
 4    1  0.2514307E-008  0.9021136E+03  0.7818608E-02  0.9522647E-01
         -1   -1    0    0    0  501 -0.00000000000E+00  0.00000000000E+00  0.32957126055E+03  0.32957126059E+03  0.50400000000E-02 0.  1.
          1   -1    0    0  501    0  0.00000000000E+00 -0.00000000000E+00 -0.37790069708E+04  0.37790069708E+04  0.50400000000E-02 0. -1.
    8880023    1    1    2    0    0 -0.59720440583E+03  0.15279285856E+03 -0.38810400420E+03  0.98205584582E+03  0.65864270000E+03 0.  1.
    8880022    1    1    2    0    0  0.59720440583E+03 -0.15279285856E+03 -0.30613317060E+04  0.31265223856E+04  0.15294330000E+03 0.  0.
<mgrwt>
<rscale>  0 0.82634542E+03</rscale>
<asrwt>0</asrwt>
<pdfrwt beam="1">  1        1 0.58138566E+00 0.90211361E+03</pdfrwt>
<pdfrwt beam="2">  1       -1 0.50703274E-01 0.90211361E+03</pdfrwt>
<totfact> 0.61862701E-01</totfact>
</mgrwt>
</event>
<event>
 4    1  0.2842834E-008  0.8377318E+03  0.7818608E-02  0.9634472E-01
          1   -1    0    0  501    0  0.00000000000E+00  0.00000000000E+00  0.21169004119E+04  0.21169004119E+04  0.50400000000E-02 0. -1.
         -1   -1    0    0    0  501 -0.00000000000E+00 -0.00000000000E+00 -0.14726846142E+04  0.14726846142E+04  0.50400000000E-02 0.  1.
    8880023    1    1    2    0    0 -0.48806984688E+03 -0.17254637423E+03 -0.13140019177E+04  0.15583310536E+04  0.65864270000E+03 0.  0.
    8880022    1    1    2    0    0  0.48806984688E+03  0.17254637423E+03  0.19582177155E+04  0.20312539725E+04  0.15294330000E+03 0.  0.
<mgrwt>
<rscale>  0 0.75056015E+03</rscale>
<asrwt>0</asrwt>
<pdfrwt beam="1">  1        1 0.32567699E+00 0.83773184E+03</pdfrwt>
<pdfrwt beam="2">  1       -1 0.22656686E+00 0.83773184E+03</pdfrwt>
<totfact> 0.25929247E-01</totfact>
</mgrwt>
</event>
<event>
 4    1  0.2514307E-008  0.1514095E+04  0.7818608E-02  0.8899746E-01
         -1   -1    0    0    0  501 -0.00000000000E+00  0.00000000000E+00  0.14341441559E+04  0.14341441559E+04  0.50400000000E-02 0.  1.
          1   -1    0    0  501    0  0.00000000000E+00 -0.00000000000E+00 -0.19271131296E+04  0.19271131296E+04  0.50400000000E-02 0. -1.
    8880023    1    1    2    0    0  0.99359107384E+03  0.93351579143E+03  0.57817884934E+03  0.16207331498E+04  0.65864270000E+03 0.  0.
    8880022    1    1    2    0    0 -0.99359107384E+03 -0.93351579143E+03 -0.10711478231E+04  0.17405241356E+04  0.15294330000E+03 0.  0.
<mgrwt>
<rscale>  0 0.14772171E+04</rscale>
<asrwt>0</asrwt>
<pdfrwt beam="1">  1        1 0.29647894E+00 0.15140955E+04</pdfrwt>
<pdfrwt beam="2">  1       -1 0.22063756E+00 0.15140955E+04</pdfrwt>
<totfact> 0.34317510E-01</totfact>
</mgrwt>
</event>
<event>
 4    1  0.2514307E-008  0.7720852E+03  0.7818608E-02  0.9774769E-01
         -1   -1    0    0    0  501 -0.00000000000E+00  0.00000000000E+00  0.42879668573E+03  0.42879668576E+03  0.50400000000E-02 0.  1.
          1   -1    0    0  501    0  0.00000000000E+00 -0.00000000000E+00 -0.17608996556E+04  0.17608996556E+04  0.50400000000E-02 0. -1.
    8880023    1    1    2    0    0  0.42729937794E+02 -0.40059892646E+03  0.18199345386E+02  0.77229966328E+03  0.65864270000E+03 0.  0.
    8880022    1    1    2    0    0 -0.42729937794E+02  0.40059892646E+03 -0.13503023152E+04  0.14173966781E+04  0.15294330000E+03 0.  0.
<mgrwt>
<rscale>  0 0.66734365E+03</rscale>
<asrwt>0</asrwt>
<pdfrwt beam="1">  1        1 0.27090763E+00 0.77208520E+03</pdfrwt>
<pdfrwt beam="2">  1       -1 0.65968722E-01 0.77208520E+03</pdfrwt>
<totfact> 0.10476021E+01</totfact>
</mgrwt>
</event>
<event>
 4    1  0.2514307E-008  0.7156054E+03  0.7818608E-02  0.9937746E-01
         -1   -1    0    0    0  501 -0.00000000000E+00  0.00000000000E+00  0.51669021605E+03  0.51669021608E+03  0.50400000000E-02 0.  1.
          1   -1    0    0  501    0  0.00000000000E+00 -0.00000000000E+00 -0.23119467441E+04  0.23119467441E+04  0.50400000000E-02 0. -1.
    8880023    1    1    2    0    0  0.24419643437E+03  0.13656111929E+03  0.25049776457E+03  0.75818215105E+03  0.65864270000E+03 0.  0.
    8880022    1    1    2    0    0 -0.24419643437E+03 -0.13656111929E+03 -0.20457542926E+04  0.20704548091E+04  0.15294330000E+03 0.  0.
<mgrwt>
<rscale>  0 0.58466302E+03</rscale>
<asrwt>0</asrwt>
<pdfrwt beam="1">  1        1 0.35568411E+00 0.71560537E+03</pdfrwt>
<pdfrwt beam="2">  1       -1 0.79490804E-01 0.71560537E+03</pdfrwt>
<totfact> 0.30763487E+00</totfact>
</mgrwt>
</event>
<event>
 4    1  0.2514307E-008  0.8525851E+03  0.7818608E-02  0.9606892E-01
         -1   -1    0    0    0  501 -0.00000000000E+00  0.00000000000E+00  0.12349820480E+04  0.12349820480E+04  0.50400000000E-02 0.  1.
          1   -1    0    0  501    0  0.00000000000E+00 -0.00000000000E+00 -0.43780157532E+03  0.43780157535E+03  0.50400000000E-02 0. -1.
    8880023    1    1    2    0    0  0.40612257452E+02  0.53985343676E+03  0.25116916614E+03  0.88881226641E+03  0.65864270000E+03 0.  1.
    8880022    1    1    2    0    0 -0.40612257452E+02 -0.53985343676E+03  0.54601130655E+03  0.78397135696E+03  0.15294330000E+03 0.  0.
<mgrwt>
<rscale>  0 0.76841714E+03</rscale>
<asrwt>0</asrwt>
<pdfrwt beam="1">  1        1 0.67354089E-01 0.85258507E+03</pdfrwt>
<pdfrwt beam="2">  1       -1 0.18999724E+00 0.85258507E+03</pdfrwt>
<totfact> 0.95701458E+00</totfact>
</mgrwt>
</event>
<event>
 4    1  0.2514307E-008  0.1626260E+04  0.7818608E-02  0.8825269E-01
          1   -1    0    0  501    0  0.00000000000E+00  0.00000000000E+00  0.44747164288E+04  0.44747164288E+04  0.50400000000E-02 0. -1.
         -1   -1    0    0    0  501 -0.00000000000E+00 -0.00000000000E+00 -0.10984627464E+04  0.10984627464E+04  0.50400000000E-02 0.  1.
    8880023    1    1    2    0    0  0.14832379526E+04 -0.10448382682E+03 -0.25516528811E+03  0.16461565007E+04  0.65864270000E+03 0.  0.
    8880022    1    1    2    0    0 -0.14832379526E+04  0.10448382682E+03  0.36314189705E+04  0.39270226746E+04  0.15294330000E+03 0.  0.
<mgrwt>
<rscale>  0 0.15923380E+04</rscale>
<asrwt>0</asrwt>
<pdfrwt beam="1">  1        1 0.68841791E+00 0.16262601E+04</pdfrwt>
<pdfrwt beam="2">  1       -1 0.16899427E+00 0.16262601E+04</pdfrwt>
<totfact> 0.81291626E-03</totfact>
</mgrwt>
</event>
<event>
 4    1  0.2514307E-008  0.7374800E+03  0.7818608E-02  0.9867349E-01
          1   -1    0    0  501    0  0.00000000000E+00  0.00000000000E+00  0.73745936159E+03  0.73745936161E+03  0.50400000000E-02 0. -1.
         -1   -1    0    0    0  501 -0.00000000000E+00 -0.00000000000E+00 -0.19910873700E+04  0.19910873700E+04  0.50400000000E-02 0.  1.
    8880023    1    1    2    0    0 -0.30853362494E+03 -0.12195727789E+03 -0.18710487782E+04  0.20111440307E+04  0.65864270000E+03 0.  1.
    8880022    1    1    2    0    0  0.30853362494E+03  0.12195727789E+03  0.61742076980E+03  0.71740270096E+03  0.15294330000E+03 0.  0.
<mgrwt>
<rscale>  0 0.61870107E+03</rscale>
<asrwt>0</asrwt>
<pdfrwt beam="1">  1        1 0.11345529E+00 0.73748002E+03</pdfrwt>
<pdfrwt beam="2">  1       -1 0.30632113E+00 0.73748002E+03</pdfrwt>
<totfact> 0.80203133E-01</totfact>
</mgrwt>
</event>
<event>
 4    1  0.2514307E-008  0.8741912E+03  0.7818608E-02  0.9568802E-01
          1   -1    0    0  501    0  0.00000000000E+00  0.00000000000E+00  0.73820609516E+03  0.73820609517E+03  0.50400000000E-02 0. -1.
         -1   -1    0    0    0  501 -0.00000000000E+00 -0.00000000000E+00 -0.15346598386E+04  0.15346598386E+04  0.50400000000E-02 0.  1.
    8880023    1    1    2    0    0  0.16500563146E+03  0.55061163887E+03 -0.12496602084E+04  0.15250773351E+04  0.65864270000E+03 0.  1.
    8880022    1    1    2    0    0 -0.16500563146E+03 -0.55061163887E+03  0.45320646503E+03  0.74778859863E+03  0.15294330000E+03 0.  0.
<mgrwt>
<rscale>  0 0.79395936E+03</rscale>
<asrwt>0</asrwt>
<pdfrwt beam="1">  1        1 0.11357017E+00 0.87419119E+03</pdfrwt>
<pdfrwt beam="2">  1       -1 0.23610151E+00 0.87419119E+03</pdfrwt>
<totfact> 0.22109861E+00</totfact>
</mgrwt>
</event>
<event>
 4    1  0.2514307E-008  0.9435745E+03  0.7818608E-02  0.9459420E-01
          1   -1    0    0  501    0  0.00000000000E+00  0.00000000000E+00  0.31681188638E+04  0.31681188638E+04  0.50400000000E-02 0. -1.
         -1   -1    0    0    0  501 -0.00000000000E+00 -0.00000000000E+00 -0.10545788570E+04  0.10545788570E+04  0.50400000000E-02 0.  1.
    8880023    1    1    2    0    0 -0.18685765763E+03 -0.64931262598E+03 -0.79435443945E+03  0.12334228197E+04  0.65864270000E+03 0.  0.
    8880022    1    1    2    0    0  0.18685765763E+03  0.64931262598E+03  0.29078944462E+04  0.29892749010E+04  0.15294330000E+03 0.  0.
<mgrwt>
<rscale>  0 0.87342902E+03</rscale>
<asrwt>0</asrwt>
<pdfrwt beam="1">  1        1 0.48740289E+00 0.94357452E+03</pdfrwt>
<pdfrwt beam="2">  1       -1 0.16224290E+00 0.94357452E+03</pdfrwt>
<totfact> 0.13177647E-01</totfact>
</mgrwt>
</event>
<event>
 4    1  0.2514307E-008  0.7013572E+03  0.7818608E-02  0.9991617E-01
          1   -1    0    0  501    0  0.00000000000E+00  0.00000000000E+00  0.47025112051E+04  0.47025112051E+04  0.50400000000E-02 0. -1.
         -1   -1    0    0    0  501 -0.00000000000E+00 -0.00000000000E+00 -0.98565112957E+02  0.98565113086E+02  0.50400000000E-02 0.  1.
    8880023    1    1    2    0    0 -0.17868970869E+03 -0.16174562436E+03  0.12365572593E+04  0.14216102563E+04  0.65864270000E+03 0.  1.
    8880022    1    1    2    0    0  0.17868970869E+03  0.16174562436E+03  0.33673888328E+04  0.33794660619E+04  0.15294330000E+03 0.  0.
<mgrwt>
<rscale>  0 0.56019343E+03</rscale>
<asrwt>0</asrwt>
<pdfrwt beam="1">  1        1 0.72346315E+00 0.70135716E+03</pdfrwt>
<pdfrwt beam="2">  1       -1 0.15163866E-01 0.70135716E+03</pdfrwt>
<totfact> 0.72786934E-01</totfact>
</mgrwt>
</event>
<event>
 4    1  0.2514307E-008  0.7022842E+03  0.7818608E-02  0.9987854E-01
         -1   -1    0    0    0  501 -0.00000000000E+00  0.00000000000E+00  0.10209994694E+04  0.10209994694E+04  0.50400000000E-02 0.  1.
          1   -1    0    0  501    0  0.00000000000E+00 -0.00000000000E+00 -0.57530803500E+03  0.57530803502E+03  0.50400000000E-02 0. -1.
    8880023    1    1    2    0    0  0.15901057732E+03  0.18468491684E+03  0.84841147580E+03  0.11013651169E+04  0.65864270000E+03 0.  1.
    8880022    1    1    2    0    0 -0.15901057732E+03 -0.18468491684E+03 -0.40272004140E+03  0.49494238752E+03  0.15294330000E+03 0.  0.
<mgrwt>
<rscale>  0 0.56186027E+03</rscale>
<asrwt>0</asrwt>
<pdfrwt beam="1">  1        1 0.88508929E-01 0.70228419E+03</pdfrwt>
<pdfrwt beam="2">  1       -1 0.15707684E+00 0.70228419E+03</pdfrwt>
<totfact> 0.11593902E+01</totfact>
</mgrwt>
</event>
<event>
 4    1  0.2514307E-008  0.8067625E+03  0.7818608E-02  0.9696360E-01
          1   -1    0    0  501    0  0.00000000000E+00  0.00000000000E+00  0.16379093942E+04  0.16379093942E+04  0.50400000000E-02 0. -1.
         -1   -1    0    0    0  501 -0.00000000000E+00 -0.00000000000E+00 -0.12793652936E+04  0.12793652936E+04  0.50400000000E-02 0.  1.
    8880023    1    1    2    0    0  0.13716986842E+03  0.44524142765E+03 -0.11081877778E+04  0.13707464605E+04  0.65864270000E+03 0.  1.
    8880022    1    1    2    0    0 -0.13716986842E+03 -0.44524142765E+03  0.14667318785E+04  0.15465282274E+04  0.15294330000E+03 0.  0.
<mgrwt>
<rscale>  0 0.71233901E+03</rscale>
<asrwt>0</asrwt>
<pdfrwt beam="1">  1        1 0.25198606E+00 0.80676249E+03</pdfrwt>
<pdfrwt beam="2">  1       -1 0.19682543E+00 0.80676249E+03</pdfrwt>
<totfact> 0.86800073E-01</totfact>
</mgrwt>
</event>
<event>
 4    1  0.2514307E-008  0.7564843E+03  0.7818608E-02  0.9814296E-01
         -1   -1    0    0    0  501 -0.00000000000E+00  0.00000000000E+00  0.21855237925E+04  0.21855237925E+04  0.50400000000E-02 0.  1.
          1   -1    0    0  501    0  0.00000000000E+00 -0.00000000000E+00 -0.91938230613E+03  0.91938230615E+03  0.50400000000E-02 0. -1.
    8880023    1    1    2    0    0  0.14999394237E+03  0.34052921727E+03  0.20711441578E+04  0.22049731652E+04  0.65864270000E+03 0.  1.
    8880022    1    1    2    0    0 -0.14999394237E+03 -0.34052921727E+03 -0.80500267148E+03  0.89993293342E+03  0.15294330000E+03 0.  0.
<mgrwt>
<rscale>  0 0.64600969E+03</rscale>
<asrwt>0</asrwt>
<pdfrwt beam="1">  1        1 0.14144343E+00 0.75648433E+03</pdfrwt>
<pdfrwt beam="2">  1       -1 0.33623443E+00 0.75648433E+03</pdfrwt>
<totfact> 0.35873608E-01</totfact>
</mgrwt>
</event>
<event>
 4    1  0.2514307E-008  0.1088144E+04  0.7818608E-02  0.9274372E-01
         -1   -1    0    0    0  501 -0.00000000000E+00  0.00000000000E+00  0.11201727339E+04  0.11201727339E+04  0.50400000000E-02 0.  1.
          1   -1    0    0  501    0  0.00000000000E+00 -0.00000000000E+00 -0.18721443343E+04  0.18721443343E+04  0.50400000000E-02 0. -1.
    8880023    1    1    2    0    0 -0.26232944253E+03 -0.82548855571E+03  0.70061469741E+03  0.12941867147E+04  0.65864270000E+03 0.  0.
    8880022    1    1    2    0    0  0.26232944253E+03  0.82548855571E+03 -0.14525862978E+04  0.16981303535E+04  0.15294330000E+03 0.  0.
<mgrwt>
<rscale>  0 0.10317685E+04</rscale>
<asrwt>0</asrwt>
<pdfrwt beam="1">  1        1 0.28802220E+00 0.10881444E+04</pdfrwt>
<pdfrwt beam="2">  1       -1 0.17233427E+00 0.10881444E+04</pdfrwt>
<totfact> 0.85786120E-01</totfact>
</mgrwt>
</event>
<event>
 4    1  0.2514307E-008  0.6898321E+03  0.7818608E-02  0.1004232E+00
          1   -1    0    0  501    0  0.00000000000E+00  0.00000000000E+00  0.27351607272E+04  0.27351607272E+04  0.50400000000E-02 0. -1.
         -1   -1    0    0    0  501 -0.00000000000E+00 -0.00000000000E+00 -0.31548929460E+03  0.31548929464E+03  0.50400000000E-02 0.  1.
    8880023    1    1    2    0    0 -0.78418789099E+02 -0.18949557700E+03  0.77073874065E+02  0.69412438980E+03  0.65864270000E+03 0.  1.
    8880022    1    1    2    0    0  0.78418789099E+02  0.18949557700E+03  0.23425975585E+04  0.23565256320E+04  0.15294330000E+03 0.  0.
<mgrwt>
<rscale>  0 0.53832682E+03</rscale>
<asrwt>0</asrwt>
<pdfrwt beam="1">  1        1 0.42079396E+00 0.68983207E+03</pdfrwt>
<pdfrwt beam="2">  1       -1 0.48536814E-01 0.68983207E+03</pdfrwt>
<totfact> 0.42384528E+00</totfact>
</mgrwt>
</event>
<event>
 4    1  0.2514307E-008  0.8315643E+03  0.7818608E-02  0.9646296E-01
          1   -1    0    0  501    0  0.00000000000E+00  0.00000000000E+00  0.25993078035E+04  0.25993078035E+04  0.50400000000E-02 0. -1.
         -1   -1    0    0    0  501 -0.00000000000E+00 -0.00000000000E+00 -0.31555809925E+03  0.31555809929E+03  0.50400000000E-02 0.  1.
    8880023    1    1    2    0    0 -0.43114874052E+03  0.26795467891E+03  0.33706934917E+03  0.89728195057E+03  0.65864270000E+03 0.  1.
    8880022    1    1    2    0    0  0.43114874052E+03 -0.26795467891E+03  0.19466803551E+04  0.20175839522E+04  0.15294330000E+03 0.  0.
<mgrwt>
<rscale>  0 0.74306316E+03</rscale>
<asrwt>0</asrwt>
<pdfrwt beam="1">  1        1 0.39989351E+00 0.83156428E+03</pdfrwt>
<pdfrwt beam="2">  1       -1 0.48547400E-01 0.83156428E+03</pdfrwt>
<totfact> 0.51272587E+00</totfact>
</mgrwt>
</event>
<event>
 4    1  0.2514307E-008  0.1098151E+04  0.7818608E-02  0.9263118E-01
         -1   -1    0    0    0  501 -0.00000000000E+00  0.00000000000E+00  0.10885813406E+04  0.10885813406E+04  0.50400000000E-02 0.  1.
          1   -1    0    0  501    0  0.00000000000E+00 -0.00000000000E+00 -0.11824473298E+04  0.11824473298E+04  0.50400000000E-02 0. -1.
    8880023    1    1    2    0    0 -0.80818764502E+03  0.34490155022E+03  0.49260100328E+03  0.12035739710E+04  0.65864270000E+03 0.  1.
    8880022    1    1    2    0    0  0.80818764502E+03 -0.34490155022E+03 -0.58646699249E+03  0.10674546994E+04  0.15294330000E+03 0.  0.
<mgrwt>
<rscale>  0 0.10425035E+04</rscale>
<asrwt>0</asrwt>
<pdfrwt beam="1">  1        1 0.18191497E+00 0.10981505E+04</pdfrwt>
<pdfrwt beam="2">  1       -1 0.16747405E+00 0.10981505E+04</pdfrwt>
<totfact> 0.28041935E+00</totfact>
</mgrwt>
</event>
<event>
 4    1  0.2514307E-008  0.7582240E+03  0.7818608E-02  0.9809727E-01
          1   -1    0    0  501    0  0.00000000000E+00  0.00000000000E+00  0.28830646874E+03  0.28830646879E+03  0.50400000000E-02 0. -1.
         -1   -1    0    0    0  501 -0.00000000000E+00 -0.00000000000E+00 -0.16237741535E+04  0.16237741535E+04  0.50400000000E-02 0.  1.
    8880023    1    1    2    0    0 -0.37510251821E+03  0.19786130627E+02 -0.13000070732E+04  0.15049657760E+04  0.65864270000E+03 0.  1.
    8880022    1    1    2    0    0  0.37510251821E+03 -0.19786130627E+02 -0.35460611552E+02  0.40711484635E+03  0.15294330000E+03 0.  0.
<mgrwt>
<rscale>  0 0.64843125E+03</rscale>
<asrwt>0</asrwt>
<pdfrwt beam="1">  1        1 0.44354842E-01 0.75822398E+03</pdfrwt>
<pdfrwt beam="2">  1       -1 0.24981140E+00 0.75822398E+03</pdfrwt>
<totfact> 0.66914024E+00</totfact>
</mgrwt>
</event>
<event>
 4    1  0.2514307E-008  0.1225633E+04  0.7818608E-02  0.9132600E-01
         -1   -1    0    0    0  501 -0.00000000000E+00  0.00000000000E+00  0.12049070457E+04  0.12049070457E+04  0.50400000000E-02 0.  1.
          1   -1    0    0  501    0  0.00000000000E+00 -0.00000000000E+00 -0.29565821777E+04  0.29565821777E+04  0.50400000000E-02 0. -1.
    8880023    1    1    2    0    0  0.10220771058E+04  0.15402358434E+03  0.75931262493E+03  0.14417804075E+04  0.65864270000E+03 0.  0.
    8880022    1    1    2    0    0 -0.10220771058E+04 -0.15402358434E+03 -0.25109877570E+04  0.27197088159E+04  0.15294330000E+03 0.  0.
<mgrwt>
<rscale>  0 0.11777034E+04</rscale>
<asrwt>0</asrwt>
<pdfrwt beam="1">  1        1 0.45485879E+00 0.12256325E+04</pdfrwt>
<pdfrwt beam="2">  1       -1 0.18537032E+00 0.12256325E+04</pdfrwt>
<totfact> 0.12087819E-01</totfact>
</mgrwt>
</event>
<event>
 4    1  0.2514307E-008  0.8851567E+03  0.7818608E-02  0.9550293E-01
          1   -1    0    0  501    0  0.00000000000E+00  0.00000000000E+00  0.42759284916E+03  0.42759284919E+03  0.50400000000E-02 0. -1.
         -1   -1    0    0    0  501 -0.00000000000E+00 -0.00000000000E+00 -0.13826144620E+04  0.13826144620E+04  0.50400000000E-02 0.  1.
    8880023    1    1    2    0    0 -0.24714966365E+03  0.53722363306E+03 -0.35409618299E+03  0.95335539083E+03  0.65864270000E+03 0.  0.
    8880022    1    1    2    0    0  0.24714966365E+03 -0.53722363306E+03 -0.60092542980E+03  0.85685192032E+03  0.15294330000E+03 0.  0.
<mgrwt>
<rscale>  0 0.80675363E+03</rscale>
<asrwt>0</asrwt>
<pdfrwt beam="1">  1        1 0.65783516E-01 0.88515671E+03</pdfrwt>
<pdfrwt beam="2">  1       -1 0.21270992E+00 0.88515671E+03</pdfrwt>
<totfact> 0.68802258E+00</totfact>
</mgrwt>
</event>
<event>
 4    1  0.2514307E-008  0.9730331E+03  0.7818608E-02  0.9417721E-01
          1   -1    0    0  501    0  0.00000000000E+00  0.00000000000E+00  0.10357859162E+04  0.10357859162E+04  0.50400000000E-02 0. -1.
         -1   -1    0    0    0  501 -0.00000000000E+00 -0.00000000000E+00 -0.12183155338E+04  0.12183155338E+04  0.50400000000E-02 0.  1.
    8880023    1    1    2    0    0 -0.71063018936E+03  0.89375536606E+02 -0.82817981225E+03  0.12777618167E+04  0.65864270000E+03 0.  1.
    8880022    1    1    2    0    0  0.71063018936E+03 -0.89375536606E+02  0.64565019473E+03  0.97633963329E+03  0.15294330000E+03 0.  0.
<mgrwt>
<rscale>  0 0.90631522E+03</rscale>
<asrwt>0</asrwt>
<pdfrwt beam="1">  1        1 0.15935168E+00 0.97303312E+03</pdfrwt>
<pdfrwt beam="2">  1       -1 0.18743316E+00 0.97303312E+03</pdfrwt>
<totfact> 0.26334077E+00</totfact>
</mgrwt>
</event>
<event>
 4    1  0.2514307E-008  0.7582284E+03  0.7818608E-02  0.9809716E-01
         -1   -1    0    0    0  501 -0.00000000000E+00  0.00000000000E+00  0.11371645300E+04  0.11371645300E+04  0.50400000000E-02 0.  1.
          1   -1    0    0  501    0  0.00000000000E+00 -0.00000000000E+00 -0.62934250630E+03  0.62934250632E+03  0.50400000000E-02 0. -1.
    8880023    1    1    2    0    0 -0.67858313575E+02 -0.36945281443E+03  0.91734418375E+03  0.11901389375E+04  0.65864270000E+03 0.  0.
    8880022    1    1    2    0    0  0.67858313575E+02  0.36945281443E+03 -0.40952216003E+03  0.57636809886E+03  0.15294330000E+03 0.  0.
<mgrwt>
<rscale>  0 0.64843742E+03</rscale>
<asrwt>0</asrwt>
<pdfrwt beam="1">  1        1 0.96821925E-01 0.75822842E+03</pdfrwt>
<pdfrwt beam="2">  1       -1 0.17494839E+00 0.75822842E+03</pdfrwt>
<totfact> 0.74600215E+00</totfact>
</mgrwt>
</event>
<event>
 4    1  0.2514307E-008  0.6713374E+03  0.7818608E-02  0.1014722E+00
          1   -1    0    0  501    0  0.00000000000E+00  0.00000000000E+00  0.69931027041E+03  0.69931027042E+03  0.50400000000E-02 0. -1.
         -1   -1    0    0    0  501 -0.00000000000E+00 -0.00000000000E+00 -0.12252580043E+04  0.12252580043E+04  0.50400000000E-02 0.  1.
    8880023    1    1    2    0    0  0.14515233281E+02  0.12912398274E+03 -0.11154221984E+04  0.13018681123E+04  0.65864270000E+03 0.  1.
    8880022    1    1    2    0    0 -0.14515233281E+02 -0.12912398274E+03  0.58947446452E+03  0.62270016240E+03  0.15294330000E+03 0.  0.
<mgrwt>
<rscale>  0 0.49640431E+03</rscale>
<asrwt>0</asrwt>
<pdfrwt beam="1">  1        1 0.10758620E+00 0.67133740E+03</pdfrwt>
<pdfrwt beam="2">  1       -1 0.18850123E+00 0.67133740E+03</pdfrwt>
<totfact> 0.51795893E+00</totfact>
</mgrwt>
</event>
<event>
 4    1  0.2514307E-008  0.1426337E+04  0.7818608E-02  0.8963484E-01
         -1   -1    0    0    0  501 -0.00000000000E+00  0.00000000000E+00  0.14868019473E+04  0.14868019473E+04  0.50400000000E-02 0.  1.
          1   -1    0    0  501    0  0.00000000000E+00 -0.00000000000E+00 -0.15124918218E+04  0.15124918218E+04  0.50400000000E-02 0. -1.
    8880023    1    1    2    0    0 -0.12607348192E+04 -0.10570537104E+03  0.63792265741E+03  0.15624920585E+04  0.65864270000E+03 0.  0.
    8880022    1    1    2    0    0  0.12607348192E+04  0.10570537104E+03 -0.66361253196E+03  0.14368017106E+04  0.15294330000E+03 0.  0.
<mgrwt>
<rscale>  0 0.13867251E+04</rscale>
<asrwt>0</asrwt>
<pdfrwt beam="1">  1        1 0.23269105E+00 0.14263366E+04</pdfrwt>
<pdfrwt beam="2">  1       -1 0.22873876E+00 0.14263366E+04</pdfrwt>
<totfact> 0.58859343E-01</totfact>
</mgrwt>
</event>
<event>
 4    1  0.2514307E-008  0.6932855E+03  0.7818608E-02  0.1002629E+00
         -1   -1    0    0    0  501 -0.00000000000E+00  0.00000000000E+00  0.52413352371E+03  0.52413352373E+03  0.50400000000E-02 0.  1.
          1   -1    0    0  501    0  0.00000000000E+00 -0.00000000000E+00 -0.22085224866E+04  0.22085224866E+04  0.50400000000E-02 0. -1.
    8880023    1    1    2    0    0  0.20450789747E+03  0.70789309257E+02  0.28203398070E+03  0.74845706555E+03  0.65864270000E+03 0.  1.
    8880022    1    1    2    0    0 -0.20450789747E+03 -0.70789309257E+02 -0.19664229436E+04  0.19841989448E+04  0.15294330000E+03 0.  0.
<mgrwt>
<rscale>  0 0.54512555E+03</rscale>
<asrwt>0</asrwt>
<pdfrwt beam="1">  1        1 0.33977269E+00 0.69328552E+03</pdfrwt>
<pdfrwt beam="2">  1       -1 0.80635928E-01 0.69328552E+03</pdfrwt>
<totfact> 0.35184536E+00</totfact>
</mgrwt>
</event>
<event>
 4    1  0.2514307E-008  0.7083814E+03  0.7818608E-02  0.9964061E-01
         -1   -1    0    0    0  501 -0.00000000000E+00  0.00000000000E+00  0.84117409927E+03  0.84117409929E+03  0.50400000000E-02 0.  1.
          1   -1    0    0  501    0  0.00000000000E+00 -0.00000000000E+00 -0.91338499015E+03  0.91338499017E+03  0.50400000000E-02 0. -1.
    8880023    1    1    2    0    0  0.25736283909E+03  0.41933632626E+02  0.65638680998E+03  0.96573697820E+03  0.65864270000E+03 0.  0.
    8880022    1    1    2    0    0 -0.25736283909E+03 -0.41933632626E+02 -0.72859770086E+03  0.78882211125E+03  0.15294330000E+03 0.  0.
<mgrwt>
<rscale>  0 0.57254572E+03</rscale>
<asrwt>0</asrwt>
<pdfrwt beam="1">  1        1 0.14052077E+00 0.70838144E+03</pdfrwt>
<pdfrwt beam="2">  1       -1 0.12941140E+00 0.70838144E+03</pdfrwt>
<totfact> 0.94509093E+00</totfact>
</mgrwt>
</event>
<event>
 4    1  0.2514307E-008  0.6706625E+03  0.7818608E-02  0.1015192E+00
         -1   -1    0    0    0  501 -0.00000000000E+00  0.00000000000E+00  0.20892631267E+03  0.20892631273E+03  0.50400000000E-02 0.  1.
          1   -1    0    0  501    0  0.00000000000E+00 -0.00000000000E+00 -0.13989207073E+04  0.13989207073E+04  0.50400000000E-02 0. -1.
    8880023    1    1    2    0    0 -0.46798910064E+02 -0.11742186711E+03 -0.37363014298E+03  0.76771591287E+03  0.65864270000E+03 0.  0.
    8880022    1    1    2    0    0  0.46798910064E+02  0.11742186711E+03 -0.81636425160E+03  0.84013110713E+03  0.15294330000E+03 0.  0.
<mgrwt>
<rscale>  0 0.49462183E+03</rscale>
<asrwt>0</asrwt>
<pdfrwt beam="1">  1        1 0.21521856E+00 0.67066254E+03</pdfrwt>
<pdfrwt beam="2">  1       -1 0.32142510E-01 0.67066254E+03</pdfrwt>
<totfact> 0.71797560E+01</totfact>
</mgrwt>
</event>
<event>
 4    1  0.2514307E-008  0.7374793E+03  0.7818608E-02  0.9867351E-01
          1   -1    0    0  501    0  0.00000000000E+00  0.00000000000E+00  0.79967196413E+03  0.79967196414E+03  0.50400000000E-02 0. -1.
         -1   -1    0    0    0  501 -0.00000000000E+00 -0.00000000000E+00 -0.76292171675E+03  0.76292171677E+03  0.50400000000E-02 0.  1.
    8880023    1    1    2    0    0  0.71096755832E+02 -0.32405364059E+03 -0.51596966565E+03  0.90005578317E+03  0.65864270000E+03 0.  0.
    8880022    1    1    2    0    0 -0.71096755832E+02  0.32405364059E+03  0.55271991303E+03  0.66253789774E+03  0.15294330000E+03 0.  0.
<mgrwt>
<rscale>  0 0.61869999E+03</rscale>
<asrwt>0</asrwt>
<pdfrwt beam="1">  1        1 0.12302646E+00 0.73747930E+03</pdfrwt>
<pdfrwt beam="2">  1       -1 0.11737257E+00 0.73747930E+03</pdfrwt>
<totfact> 0.14898605E+01</totfact>
</mgrwt>
</event>
<event>
 4    1  0.2514307E-008  0.7296086E+03  0.7818608E-02  0.9891321E-01
         -1   -1    0    0    0  501 -0.00000000000E+00  0.00000000000E+00  0.56792683784E+03  0.56792683786E+03  0.50400000000E-02 0.  1.
          1   -1    0    0  501    0  0.00000000000E+00 -0.00000000000E+00 -0.69507957132E+03  0.69507957133E+03  0.50400000000E-02 0. -1.
    8880023    1    1    2    0    0  0.18183839774E+03 -0.25583850272E+03  0.22855640233E+03  0.76456966829E+03  0.65864270000E+03 0.  0.
    8880022    1    1    2    0    0 -0.18183839774E+03  0.25583850272E+03 -0.35570913581E+03  0.49843674090E+03  0.15294330000E+03 0.  0.
<mgrwt>
<rscale>  0 0.60683759E+03</rscale>
<asrwt>0</asrwt>
<pdfrwt beam="1">  1        1 0.10693532E+00 0.72960863E+03</pdfrwt>
<pdfrwt beam="2">  1       -1 0.87373360E-01 0.72960863E+03</pdfrwt>
<totfact> 0.36427161E+01</totfact>
</mgrwt>
</event>
<event>
 4    1  0.2514307E-008  0.9238736E+03  0.7818608E-02  0.9488745E-01
          1   -1    0    0  501    0  0.00000000000E+00  0.00000000000E+00  0.18170700018E+04  0.18170700018E+04  0.50400000000E-02 0. -1.
         -1   -1    0    0    0  501 -0.00000000000E+00 -0.00000000000E+00 -0.87988704536E+03  0.87988704537E+03  0.50400000000E-02 0.  1.
    8880023    1    1    2    0    0  0.29057712796E+03 -0.57904845599E+03 -0.54465310889E+03  0.10724688326E+04  0.65864270000E+03 0.  1.
    8880022    1    1    2    0    0 -0.29057712796E+03  0.57904845599E+03  0.14818360654E+04  0.16244882146E+04  0.15294330000E+03 0.  0.
<mgrwt>
<rscale>  0 0.85118713E+03</rscale>
<asrwt>0</asrwt>
<pdfrwt beam="1">  1        1 0.27954923E+00 0.92387358E+03</pdfrwt>
<pdfrwt beam="2">  1       -1 0.13536724E+00 0.92387358E+03</pdfrwt>
<totfact> 0.18512876E+00</totfact>
</mgrwt>
</event>
<event>
 4    1  0.2514307E-008  0.1231464E+04  0.7818608E-02  0.9127128E-01
         -1   -1    0    0    0  501 -0.00000000000E+00  0.00000000000E+00  0.19485609998E+04  0.19485609998E+04  0.50400000000E-02 0.  1.
          1   -1    0    0  501    0  0.00000000000E+00 -0.00000000000E+00 -0.73553200004E+03  0.73553200005E+03  0.50400000000E-02 0. -1.
    8880023    1    1    2    0    0  0.10171614206E+04 -0.21926083401E+03  0.24686816583E+03  0.12559644766E+04  0.65864270000E+03 0.  0.
    8880022    1    1    2    0    0 -0.10171614206E+04  0.21926083401E+03  0.96616083396E+03  0.14281285233E+04  0.15294330000E+03 0.  0.
<mgrwt>
<rscale>  0 0.11838311E+04</rscale>
<asrwt>0</asrwt>
<pdfrwt beam="1">  1        1 0.11315877E+00 0.12314637E+04</pdfrwt>
<pdfrwt beam="2">  1       -1 0.29977861E+00 0.12314637E+04</pdfrwt>
<totfact> 0.82310681E-01</totfact>
</mgrwt>
</event>
<event>
 4    1  0.2514307E-008  0.8360786E+03  0.7818608E-02  0.9637619E-01
         -1   -1    0    0    0  501 -0.00000000000E+00  0.00000000000E+00  0.60402003694E+03  0.60402003697E+03  0.50400000000E-02 0.  1.
          1   -1    0    0  501    0  0.00000000000E+00 -0.00000000000E+00 -0.21614829990E+04  0.21614829990E+04  0.50400000000E-02 0. -1.
    8880023    1    1    2    0    0 -0.39536127605E+03  0.33001023899E+03  0.25579708645E+03  0.87433383335E+03  0.65864270000E+03 0.  1.
    8880022    1    1    2    0    0  0.39536127605E+03 -0.33001023899E+03 -0.18132600485E+04  0.18911692026E+04  0.15294330000E+03 0.  0.
<mgrwt>
<rscale>  0 0.74855562E+03</rscale>
<asrwt>0</asrwt>
<pdfrwt beam="1">  1        1 0.33253584E+00 0.83607865E+03</pdfrwt>
<pdfrwt beam="2">  1       -1 0.92926161E-01 0.83607865E+03</pdfrwt>
<totfact> 0.27066600E+00</totfact>
</mgrwt>
</event>
<event>
 4    1  0.2514307E-008  0.1055102E+04  0.7818608E-02  0.9312773E-01
         -1   -1    0    0    0  501 -0.00000000000E+00  0.00000000000E+00  0.18242757489E+04  0.18242757489E+04  0.50400000000E-02 0.  1.
          1   -1    0    0  501    0  0.00000000000E+00 -0.00000000000E+00 -0.96695797268E+03  0.96695797270E+03  0.50400000000E-02 0. -1.
    8880023    1    1    2    0    0  0.52740118226E+02 -0.82258670318E+03  0.14291530852E+04  0.17764343927E+04  0.65864270000E+03 0.  0.
    8880022    1    1    2    0    0 -0.52740118226E+02  0.82258670318E+03 -0.57183530899E+03  0.10147993289E+04  0.15294330000E+03 0.  0.
<mgrwt>
<rscale>  0 0.99615418E+03</rscale>
<asrwt>0</asrwt>
<pdfrwt beam="1">  1        1 0.14876277E+00 0.10551022E+04</pdfrwt>
<pdfrwt beam="2">  1       -1 0.28065781E+00 0.10551022E+04</pdfrwt>
<totfact> 0.71046643E-01</totfact>
</mgrwt>
</event>
<event>
 4    1  0.2514307E-008  0.7949449E+03  0.7818608E-02  0.9721835E-01
          1   -1    0    0  501    0  0.00000000000E+00  0.00000000000E+00  0.12656520786E+04  0.12656520786E+04  0.50400000000E-02 0. -1.
         -1   -1    0    0    0  501 -0.00000000000E+00 -0.00000000000E+00 -0.52948567089E+03  0.52948567091E+03  0.50400000000E-02 0.  1.
    8880023    1    1    2    0    0  0.43807958180E+03 -0.78825573414E+02 -0.13369505677E+03  0.80610902828E+03  0.65864270000E+03 0.  1.
    8880022    1    1    2    0    0 -0.43807958180E+03  0.78825573414E+02  0.86986146445E+03  0.98902872120E+03  0.15294330000E+03 0.  0.
<mgrwt>
<rscale>  0 0.69731516E+03</rscale>
<asrwt>0</asrwt>
<pdfrwt beam="1">  1        1 0.19471570E+00 0.79494490E+03</pdfrwt>
<pdfrwt beam="2">  1       -1 0.81459334E-01 0.79494490E+03</pdfrwt>
<totfact> 0.14762329E+01</totfact>
</mgrwt>
</event>
<event>
 4    1  0.2514307E-008  0.1115877E+04  0.7818608E-02  0.9243582E-01
          1   -1    0    0  501    0  0.00000000000E+00  0.00000000000E+00  0.14060780814E+04  0.14060780814E+04  0.50400000000E-02 0. -1.
         -1   -1    0    0    0  501 -0.00000000000E+00 -0.00000000000E+00 -0.83191916745E+03  0.83191916746E+03  0.50400000000E-02 0.  1.
    8880023    1    1    2    0    0  0.37339991668E+03  0.81972192063E+03 -0.73158491077E+02  0.11182727288E+04  0.65864270000E+03 0.  1.
    8880022    1    1    2    0    0 -0.37339991668E+03 -0.81972192063E+03  0.64731740503E+03  0.11197245201E+04  0.15294330000E+03 0.  0.
<mgrwt>
<rscale>  0 0.10614699E+04</rscale>
<asrwt>0</asrwt>
<pdfrwt beam="1">  1        1 0.21631970E+00 0.11158771E+04</pdfrwt>
<pdfrwt beam="2">  1       -1 0.12798756E+00 0.11158771E+04</pdfrwt>
<totfact> 0.39772374E+00</totfact>
</mgrwt>
</event>
<event>
 4    1  0.2514307E-008  0.1015608E+04  0.7818608E-02  0.9361416E-01
         -1   -1    0    0    0  501 -0.00000000000E+00  0.00000000000E+00  0.57536095921E+03  0.57536095923E+03  0.50400000000E-02 0.  1.
          1   -1    0    0  501    0  0.00000000000E+00 -0.00000000000E+00 -0.15030333010E+04  0.15030333010E+04  0.50400000000E-02 0. -1.
    8880023    1    1    2    0    0 -0.53372166212E+03  0.55927695080E+03 -0.26722297502E+03  0.10501751497E+04  0.65864270000E+03 0.  0.
    8880022    1    1    2    0    0  0.53372166212E+03 -0.55927695080E+03 -0.66044936680E+03  0.10282191106E+04  0.15294330000E+03 0.  0.
<mgrwt>
<rscale>  0 0.95320136E+03</rscale>
<asrwt>0</asrwt>
<pdfrwt beam="1">  1        1 0.23123589E+00 0.10156081E+04</pdfrwt>
<pdfrwt beam="2">  1       -1 0.88517071E-01 0.10156081E+04</pdfrwt>
<totfact> 0.81898936E+00</totfact>
</mgrwt>
</event>
<event>
 4    1  0.2514307E-008  0.1354980E+04  0.7818608E-02  0.9019478E-01
         -1   -1    0    0    0  501 -0.00000000000E+00  0.00000000000E+00  0.25934766630E+04  0.25934766630E+04  0.50400000000E-02 0.  1.
          1   -1    0    0  501    0  0.00000000000E+00 -0.00000000000E+00 -0.88951348872E+03  0.88951348874E+03  0.50400000000E-02 0. -1.
    8880023    1    1    2    0    0  0.11595968877E+04 -0.23978458392E+03 -0.56129967495E+02  0.13561424587E+04  0.65864270000E+03 0.  0.
    8880022    1    1    2    0    0 -0.11595968877E+04  0.23978458392E+03  0.17600931418E+04  0.21268476931E+04  0.15294330000E+03 0.  0.
<mgrwt>
<rscale>  0 0.13127973E+04</rscale>
<asrwt>0</asrwt>
<pdfrwt beam="1">  1        1 0.13684823E+00 0.13549804E+04</pdfrwt>
<pdfrwt beam="2">  1       -1 0.39899640E+00 0.13549804E+04</pdfrwt>
<totfact> 0.13110597E-01</totfact>
</mgrwt>
</event>
<event>
 4    1  0.2514307E-008  0.1120681E+04  0.7818608E-02  0.9238373E-01
          1   -1    0    0  501    0  0.00000000000E+00  0.00000000000E+00  0.19756433374E+04  0.19756433374E+04  0.50400000000E-02 0. -1.
         -1   -1    0    0    0  501 -0.00000000000E+00 -0.00000000000E+00 -0.78034964229E+03  0.78034964230E+03  0.50400000000E-02 0.  1.
    8880023    1    1    2    0    0  0.90158780478E+03 -0.96198019613E+02 -0.14560916210E+03  0.11301003774E+04  0.65864270000E+03 0.  0.
    8880022    1    1    2    0    0 -0.90158780478E+03  0.96198019613E+02  0.13409028572E+04  0.16258926023E+04  0.15294330000E+03 0.  0.
<mgrwt>
<rscale>  0 0.10665985E+04</rscale>
<asrwt>0</asrwt>
<pdfrwt beam="1">  1        1 0.30394512E+00 0.11206805E+04</pdfrwt>
<pdfrwt beam="2">  1       -1 0.12005379E+00 0.11206805E+04</pdfrwt>
<totfact> 0.19032198E+00</totfact>
</mgrwt>
</event>
<event>
 4    1  0.2898667E-008  0.1301775E+04  0.7818608E-02  0.9064028E-01
          1   -1    0    0  501    0  0.00000000000E+00  0.00000000000E+00  0.96109842680E+03  0.96109842681E+03  0.50400000000E-02 0. -1.
         -1   -1    0    0    0  501 -0.00000000000E+00 -0.00000000000E+00 -0.52621322204E+04  0.52621322204E+04  0.50400000000E-02 0.  1.
    8880023    1    1    2    0    0 -0.10698756967E+04 -0.34084460114E+03 -0.48084811661E+04  0.49815770976E+04  0.65864270000E+03 0.  1.
    8880022    1    1    2    0    0  0.10698756967E+04  0.34084460114E+03  0.50744737247E+03  0.12416535496E+04  0.15294330000E+03 0.  0.
<mgrwt>
<rscale>  0 0.12574223E+04</rscale>
<asrwt>0</asrwt>
<pdfrwt beam="1">  1        1 0.14786130E+00 0.13017754E+04</pdfrwt>
<pdfrwt beam="2">  1       -1 0.80955879E+00 0.13017754E+04</pdfrwt>
<totfact> 0.99944736E-04</totfact>
</mgrwt>
</event>
<event>
 4    1  0.2514307E-008  0.6724939E+03  0.7818608E-02  0.1013935E+00
         -1   -1    0    0    0  501 -0.00000000000E+00  0.00000000000E+00  0.10036504345E+04  0.10036504345E+04  0.50400000000E-02 0.  1.
          1   -1    0    0  501    0  0.00000000000E+00 -0.00000000000E+00 -0.13023282866E+04  0.13023282867E+04  0.50400000000E-02 0. -1.
    8880023    1    1    2    0    0 -0.35224174109E+02 -0.13113792945E+03  0.88120599336E+03  0.11084999359E+04  0.65864270000E+03 0.  1.
    8880022    1    1    2    0    0  0.35224174109E+02  0.13113792945E+03 -0.11798838455E+04  0.11974787852E+04  0.15294330000E+03 0.  0.
<mgrwt>
<rscale>  0 0.49940362E+03</rscale>
<asrwt>0</asrwt>
<pdfrwt beam="1">  1        1 0.20035820E+00 0.67249394E+03</pdfrwt>
<pdfrwt beam="2">  1       -1 0.15440776E+00 0.67249394E+03</pdfrwt>
<totfact> 0.30730156E+00</totfact>
</mgrwt>
</event>
<event>
 4    1  0.2514307E-008  0.8266067E+03  0.7818608E-02  0.9655971E-01
          1   -1    0    0  501    0  0.00000000000E+00  0.00000000000E+00  0.24733496906E+04  0.24733496907E+04  0.50400000000E-02 0. -1.
         -1   -1    0    0    0  501 -0.00000000000E+00 -0.00000000000E+00 -0.65505688526E+03  0.65505688528E+03  0.50400000000E-02 0.  1.
    8880023    1    1    2    0    0  0.42254497413E+03 -0.26631598189E+03 -0.35031483752E+03  0.89777455356E+03  0.65864270000E+03 0.  1.
    8880022    1    1    2    0    0 -0.42254497413E+03  0.26631598189E+03  0.21686076429E+04  0.22306320224E+04  0.15294330000E+03 0.  0.
<mgrwt>
<rscale>  0 0.73699867E+03</rscale>
<asrwt>0</asrwt>
<pdfrwt beam="1">  1        1 0.38051534E+00 0.82660672E+03</pdfrwt>
<pdfrwt beam="2">  1       -1 0.10077798E+00 0.82660672E+03</pdfrwt>
<totfact> 0.13884911E+00</totfact>
</mgrwt>
</event>
<event>
 4    1  0.2514307E-008  0.1462296E+04  0.7818608E-02  0.8936729E-01
          1   -1    0    0  501    0  0.00000000000E+00  0.00000000000E+00  0.25193124180E+04  0.25193124180E+04  0.50400000000E-02 0. -1.
         -1   -1    0    0    0  501 -0.00000000000E+00 -0.00000000000E+00 -0.12751826071E+04  0.12751826071E+04  0.50400000000E-02 0.  1.
    8880023    1    1    2    0    0  0.10591790904E+04  0.76330881391E+03 -0.55692961535E+03  0.15647624400E+04  0.65864270000E+03 0.  0.
    8880022    1    1    2    0    0 -0.10591790904E+04 -0.76330881391E+03  0.18010594262E+04  0.22297325851E+04  0.15294330000E+03 0.  0.
<mgrwt>
<rscale>  0 0.14238563E+04</rscale>
<asrwt>0</asrwt>
<pdfrwt beam="1">  1        1 0.38758653E+00 0.14622964E+04</pdfrwt>
<pdfrwt beam="2">  1       -1 0.19618194E+00 0.14622964E+04</pdfrwt>
<totfact> 0.19966817E-01</totfact>
</mgrwt>
</event>
<event>
 4    1  0.2514307E-008  0.9186789E+03  0.7818608E-02  0.9496688E-01
         -1   -1    0    0    0  501 -0.00000000000E+00  0.00000000000E+00  0.37325731230E+03  0.37325731233E+03  0.50400000000E-02 0.  1.
          1   -1    0    0  501    0  0.00000000000E+00 -0.00000000000E+00 -0.18091899649E+04  0.18091899649E+04  0.50400000000E-02 0. -1.
    8880023    1    1    2    0    0 -0.18408577020E+03 -0.61341104833E+03 -0.52389158403E+03  0.10575600612E+04  0.65864270000E+03 0.  1.
    8880022    1    1    2    0    0  0.18408577020E+03  0.61341104833E+03 -0.91204106858E+03  0.11248872160E+04  0.15294330000E+03 0.  0.
<mgrwt>
<rscale>  0 0.84528467E+03</rscale>
<asrwt>0</asrwt>
<pdfrwt beam="1">  1        1 0.27833691E+00 0.91867888E+03</pdfrwt>
<pdfrwt beam="2">  1       -1 0.57424203E-01 0.91867888E+03</pdfrwt>
<totfact> 0.12559611E+01</totfact>
</mgrwt>
</event>
<event>
 4    1  0.2514307E-008  0.6856072E+03  0.7818608E-02  0.1006315E+00
         -1   -1    0    0    0  501 -0.00000000000E+00  0.00000000000E+00  0.16423871517E+04  0.16423871517E+04  0.50400000000E-02 0.  1.
          1   -1    0    0  501    0  0.00000000000E+00 -0.00000000000E+00 -0.20275684856E+03  0.20275684862E+03  0.50400000000E-02 0. -1.
    8880023    1    1    2    0    0 -0.18947823903E+03  0.18573546775E+02  0.14465872147E+04  0.16008347059E+04  0.65864270000E+03 0.  0.
    8880022    1    1    2    0    0  0.18947823903E+03 -0.18573546775E+02 -0.69569115490E+01  0.24430929442E+03  0.15294330000E+03 0.  0.
<mgrwt>
<rscale>  0 0.52966036E+03</rscale>
<asrwt>0</asrwt>
<pdfrwt beam="1">  1        1 0.31193361E-01 0.68560717E+03</pdfrwt>
<pdfrwt beam="2">  1       -1 0.25267495E+00 0.68560717E+03</pdfrwt>
<totfact> 0.10208870E+01</totfact>
</mgrwt>
</event>
<event>
 4    1  0.2514307E-008  0.1022454E+04  0.7818608E-02  0.9352753E-01
          1   -1    0    0  501    0  0.00000000000E+00  0.00000000000E+00  0.25808895697E+04  0.25808895697E+04  0.50400000000E-02 0. -1.
         -1   -1    0    0    0  501 -0.00000000000E+00 -0.00000000000E+00 -0.38774511424E+03  0.38774511428E+03  0.50400000000E-02 0.  1.
    8880023    1    1    2    0    0 -0.56115795096E+03 -0.54470552694E+03  0.59535076023E+03  0.11831547198E+04  0.65864270000E+03 0.  0.
    8880022    1    1    2    0    0  0.56115795096E+03  0.54470552694E+03  0.15977936952E+04  0.17854799642E+04  0.15294330000E+03 0.  0.
<mgrwt>
<rscale>  0 0.96068077E+03</rscale>
<asrwt>0</asrwt>
<pdfrwt beam="1">  1        1 0.39705992E+00 0.10224542E+04</pdfrwt>
<pdfrwt beam="2">  1       -1 0.59653096E-01 0.10224542E+04</pdfrwt>
<totfact> 0.34476782E+00</totfact>
</mgrwt>
</event>
<event>
 4    1  0.2514307E-008  0.9827073E+03  0.7818608E-02  0.9404540E-01
         -1   -1    0    0    0  501 -0.00000000000E+00  0.00000000000E+00  0.54599790822E+03  0.54599790825E+03  0.50400000000E-02 0.  1.
          1   -1    0    0  501    0  0.00000000000E+00 -0.00000000000E+00 -0.14202529200E+04  0.14202529200E+04  0.50400000000E-02 0. -1.
    8880023    1    1    2    0    0 -0.12395967289E+03  0.71870535043E+03 -0.30640231179E+03  0.10293667783E+04  0.65864270000E+03 0.  1.
    8880022    1    1    2    0    0  0.12395967289E+03 -0.71870535043E+03 -0.56785269995E+03  0.93688404997E+03  0.15294330000E+03 0.  0.
<mgrwt>
<rscale>  0 0.91703012E+03</rscale>
<asrwt>0</asrwt>
<pdfrwt beam="1">  1        1 0.21850045E+00 0.98270727E+03</pdfrwt>
<pdfrwt beam="2">  1       -1 0.83999679E-01 0.98270727E+03</pdfrwt>
<totfact> 0.10517873E+01</totfact>
</mgrwt>
</event>
<event>
 4    1  0.2514307E-008  0.7350031E+03  0.7818608E-02  0.9874749E-01
         -1   -1    0    0    0  501 -0.00000000000E+00  0.00000000000E+00  0.78864380509E+03  0.78864380511E+03  0.50400000000E-02 0.  1.
          1   -1    0    0  501    0  0.00000000000E+00 -0.00000000000E+00 -0.99555810362E+03  0.99555810364E+03  0.50400000000E-02 0. -1.
    8880023    1    1    2    0    0  0.14208459989E+03 -0.29365180476E+03  0.56847742226E+03  0.92919115463E+03  0.65864270000E+03 0.  1.
    8880022    1    1    2    0    0 -0.14208459989E+03  0.29365180476E+03 -0.77539172079E+03  0.85501075411E+03  0.15294330000E+03 0.  0.
<mgrwt>
<rscale>  0 0.61500814E+03</rscale>
<asrwt>0</asrwt>
<pdfrwt beam="1">  1        1 0.15316279E+00 0.73500314E+03</pdfrwt>
<pdfrwt beam="2">  1       -1 0.12132982E+00 0.73500314E+03</pdfrwt>
<totfact> 0.95117653E+00</totfact>
</mgrwt>
</event>
<event>
 4    1  0.2514307E-008  0.1664071E+04  0.7818608E-02  0.8801705E-01
          1   -1    0    0  501    0  0.00000000000E+00  0.00000000000E+00  0.12866153721E+04  0.12866153721E+04  0.50400000000E-02 0. -1.
         -1   -1    0    0    0  501 -0.00000000000E+00 -0.00000000000E+00 -0.20239717388E+04  0.20239717388E+04  0.50400000000E-02 0.  1.
    8880023    1    1    2    0    0  0.13935255422E+04  0.62722404329E+03 -0.16757023682E+03  0.16724871981E+04  0.65864270000E+03 0.  0.
    8880022    1    1    2    0    0 -0.13935255422E+04 -0.62722404329E+03 -0.56978612991E+03  0.16380999128E+04  0.15294330000E+03 0.  0.
<mgrwt>
<rscale>  0 0.16310355E+04</rscale>
<asrwt>0</asrwt>
<pdfrwt beam="1">  1        1 0.19794083E+00 0.16640714E+04</pdfrwt>
<pdfrwt beam="2">  1       -1 0.31138027E+00 0.16640714E+04</pdfrwt>
<totfact> 0.23989338E-01</totfact>
</mgrwt>
</event>
<event>
 4    1  0.2514307E-008  0.8291032E+03  0.7818608E-02  0.9651080E-01
         -1   -1    0    0    0  501 -0.00000000000E+00  0.00000000000E+00  0.81337044512E+03  0.81337044514E+03  0.50400000000E-02 0.  1.
          1   -1    0    0  501    0  0.00000000000E+00 -0.00000000000E+00 -0.14884361815E+04  0.14884361815E+04  0.50400000000E-02 0. -1.
    8880023    1    1    2    0    0  0.30791733783E+02  0.50264672387E+03  0.53192084462E+03  0.98506438931E+03  0.65864270000E+03 0.  1.
    8880022    1    1    2    0    0 -0.30791733783E+02 -0.50264672387E+03 -0.12069865810E+04  0.13167422373E+04  0.15294330000E+03 0.  0.
<mgrwt>
<rscale>  0 0.74005693E+03</rscale>
<asrwt>0</asrwt>
<pdfrwt beam="1">  1        1 0.22899018E+00 0.82910317E+03</pdfrwt>
<pdfrwt beam="2">  1       -1 0.12513391E+00 0.82910317E+03</pdfrwt>
<totfact> 0.38297418E+00</totfact>
</mgrwt>
</event>
<event>
 4    1  0.2514307E-008  0.7993884E+03  0.7818608E-02  0.9712120E-01
         -1   -1    0    0    0  501 -0.00000000000E+00  0.00000000000E+00  0.80152013306E+03  0.80152013308E+03  0.50400000000E-02 0.  1.
          1   -1    0    0  501    0  0.00000000000E+00 -0.00000000000E+00 -0.12311415398E+04  0.12311415398E+04  0.50400000000E-02 0. -1.
    8880023    1    1    2    0    0  0.37024550874E+02 -0.45148732598E+03  0.53096658275E+03  0.95966001331E+03  0.65864270000E+03 0.  1.
    8880022    1    1    2    0    0 -0.37024550874E+02  0.45148732598E+03 -0.96058798949E+03  0.10730016596E+04  0.15294330000E+03 0.  0.
<mgrwt>
<rscale>  0 0.70299736E+03</rscale>
<asrwt>0</asrwt>
<pdfrwt beam="1">  1        1 0.18940639E+00 0.79938841E+03</pdfrwt>
<pdfrwt beam="2">  1       -1 0.12331079E+00 0.79938841E+03</pdfrwt>
<totfact> 0.60456585E+00</totfact>
</mgrwt>
</event>
<event>
 4    1  0.2514307E-008  0.9152264E+03  0.7818608E-02  0.9502017E-01
          1   -1    0    0  501    0  0.00000000000E+00  0.00000000000E+00  0.64402098271E+03  0.64402098273E+03  0.50400000000E-02 0. -1.
         -1   -1    0    0    0  501 -0.00000000000E+00 -0.00000000000E+00 -0.19872215419E+04  0.19872215419E+04  0.50400000000E-02 0.  1.
    8880023    1    1    2    0    0 -0.83452980403E+02  0.62997206224E+03 -0.16670727878E+04  0.19017810297E+04  0.65864270000E+03 0.  0.
    8880022    1    1    2    0    0  0.83452980403E+02 -0.62997206224E+03  0.32387222853E+03  0.72946149492E+03  0.15294330000E+03 0.  0.
<mgrwt>
<rscale>  0 0.84135246E+03</rscale>
<asrwt>0</asrwt>
<pdfrwt beam="1">  1        1 0.99080152E-01 0.91522642E+03</pdfrwt>
<pdfrwt beam="2">  1       -1 0.30572639E+00 0.91522642E+03</pdfrwt>
<totfact> 0.96184097E-01</totfact>
</mgrwt>
</event>
<event>
 4    1  0.2514307E-008  0.8388883E+03  0.7818608E-02  0.9632280E-01
         -1   -1    0    0    0  501 -0.00000000000E+00  0.00000000000E+00  0.24878609959E+04  0.24878609959E+04  0.50400000000E-02 0.  1.
          1   -1    0    0  501    0  0.00000000000E+00 -0.00000000000E+00 -0.38032240721E+03  0.38032240724E+03  0.50400000000E-02 0. -1.
    8880023    1    1    2    0    0 -0.37983126221E+03 -0.35447355857E+03  0.21666491561E+04  0.23233816009E+04  0.65864270000E+03 0.  1.
    8880022    1    1    2    0    0  0.37983126221E+03  0.35447355857E+03 -0.59110567467E+02  0.54480180220E+03  0.15294330000E+03 0.  0.
<mgrwt>
<rscale>  0 0.75196021E+03</rscale>
<asrwt>0</asrwt>
<pdfrwt beam="1">  1        1 0.58511140E-01 0.83888825E+03</pdfrwt>
<pdfrwt beam="2">  1       -1 0.38274784E+00 0.83888825E+03</pdfrwt>
<totfact> 0.63214248E-01</totfact>
</mgrwt>
</event>
<event>
 4    1  0.2514307E-008  0.7131643E+03  0.7818608E-02  0.9946433E-01
         -1   -1    0    0    0  501 -0.00000000000E+00  0.00000000000E+00  0.65339736724E+03  0.65339736726E+03  0.50400000000E-02 0.  1.
          1   -1    0    0  501    0  0.00000000000E+00 -0.00000000000E+00 -0.44103659135E+03  0.44103659138E+03  0.50400000000E-02 0. -1.
    8880023    1    1    2    0    0 -0.82101499305E+02 -0.26086873285E+03  0.29279666090E+03  0.77093011542E+03  0.65864270000E+03 0.  1.
    8880022    1    1    2    0    0  0.82101499305E+02  0.26086873285E+03 -0.80435885009E+02  0.32350384322E+03  0.15294330000E+03 0. -1.
<mgrwt>
<rscale>  0 0.58062769E+03</rscale>
<asrwt>0</asrwt>
<pdfrwt beam="1">  1        1 0.67851784E-01 0.71316433E+03</pdfrwt>
<pdfrwt beam="2">  1       -1 0.10052267E+00 0.71316433E+03</pdfrwt>
<totfact> 0.50751535E+01</totfact>
</mgrwt>
</event>
<event>
 4    1  0.2514307E-008  0.9409264E+03  0.7818608E-02  0.9463291E-01
          1   -1    0    0  501    0  0.00000000000E+00  0.00000000000E+00  0.15048557611E+04  0.15048557611E+04  0.50400000000E-02 0. -1.
         -1   -1    0    0    0  501 -0.00000000000E+00 -0.00000000000E+00 -0.46333752372E+03  0.46333752374E+03  0.50400000000E-02 0.  1.
    8880023    1    1    2    0    0  0.25004837284E+03  0.62370514149E+03  0.38584003522E+03  0.10169636332E+04  0.65864270000E+03 0.  0.
    8880022    1    1    2    0    0 -0.25004837284E+03 -0.62370514149E+03  0.65567820214E+03  0.95122965159E+03  0.15294330000E+03 0.  0.
<mgrwt>
<rscale>  0 0.87045185E+03</rscale>
<asrwt>0</asrwt>
<pdfrwt beam="1">  1        1 0.23151627E+00 0.94092640E+03</pdfrwt>
<pdfrwt beam="2">  1       -1 0.71282695E-01 0.94092640E+03</pdfrwt>
<totfact> 0.13060322E+01</totfact>
</mgrwt>
</event>
<event>
 4    1  0.2514307E-008  0.7357373E+03  0.7818608E-02  0.9872543E-01
         -1   -1    0    0    0  501 -0.00000000000E+00  0.00000000000E+00  0.29472261364E+03  0.29472261368E+03  0.50400000000E-02 0.  1.
          1   -1    0    0  501    0  0.00000000000E+00 -0.00000000000E+00 -0.14053836375E+04  0.14053836375E+04  0.50400000000E-02 0. -1.
    8880023    1    1    2    0    0  0.61907105017E+02  0.32197308354E+03 -0.26793995628E+03  0.78300777940E+03  0.65864270000E+03 0.  0.
    8880022    1    1    2    0    0 -0.61907105017E+02 -0.32197308354E+03 -0.84272106758E+03  0.91709847177E+03  0.15294330000E+03 0.  0.
<mgrwt>
<rscale>  0 0.61610640E+03</rscale>
<asrwt>0</asrwt>
<pdfrwt beam="1">  1        1 0.21621286E+00 0.73573729E+03</pdfrwt>
<pdfrwt beam="2">  1       -1 0.45341941E-01 0.73573729E+03</pdfrwt>
<totfact> 0.37913195E+01</totfact>
</mgrwt>
</event>
<event>
 4    1  0.2514307E-008  0.1101655E+04  0.7818608E-02  0.9259215E-01
          1   -1    0    0  501    0  0.00000000000E+00  0.00000000000E+00  0.79373392969E+03  0.79373392971E+03  0.50400000000E-02 0. -1.
         -1   -1    0    0    0  501 -0.00000000000E+00 -0.00000000000E+00 -0.27243808982E+04  0.27243808982E+04  0.50400000000E-02 0.  1.
    8880023    1    1    2    0    0  0.78136435193E+03 -0.41146589157E+03 -0.22988584432E+04  0.25491949275E+04  0.65864270000E+03 0.  0.
    8880022    1    1    2    0    0 -0.78136435193E+03  0.41146589157E+03  0.36821147464E+03  0.96891990044E+03  0.15294330000E+03 0.  0.
<mgrwt>
<rscale>  0 0.10462586E+04</rscale>
<asrwt>0</asrwt>
<pdfrwt beam="1">  1        1 0.12211291E+00 0.11016554E+04</pdfrwt>
<pdfrwt beam="2">  1       -1 0.41913552E+00 0.11016554E+04</pdfrwt>
<totfact> 0.11943370E-01</totfact>
</mgrwt>
</event>
<event>
 4    1  0.2514307E-008  0.6845405E+03  0.7818608E-02  0.1006864E+00
         -1   -1    0    0    0  501 -0.00000000000E+00  0.00000000000E+00  0.14074489717E+04  0.14074489717E+04  0.50400000000E-02 0.  1.
          1   -1    0    0  501    0  0.00000000000E+00 -0.00000000000E+00 -0.45616812259E+03  0.45616812262E+03  0.50400000000E-02 0. -1.
    8880023    1    1    2    0    0 -0.14626773896E+03 -0.11572058264E+03  0.12825751396E+04  0.14538207247E+04  0.65864270000E+03 0.  1.
    8880022    1    1    2    0    0  0.14626773896E+03  0.11572058264E+03 -0.33129429041E+03  0.40979636965E+03  0.15294330000E+03 0.  0.
<mgrwt>
<rscale>  0 0.52740401E+03</rscale>
<asrwt>0</asrwt>
<pdfrwt beam="1">  1        1 0.70179713E-01 0.68454051E+03</pdfrwt>
<pdfrwt beam="2">  1       -1 0.21653060E+00 0.68454051E+03</pdfrwt>
<totfact> 0.61025778E+00</totfact>
</mgrwt>
</event>
<event>
 4    1  0.2514307E-008  0.1284787E+04  0.7818608E-02  0.9078810E-01
         -1   -1    0    0    0  501 -0.00000000000E+00  0.00000000000E+00  0.99205195625E+03  0.99205195626E+03  0.50400000000E-02 0.  1.
          1   -1    0    0  501    0  0.00000000000E+00 -0.00000000000E+00 -0.16597694508E+04  0.16597694508E+04  0.50400000000E-02 0. -1.
    8880023    1    1    2    0    0 -0.27586119537E+03  0.10680671722E+04  0.11602812035E+03  0.12900153543E+04  0.65864270000E+03 0.  0.
    8880022    1    1    2    0    0  0.27586119537E+03 -0.10680671722E+04 -0.78374561489E+03  0.13618060527E+04  0.15294330000E+03 0.  0.
<mgrwt>
<rscale>  0 0.12396878E+04</rscale>
<asrwt>0</asrwt>
<pdfrwt beam="1">  1        1 0.25534915E+00 0.12847868E+04</pdfrwt>
<pdfrwt beam="2">  1       -1 0.15262338E+00 0.12847868E+04</pdfrwt>
<totfact> 0.16424833E+00</totfact>
</mgrwt>
</event>
<event>
 4    1  0.2514307E-008  0.7219572E+03  0.7818608E-02  0.9916018E-01
         -1   -1    0    0    0  501 -0.00000000000E+00  0.00000000000E+00  0.92434916126E+03  0.92434916127E+03  0.50400000000E-02 0.  1.
          1   -1    0    0  501    0  0.00000000000E+00 -0.00000000000E+00 -0.92303409929E+03  0.92303409930E+03  0.50400000000E-02 0. -1.
    8880023    1    1    2    0    0  0.17983094627E+03  0.23467591718E+03  0.74204099205E+03  0.10353004373E+04  0.65864270000E+03 0.  0.
    8880022    1    1    2    0    0 -0.17983094627E+03 -0.23467591718E+03 -0.74072593008E+03  0.81208282327E+03  0.15294330000E+03 0.  0.
<mgrwt>
<rscale>  0 0.59491212E+03</rscale>
<asrwt>0</asrwt>
<pdfrwt beam="1">  1        1 0.14200525E+00 0.72195717E+03</pdfrwt>
<pdfrwt beam="2">  1       -1 0.14220756E+00 0.72195717E+03</pdfrwt>
<totfact> 0.72762867E+00</totfact>
</mgrwt>
</event>
<event>
 4    1  0.2514307E-008  0.8044963E+03  0.7818608E-02  0.9701157E-01
          1   -1    0    0  501    0  0.00000000000E+00  0.00000000000E+00  0.92726534696E+03  0.92726534697E+03  0.50400000000E-02 0. -1.
         -1   -1    0    0    0  501 -0.00000000000E+00 -0.00000000000E+00 -0.25275745827E+04  0.25275745827E+04  0.50400000000E-02 0.  1.
    8880023    1    1    2    0    0  0.42406812041E+03 -0.18322220590E+03 -0.23930508938E+04  0.25246597660E+04  0.65864270000E+03 0.  1.
    8880022    1    1    2    0    0 -0.42406812041E+03  0.18322220590E+03  0.79274165805E+03  0.93018016368E+03  0.15294330000E+03 0.  0.
<mgrwt>
<rscale>  0 0.70947942E+03</rscale>
<asrwt>0</asrwt>
<pdfrwt beam="1">  1        1 0.14265621E+00 0.80449634E+03</pdfrwt>
<pdfrwt beam="2">  1       -1 0.38885763E+00 0.80449634E+03</pdfrwt>
<totfact> 0.15699916E-01</totfact>
</mgrwt>
</event>
<event>
 4    1  0.2514307E-008  0.9116058E+03  0.7818608E-02  0.9507652E-01
         -1   -1    0    0    0  501 -0.00000000000E+00  0.00000000000E+00  0.13083758025E+03  0.13083758035E+03  0.50400000000E-02 0.  1.
          1   -1    0    0  501    0  0.00000000000E+00 -0.00000000000E+00 -0.46595617009E+04  0.46595617009E+04  0.50400000000E-02 0. -1.
    8880023    1    1    2    0    0  0.37225665043E+03 -0.50856659216E+03 -0.27471278845E+04  0.28944320363E+04  0.65864270000E+03 0.  1.
    8880022    1    1    2    0    0 -0.37225665043E+03  0.50856659216E+03 -0.17815962361E+04  0.18959672450E+04  0.15294330000E+03 0. -1.
<mgrwt>
<rscale>  0 0.83722047E+03</rscale>
<asrwt>0</asrwt>
<pdfrwt beam="1">  1        1 0.71685552E+00 0.91160584E+03</pdfrwt>
<pdfrwt beam="2">  1       -1 0.20128862E-01 0.91160584E+03</pdfrwt>
<totfact> 0.48371733E-01</totfact>
</mgrwt>
</event>
<event>
 4    1  0.2514307E-008  0.1193248E+04  0.7818608E-02  0.9163713E-01
         -1   -1    0    0    0  501 -0.00000000000E+00  0.00000000000E+00  0.10823957493E+04  0.10823957493E+04  0.50400000000E-02 0.  1.
          1   -1    0    0  501    0  0.00000000000E+00 -0.00000000000E+00 -0.12231167115E+04  0.12231167115E+04  0.50400000000E-02 0. -1.
    8880023    1    1    2    0    0  0.25872695052E+03  0.96077683137E+03  0.26129038833E+03  0.12215214398E+04  0.65864270000E+03 0.  0.
    8880022    1    1    2    0    0 -0.25872695052E+03 -0.96077683137E+03 -0.40201135049E+03  0.10839910210E+04  0.15294330000E+03 0.  0.
<mgrwt>
<rscale>  0 0.11435944E+04</rscale>
<asrwt>0</asrwt>
<pdfrwt beam="1">  1        1 0.18817180E+00 0.11932485E+04</pdfrwt>
<pdfrwt beam="2">  1       -1 0.16652242E+00 0.11932485E+04</pdfrwt>
<totfact> 0.26333636E+00</totfact>
</mgrwt>
</event>
<event>
 4    1  0.2514307E-008  0.1716423E+04  0.7818608E-02  0.8770234E-01
         -1   -1    0    0    0  501 -0.00000000000E+00  0.00000000000E+00  0.16183667535E+04  0.16183667535E+04  0.50400000000E-02 0.  1.
          1   -1    0    0  501    0  0.00000000000E+00 -0.00000000000E+00 -0.25359235208E+04  0.25359235208E+04  0.50400000000E-02 0. -1.
    8880023    1    1    2    0    0  0.15450133141E+04  0.35388064762E+03  0.72798478939E+03  0.18644220856E+04  0.65864270000E+03 0.  0.
    8880022    1    1    2    0    0 -0.15450133141E+04 -0.35388064762E+03 -0.16455415567E+04  0.22898681886E+04  0.15294330000E+03 0.  0.
<mgrwt>
<rscale>  0 0.16845358E+04</rscale>
<asrwt>0</asrwt>
<pdfrwt beam="1">  1        1 0.39014208E+00 0.17164230E+04</pdfrwt>
<pdfrwt beam="2">  1       -1 0.24897950E+00 0.17164230E+04</pdfrwt>
<totfact> 0.83194425E-02</totfact>
</mgrwt>
</event>
<event>
 4    1  0.2514307E-008  0.6799200E+03  0.7818608E-02  0.1009369E+00
         -1   -1    0    0    0  501 -0.00000000000E+00  0.00000000000E+00  0.17574292623E+04  0.17574292623E+04  0.50400000000E-02 0.  1.
          1   -1    0    0  501    0  0.00000000000E+00 -0.00000000000E+00 -0.16244343252E+03  0.16244343260E+03  0.50400000000E-02 0. -1.
    8880023    1    1    2    0    0  0.12537957743E+03  0.11296429812E+03  0.62509395187E+03  0.92359819511E+03  0.65864270000E+03 0.  0.
    8880022    1    1    2    0    0 -0.12537957743E+03 -0.11296429812E+03  0.96989187793E+03  0.99627449981E+03  0.15294330000E+03 0.  0.
<mgrwt>
<rscale>  0 0.51726206E+03</rscale>
<asrwt>0</asrwt>
<pdfrwt beam="1">  1        1 0.24991299E-01 0.67991998E+03</pdfrwt>
<pdfrwt beam="2">  1       -1 0.27037372E+00 0.67991998E+03</pdfrwt>
<totfact> 0.10500668E+01</totfact>
</mgrwt>
</event>
<event>
 4    1  0.2514307E-008  0.1475624E+04  0.7818608E-02  0.8927043E-01
          1   -1    0    0  501    0  0.00000000000E+00  0.00000000000E+00  0.23422042253E+04  0.23422042253E+04  0.50400000000E-02 0. -1.
         -1   -1    0    0    0  501 -0.00000000000E+00 -0.00000000000E+00 -0.12911438818E+04  0.12911438818E+04  0.50400000000E-02 0.  1.
    8880023    1    1    2    0    0 -0.11200339327E+04  0.69941358303E+03 -0.52982544897E+03  0.15678585979E+04  0.65864270000E+03 0.  1.
    8880022    1    1    2    0    0  0.11200339327E+04 -0.69941358303E+03  0.15808857925E+04  0.20654895091E+04  0.15294330000E+03 0.  0.
<mgrwt>
<rscale>  0 0.14375990E+04</rscale>
<asrwt>0</asrwt>
<pdfrwt beam="1">  1        1 0.36033910E+00 0.14756238E+04</pdfrwt>
<pdfrwt beam="2">  1       -1 0.19863752E+00 0.14756238E+04</pdfrwt>
<totfact> 0.25390612E-01</totfact>
</mgrwt>
</event>
<event>
 4    1  0.2514307E-008  0.1257930E+04  0.7818608E-02  0.9102769E-01
         -1   -1    0    0    0  501 -0.00000000000E+00  0.00000000000E+00  0.18804143808E+04  0.18804143808E+04  0.50400000000E-02 0.  1.
          1   -1    0    0  501    0  0.00000000000E+00 -0.00000000000E+00 -0.80506007642E+03  0.80506007644E+03  0.50400000000E-02 0. -1.
    8880023    1    1    2    0    0 -0.18354903075E+03 -0.10558821080E+04  0.16053762650E+03  0.12681324097E+04  0.65864270000E+03 0. -1.
    8880022    1    1    2    0    0  0.18354903075E+03  0.10558821080E+04  0.91481667790E+03  0.14173420476E+04  0.15294330000E+03 0.  0.
<mgrwt>
<rscale>  0 0.12115932E+04</rscale>
<asrwt>0</asrwt>
<pdfrwt beam="1">  1        1 0.12385540E+00 0.12579298E+04</pdfrwt>
<pdfrwt beam="2">  1       -1 0.28929452E+00 0.12579298E+04</pdfrwt>
<totfact> 0.83052347E-01</totfact>
</mgrwt>
</event>
<event>
 4    1  0.2514307E-008  0.1339104E+04  0.7818608E-02  0.9032506E-01
          1   -1    0    0  501    0  0.00000000000E+00  0.00000000000E+00  0.20525406487E+04  0.20525406487E+04  0.50400000000E-02 0. -1.
         -1   -1    0    0    0  501 -0.00000000000E+00 -0.00000000000E+00 -0.14732209514E+04  0.14732209514E+04  0.50400000000E-02 0.  1.
    8880023    1    1    2    0    0  0.10399543797E+04  0.52714674145E+03 -0.91676600287E+03  0.16228551720E+04  0.65864270000E+03 0.  0.
    8880022    1    1    2    0    0 -0.10399543797E+04 -0.52714674145E+03  0.14960857002E+04  0.19029064281E+04  0.15294330000E+03 0.  0.
<mgrwt>
<rscale>  0 0.12962980E+04</rscale>
<asrwt>0</asrwt>
<pdfrwt beam="1">  1        1 0.31577548E+00 0.13391038E+04</pdfrwt>
<pdfrwt beam="2">  1       -1 0.22664938E+00 0.13391038E+04</pdfrwt>
<totfact> 0.26271020E-01</totfact>
</mgrwt>
</event>
<event>
 4    1  0.2514307E-008  0.7003589E+03  0.7818608E-02  0.9995715E-01
          1   -1    0    0  501    0  0.00000000000E+00  0.00000000000E+00  0.14514639650E+04  0.14514639650E+04  0.50400000000E-02 0. -1.
         -1   -1    0    0    0  501 -0.00000000000E+00 -0.00000000000E+00 -0.10932180293E+04  0.10932180293E+04  0.50400000000E-02 0.  1.
    8880023    1    1    2    0    0  0.10486931753E+03 -0.21376353630E+03 -0.96452532665E+03  0.11919780767E+04  0.65864270000E+03 0.  1.
    8880022    1    1    2    0    0 -0.10486931753E+03  0.21376353630E+03  0.13227712624E+04  0.13527039176E+04  0.15294330000E+03 0.  0.
<mgrwt>
<rscale>  0 0.55838504E+03</rscale>
<asrwt>0</asrwt>
<pdfrwt beam="1">  1        1 0.22330215E+00 0.70035893E+03</pdfrwt>
<pdfrwt beam="2">  1       -1 0.16818739E+00 0.70035893E+03</pdfrwt>
<totfact> 0.18974806E+00</totfact>
</mgrwt>
</event>
<event>
 4    1  0.2514307E-008  0.6848803E+03  0.7818608E-02  0.1006688E+00
         -1   -1    0    0    0  501 -0.00000000000E+00  0.00000000000E+00  0.45119315852E+03  0.45119315855E+03  0.50400000000E-02 0.  1.
          1   -1    0    0  501    0  0.00000000000E+00 -0.00000000000E+00 -0.17375489266E+04  0.17375489266E+04  0.50400000000E-02 0. -1.
    8880023    1    1    2    0    0 -0.31717152538E+02 -0.18505380123E+03  0.17546417573E+03  0.70699983758E+03  0.65864270000E+03 0.  1.
    8880022    1    1    2    0    0  0.31717152538E+02  0.18505380123E+03 -0.14618199438E+04  0.14817422476E+04  0.15294330000E+03 0.  0.
<mgrwt>
<rscale>  0 0.52812609E+03</rscale>
<asrwt>0</asrwt>
<pdfrwt beam="1">  1        1 0.26731522E+00 0.68488035E+03</pdfrwt>
<pdfrwt beam="2">  1       -1 0.69414333E-01 0.68488035E+03</pdfrwt>
<totfact> 0.99314761E+00</totfact>
</mgrwt>
</event>
<event>
 4    1  0.2514307E-008  0.1466723E+04  0.7818608E-02  0.8933499E-01
         -1   -1    0    0    0  501 -0.00000000000E+00  0.00000000000E+00  0.12652025838E+04  0.12652025838E+04  0.50400000000E-02 0.  1.
          1   -1    0    0  501    0  0.00000000000E+00 -0.00000000000E+00 -0.15573390284E+04  0.15573390284E+04  0.50400000000E-02 0. -1.
    8880023    1    1    2    0    0  0.99620814751E+03 -0.85149004337E+03  0.19375464281E+02  0.14668509065E+04  0.65864270000E+03 0.  0.
    8880022    1    1    2    0    0 -0.99620814751E+03  0.85149004337E+03 -0.31151190884E+03  0.13556907057E+04  0.15294330000E+03 0.  0.
<mgrwt>
<rscale>  0 0.14284218E+04</rscale>
<asrwt>0</asrwt>
<pdfrwt beam="1">  1        1 0.23959062E+00 0.14667229E+04</pdfrwt>
<pdfrwt beam="2">  1       -1 0.19464655E+00 0.14667229E+04</pdfrwt>
<totfact> 0.93081678E-01</totfact>
</mgrwt>
</event>
<event>
 4    1  0.2514307E-008  0.1922911E+04  0.7818608E-02  0.8657430E-01
          1   -1    0    0  501    0  0.00000000000E+00  0.00000000000E+00  0.15334928019E+04  0.15334928019E+04  0.50400000000E-02 0. -1.
         -1   -1    0    0    0  501 -0.00000000000E+00 -0.00000000000E+00 -0.27086490492E+04  0.27086490492E+04  0.50400000000E-02 0.  1.
    8880023    1    1    2    0    0 -0.17019476381E+04 -0.60592979282E+03 -0.14500482188E+04  0.24083659854E+04  0.65864270000E+03 0.  0.
    8880022    1    1    2    0    0  0.17019476381E+04  0.60592979282E+03  0.27489197153E+03  0.18337758657E+04  0.15294330000E+03 0.  0.
<mgrwt>
<rscale>  0 0.18948382E+04</rscale>
<asrwt>0</asrwt>
<pdfrwt beam="1">  1        1 0.23592197E+00 0.19229110E+04</pdfrwt>
<pdfrwt beam="2">  1       -1 0.41671524E+00 0.19229110E+04</pdfrwt>
<totfact> 0.30652779E-02</totfact>
</mgrwt>
</event>
<event>
 4    1  0.2514307E-008  0.6781666E+03  0.7818608E-02  0.1010380E+00
          1   -1    0    0  501    0  0.00000000000E+00  0.00000000000E+00  0.13650420672E+04  0.13650420672E+04  0.50400000000E-02 0. -1.
         -1   -1    0    0    0  501 -0.00000000000E+00 -0.00000000000E+00 -0.46013210946E+03  0.46013210949E+03  0.50400000000E-02 0.  1.
    8880023    1    1    2    0    0 -0.15878905584E+03 -0.29762791189E+02 -0.19288592335E+03  0.70506380823E+03  0.65864270000E+03 0.  1.
    8880022    1    1    2    0    0  0.15878905584E+03  0.29762791189E+02  0.10977958811E+04  0.11201103684E+04  0.15294330000E+03 0.  0.
<mgrwt>
<rscale>  0 0.51323774E+03</rscale>
<asrwt>0</asrwt>
<pdfrwt beam="1">  1        1 0.21000647E+00 0.67816664E+03</pdfrwt>
<pdfrwt beam="2">  1       -1 0.70789555E-01 0.67816664E+03</pdfrwt>
<totfact> 0.17121902E+01</totfact>
</mgrwt>
</event>
<event>
 4    1  0.2514307E-008  0.1070667E+04  0.7818608E-02  0.9294440E-01
          1   -1    0    0  501    0  0.00000000000E+00  0.00000000000E+00  0.28519045829E+04  0.28519045829E+04  0.50400000000E-02 0. -1.
         -1   -1    0    0    0  501 -0.00000000000E+00 -0.00000000000E+00 -0.37749887789E+03  0.37749887793E+03  0.50400000000E-02 0.  1.
    8880023    1    1    2    0    0  0.72075549769E+03 -0.43935003062E+03  0.19482141223E+04  0.22230306812E+04  0.65864270000E+03 0.  0.
    8880022    1    1    2    0    0 -0.72075549769E+03  0.43935003062E+03  0.52619158266E+03  0.10063727796E+04  0.15294330000E+03 0.  0.
<mgrwt>
<rscale>  0 0.10129633E+04</rscale>
<asrwt>0</asrwt>
<pdfrwt beam="1">  1        1 0.43875455E+00 0.10706667E+04</pdfrwt>
<pdfrwt beam="2">  1       -1 0.58076750E-01 0.10706667E+04</pdfrwt>
<totfact> 0.23321105E+00</totfact>
</mgrwt>
</event>
<event>
 4    1  0.2514307E-008  0.1012465E+04  0.7818608E-02  0.9365428E-01
         -1   -1    0    0    0  501 -0.00000000000E+00  0.00000000000E+00  0.59884399861E+03  0.59884399863E+03  0.50400000000E-02 0.  1.
          1   -1    0    0  501    0  0.00000000000E+00 -0.00000000000E+00 -0.37279166188E+04  0.37279166188E+04  0.50400000000E-02 0. -1.
    8880023    1    1    2    0    0 -0.74173016495E+03  0.20276042689E+03  0.87292397265E+02  0.10162212344E+04  0.65864270000E+03 0.  1.
    8880022    1    1    2    0    0  0.74173016495E+03 -0.20276042689E+03 -0.32163650175E+04  0.33105393831E+04  0.15294330000E+03 0.  0.
<mgrwt>
<rscale>  0 0.94976257E+03</rscale>
<asrwt>0</asrwt>
<pdfrwt beam="1">  1        1 0.57352562E+00 0.10124651E+04</pdfrwt>
<pdfrwt beam="2">  1       -1 0.92129848E-01 0.10124651E+04</pdfrwt>
<totfact> 0.19582660E-01</totfact>
</mgrwt>
</event>
<event>
 4    1  0.2514307E-008  0.6628565E+03  0.7818608E-02  0.1021404E+00
          1   -1    0    0  501    0  0.00000000000E+00  0.00000000000E+00  0.11609237062E+04  0.11609237062E+04  0.50400000000E-02 0. -1.
         -1   -1    0    0    0  501 -0.00000000000E+00 -0.00000000000E+00 -0.28186759693E+03  0.28186759697E+03  0.50400000000E-02 0.  1.
    8880023    1    1    2    0    0  0.70167349211E+02  0.25398666719E+02  0.13107024102E+03  0.67569087866E+03  0.65864270000E+03 0.  1.
    8880022    1    1    2    0    0 -0.70167349211E+02 -0.25398666719E+02  0.74798586823E+03  0.76710042449E+03  0.15294330000E+03 0.  0.
<mgrwt>
<rscale>  0 0.47183466E+03</rscale>
<asrwt>0</asrwt>
<pdfrwt beam="1">  1        1 0.17860365E+00 0.66285651E+03</pdfrwt>
<pdfrwt beam="2">  1       -1 0.43364246E-01 0.66285651E+03</pdfrwt>
<totfact> 0.61887153E+01</totfact>
</mgrwt>
</event>
<event>
 4    1  0.2514307E-008  0.6827046E+03  0.7818608E-02  0.1007833E+00
         -1   -1    0    0    0  501 -0.00000000000E+00  0.00000000000E+00  0.24552021438E+03  0.24552021443E+03  0.50400000000E-02 0.  1.
          1   -1    0    0  501    0  0.00000000000E+00 -0.00000000000E+00 -0.21031706582E+04  0.21031706582E+04  0.50400000000E-02 0. -1.
    8880023    1    1    2    0    0  0.10043805819E+03 -0.14895487786E+03 -0.25501091401E+03  0.72877714817E+03  0.65864270000E+03 0.  1.
    8880022    1    1    2    0    0 -0.10043805819E+03  0.14895487786E+03 -0.16026395298E+04  0.16199137244E+04  0.15294330000E+03 0.  0.
<mgrwt>
<rscale>  0 0.52344898E+03</rscale>
<asrwt>0</asrwt>
<pdfrwt beam="1">  1        1 0.32356471E+00 0.68270460E+03</pdfrwt>
<pdfrwt beam="2">  1       -1 0.37772342E-01 0.68270460E+03</pdfrwt>
<totfact> 0.18069850E+01</totfact>
</mgrwt>
</event>
<event>
 4    1  0.2514307E-008  0.8404609E+03  0.7818608E-02  0.9629312E-01
         -1   -1    0    0    0  501 -0.00000000000E+00  0.00000000000E+00  0.52066459796E+03  0.52066459799E+03  0.50400000000E-02 0.  1.
          1   -1    0    0  501    0  0.00000000000E+00 -0.00000000000E+00 -0.27896146569E+04  0.27896146570E+04  0.50400000000E-02 0. -1.
    8880023    1    1    2    0    0  0.13646723651E+03 -0.50392557478E+03  0.12996680014E+03  0.85045039065E+03  0.65864270000E+03 0.  1.
    8880022    1    1    2    0    0 -0.13646723651E+03  0.50392557478E+03 -0.23989168591E+04  0.24598288643E+04  0.15294330000E+03 0.  0.
<mgrwt>
<rscale>  0 0.75386141E+03</rscale>
<asrwt>0</asrwt>
<pdfrwt beam="1">  1        1 0.42917148E+00 0.84046088E+03</pdfrwt>
<pdfrwt beam="2">  1       -1 0.80102248E-01 0.84046088E+03</pdfrwt>
<totfact> 0.13881778E+00</totfact>
</mgrwt>
</event>
<event>
 4    1  0.2514307E-008  0.1020065E+04  0.7818608E-02  0.9355765E-01
          1   -1    0    0  501    0  0.00000000000E+00  0.00000000000E+00  0.13752818787E+04  0.13752818787E+04  0.50400000000E-02 0. -1.
         -1   -1    0    0    0  501 -0.00000000000E+00 -0.00000000000E+00 -0.84330475108E+03  0.84330475110E+03  0.50400000000E-02 0.  1.
    8880023    1    1    2    0    0  0.58666715309E+03 -0.51239059185E+03 -0.30535976339E+03  0.10647897720E+04  0.65864270000E+03 0.  0.
    8880022    1    1    2    0    0 -0.58666715309E+03  0.51239059185E+03  0.83733689102E+03  0.11537968579E+04  0.15294330000E+03 0.  0.
<mgrwt>
<rscale>  0 0.95807233E+03</rscale>
<asrwt>0</asrwt>
<pdfrwt beam="1">  1        1 0.21158183E+00 0.10200650E+04</pdfrwt>
<pdfrwt beam="2">  1       -1 0.12973919E+00 0.10200650E+04</pdfrwt>
<totfact> 0.40842632E+00</totfact>
</mgrwt>
</event>
<event>
 4    1  0.2514307E-008  0.1119357E+04  0.7818608E-02  0.9239804E-01
         -1   -1    0    0    0  501 -0.00000000000E+00  0.00000000000E+00  0.15046411458E+04  0.15046411458E+04  0.50400000000E-02 0.  1.
          1   -1    0    0  501    0  0.00000000000E+00 -0.00000000000E+00 -0.16692347127E+04  0.16692347127E+04  0.50400000000E-02 0. -1.
    8880023    1    1    2    0    0  0.61410187331E+03 -0.66485323801E+03  0.11276003268E+04  0.15888497859E+04  0.65864270000E+03 0.  0.
    8880022    1    1    2    0    0 -0.61410187331E+03  0.66485323801E+03 -0.12921938937E+04  0.15850260726E+04  0.15294330000E+03 0.  0.
<mgrwt>
<rscale>  0 0.10651863E+04</rscale>
<asrwt>0</asrwt>
<pdfrwt beam="1">  1        1 0.25680534E+00 0.11193575E+04</pdfrwt>
<pdfrwt beam="2">  1       -1 0.23148326E+00 0.11193575E+04</pdfrwt>
<totfact> 0.45798286E-01</totfact>
</mgrwt>
</event>
<event>
 4    1  0.2514307E-008  0.1311011E+04  0.7818608E-02  0.9056109E-01
         -1   -1    0    0    0  501 -0.00000000000E+00  0.00000000000E+00  0.10772948275E+04  0.10772948275E+04  0.50400000000E-02 0.  1.
          1   -1    0    0  501    0  0.00000000000E+00 -0.00000000000E+00 -0.23641572325E+04  0.23641572325E+04  0.50400000000E-02 0. -1.
    8880023    1    1    2    0    0  0.11253769482E+04  0.13589495464E+03  0.42888787615E+03  0.13793823729E+04  0.65864270000E+03 0.  0.
    8880022    1    1    2    0    0 -0.11253769482E+04 -0.13589495464E+03 -0.17157502812E+04  0.20620696871E+04  0.15294330000E+03 0.  0.
<mgrwt>
<rscale>  0 0.12670525E+04</rscale>
<asrwt>0</asrwt>
<pdfrwt beam="1">  1        1 0.36371650E+00 0.13110114E+04</pdfrwt>
<pdfrwt beam="2">  1       -1 0.16573767E+00 0.13110114E+04</pdfrwt>
<totfact> 0.43166405E-01</totfact>
</mgrwt>
</event>
<event>
 4    1  0.2514307E-008  0.6946538E+03  0.7818608E-02  0.1002015E+00
          1   -1    0    0  501    0  0.00000000000E+00  0.00000000000E+00  0.10774040564E+04  0.10774040565E+04  0.50400000000E-02 0. -1.
         -1   -1    0    0    0  501 -0.00000000000E+00 -0.00000000000E+00 -0.17315306683E+04  0.17315306683E+04  0.50400000000E-02 0.  1.
    8880023    1    1    2    0    0 -0.14181531249E+03  0.16918052598E+03 -0.16432266765E+04  0.17840229118E+04  0.65864270000E+03 0.  0.
    8880022    1    1    2    0    0  0.14181531249E+03 -0.16918052598E+03  0.98910006470E+03  0.10249118129E+04  0.15294330000E+03 0.  0.
<mgrwt>
<rscale>  0 0.54775611E+03</rscale>
<asrwt>0</asrwt>
<pdfrwt beam="1">  1        1 0.16575447E+00 0.69465376E+03</pdfrwt>
<pdfrwt beam="2">  1       -1 0.26638933E+00 0.69465376E+03</pdfrwt>
<totfact> 0.76877653E-01</totfact>
</mgrwt>
</event>
<event>
 4    1  0.2514307E-008  0.6966827E+03  0.7818608E-02  0.1001125E+00
         -1   -1    0    0    0  501 -0.00000000000E+00  0.00000000000E+00  0.31330956897E+03  0.31330956901E+03  0.50400000000E-02 0.  1.
          1   -1    0    0  501    0  0.00000000000E+00 -0.00000000000E+00 -0.76891274771E+03  0.76891274773E+03  0.50400000000E-02 0. -1.
    8880023    1    1    2    0    0  0.16241460501E+03 -0.15867584854E+03 -0.25127755397E+03  0.74061268165E+03  0.65864270000E+03 0.  0.
    8880022    1    1    2    0    0 -0.16241460501E+03  0.15867584854E+03 -0.20432562477E+03  0.34160963508E+03  0.15294330000E+03 0.  0.
<mgrwt>
<rscale>  0 0.55159636E+03</rscale>
<asrwt>0</asrwt>
<pdfrwt beam="1">  1        1 0.11829427E+00 0.69668266E+03</pdfrwt>
<pdfrwt beam="2">  1       -1 0.48201472E-01 0.69668266E+03</pdfrwt>
<totfact> 0.10362065E+02</totfact>
</mgrwt>
</event>
<event>
 4    1  0.2514307E-008  0.1368022E+04  0.7818608E-02  0.9008937E-01
         -1   -1    0    0    0  501 -0.00000000000E+00  0.00000000000E+00  0.13295912817E+04  0.13295912817E+04  0.50400000000E-02 0.  1.
          1   -1    0    0  501    0  0.00000000000E+00 -0.00000000000E+00 -0.24240885805E+04  0.24240885805E+04  0.50400000000E-02 0. -1.
    8880023    1    1    2    0    0  0.95850885229E+03  0.72037109663E+03  0.74108459879E+03  0.15558567818E+04  0.65864270000E+03 0.  0.
    8880022    1    1    2    0    0 -0.95850885229E+03 -0.72037109663E+03 -0.18355818976E+04  0.21978230804E+04  0.15294330000E+03 0.  0.
<mgrwt>
<rscale>  0 0.13263358E+04</rscale>
<asrwt>0</asrwt>
<pdfrwt beam="1">  1        1 0.37293671E+00 0.13680219E+04</pdfrwt>
<pdfrwt beam="2">  1       -1 0.20455250E+00 0.13680219E+04</pdfrwt>
<totfact> 0.20584259E-01</totfact>
</mgrwt>
</event>
<event>
 4    1  0.2514307E-008  0.7613159E+03  0.7818608E-02  0.9801713E-01
         -1   -1    0    0    0  501 -0.00000000000E+00  0.00000000000E+00  0.74786150376E+03  0.74786150378E+03  0.50400000000E-02 0.  1.
          1   -1    0    0  501    0  0.00000000000E+00 -0.00000000000E+00 -0.60725605169E+03  0.60725605171E+03  0.50400000000E-02 0. -1.
    8880023    1    1    2    0    0 -0.14377923640E+03 -0.35372188015E+03  0.40875799142E+03  0.86410933286E+03  0.65864270000E+03 0.  1.
    8880022    1    1    2    0    0  0.14377923640E+03  0.35372188015E+03 -0.26815253935E+03  0.49100822263E+03  0.15294330000E+03 0.  0.
<mgrwt>
<rscale>  0 0.65270711E+03</rscale>
<asrwt>0</asrwt>
<pdfrwt beam="1">  1        1 0.93424008E-01 0.76131586E+03</pdfrwt>
<pdfrwt beam="2">  1       -1 0.11505562E+00 0.76131586E+03</pdfrwt>
<totfact> 0.23637033E+01</totfact>
</mgrwt>
</event>
<event>
 4    1  0.2514307E-008  0.8370931E+03  0.7818608E-02  0.9635686E-01
         -1   -1    0    0    0  501 -0.00000000000E+00  0.00000000000E+00  0.10602193905E+04  0.10602193905E+04  0.50400000000E-02 0.  1.
          1   -1    0    0  501    0  0.00000000000E+00 -0.00000000000E+00 -0.23338869863E+04  0.23338869863E+04  0.50400000000E-02 0. -1.
    8880023    1    1    2    0    0 -0.20616434401E+03 -0.47372032844E+03  0.85603914202E+03  0.11973002569E+04  0.65864270000E+03 0.  1.
    8880022    1    1    2    0    0  0.20616434401E+03  0.47372032844E+03 -0.21297067378E+04  0.21968061199E+04  0.15294330000E+03 0.  0.
<mgrwt>
<rscale>  0 0.74978612E+03</rscale>
<asrwt>0</asrwt>
<pdfrwt beam="1">  1        1 0.35905954E+00 0.83709312E+03</pdfrwt>
<pdfrwt beam="2">  1       -1 0.16311068E+00 0.83709312E+03</pdfrwt>
<totfact> 0.51187672E-01</totfact>
</mgrwt>
</event>
<event>
 4    1  0.2514307E-008  0.8272652E+03  0.7818608E-02  0.9654677E-01
         -1   -1    0    0    0  501 -0.00000000000E+00  0.00000000000E+00  0.12582697091E+04  0.12582697091E+04  0.50400000000E-02 0.  1.
          1   -1    0    0  501    0  0.00000000000E+00 -0.00000000000E+00 -0.86546519288E+03  0.86546519290E+03  0.50400000000E-02 0. -1.
    8880023    1    1    2    0    0 -0.45482727034E+02 -0.49848650887E+03  0.10158076207E+04  0.13100506886E+04  0.65864270000E+03 0.  1.
    8880022    1    1    2    0    0  0.45482727034E+02  0.49848650887E+03 -0.62300310451E+03  0.81368421346E+03  0.15294330000E+03 0.  0.
<mgrwt>
<rscale>  0 0.73780620E+03</rscale>
<asrwt>0</asrwt>
<pdfrwt beam="1">  1        1 0.13314849E+00 0.82726518E+03</pdfrwt>
<pdfrwt beam="2">  1       -1 0.19357996E+00 0.82726518E+03</pdfrwt>
<totfact> 0.33289983E+00</totfact>
</mgrwt>
</event>
<event>
 4    1  0.2514307E-008  0.7634100E+03  0.7818608E-02  0.9796358E-01
          1   -1    0    0  501    0  0.00000000000E+00  0.00000000000E+00  0.71090634127E+03  0.71090634129E+03  0.50400000000E-02 0. -1.
         -1   -1    0    0    0  501 -0.00000000000E+00 -0.00000000000E+00 -0.10486698840E+04  0.10486698840E+04  0.50400000000E-02 0.  1.
    8880023    1    1    2    0    0  0.19084657847E+03 -0.33550286098E+03 -0.82193303746E+03  0.11217703466E+04  0.65864270000E+03 0.  1.
    8880022    1    1    2    0    0 -0.19084657847E+03  0.33550286098E+03  0.48416949473E+03  0.63780587868E+03  0.15294330000E+03 0.  0.
<mgrwt>
<rscale>  0 0.65558355E+03</rscale>
<asrwt>0</asrwt>
<pdfrwt beam="1">  1        1 0.10937021E+00 0.76340998E+03</pdfrwt>
<pdfrwt beam="2">  1       -1 0.16133383E+00 0.76340998E+03</pdfrwt>
<totfact> 0.78292126E+00</totfact>
</mgrwt>
</event>
<event>
 4    1  0.2514307E-008  0.8162686E+03  0.7818608E-02  0.9676664E-01
         -1   -1    0    0    0  501 -0.00000000000E+00  0.00000000000E+00  0.10024374643E+04  0.10024374643E+04  0.50400000000E-02 0.  1.
          1   -1    0    0  501    0  0.00000000000E+00 -0.00000000000E+00 -0.17411846846E+04  0.17411846846E+04  0.50400000000E-02 0. -1.
    8880023    1    1    2    0    0  0.38719456117E+03 -0.28734064896E+03  0.78842178013E+03  0.11348583111E+04  0.65864270000E+03 0.  0.
    8880022    1    1    2    0    0 -0.38719456117E+03  0.28734064896E+03 -0.15271690005E+04  0.16087638378E+04  0.15294330000E+03 0.  0.
<mgrwt>
<rscale>  0 0.72423334E+03</rscale>
<asrwt>0</asrwt>
<pdfrwt beam="1">  1        1 0.26787457E+00 0.81626863E+03</pdfrwt>
<pdfrwt beam="2">  1       -1 0.15422115E+00 0.81626863E+03</pdfrwt>
<totfact> 0.15016585E+00</totfact>
</mgrwt>
</event>
<event>
 4    1  0.2514307E-008  0.8375437E+03  0.7818608E-02  0.9634829E-01
          1   -1    0    0  501    0  0.00000000000E+00  0.00000000000E+00  0.66387247514E+03  0.66387247515E+03  0.50400000000E-02 0. -1.
         -1   -1    0    0    0  501 -0.00000000000E+00 -0.00000000000E+00 -0.12091015451E+04  0.12091015452E+04  0.50400000000E-02 0.  1.
    8880023    1    1    2    0    0  0.43597286980E+03  0.27856230029E+03 -0.89832500792E+03  0.12281967776E+04  0.65864270000E+03 0.  0.
    8880022    1    1    2    0    0 -0.43597286980E+03 -0.27856230029E+03  0.35309593791E+03  0.64477724272E+03  0.15294330000E+03 0.  0.
<mgrwt>
<rscale>  0 0.75033225E+03</rscale>
<asrwt>0</asrwt>
<pdfrwt beam="1">  1        1 0.10213423E+00 0.83754373E+03</pdfrwt>
<pdfrwt beam="2">  1       -1 0.18601562E+00 0.83754373E+03</pdfrwt>
<totfact> 0.56893919E+00</totfact>
</mgrwt>
</event>
<event>
 4    1  0.2514307E-008  0.6634596E+03  0.7818608E-02  0.1020862E+00
         -1   -1    0    0    0  501 -0.00000000000E+00  0.00000000000E+00  0.18804502707E+03  0.18804502714E+03  0.50400000000E-02 0.  1.
          1   -1    0    0  501    0  0.00000000000E+00 -0.00000000000E+00 -0.11138653765E+04  0.11138653765E+04  0.50400000000E-02 0. -1.
    8880023    1    1    2    0    0 -0.79748616949E+02 -0.29235623544E+01 -0.46590928737E+03  0.81070960241E+03  0.65864270000E+03 0.  0.
    8880022    1    1    2    0    0  0.79748616949E+02  0.29235623544E+01 -0.45991106208E+03  0.49120080126E+03  0.15294330000E+03 0.  0.
<mgrwt>
<rscale>  0 0.47376725E+03</rscale>
<asrwt>0</asrwt>
<pdfrwt beam="1">  1        1 0.17136390E+00 0.66345957E+03</pdfrwt>
<pdfrwt beam="2">  1       -1 0.28930005E-01 0.66345957E+03</pdfrwt>
<totfact> 0.13785466E+02</totfact>
</mgrwt>
</event>
<event>
 4    1  0.2514307E-008  0.8601584E+03  0.7818608E-02  0.9593282E-01
          1   -1    0    0  501    0  0.00000000000E+00  0.00000000000E+00  0.21682108680E+04  0.21682108680E+04  0.50400000000E-02 0. -1.
         -1   -1    0    0    0  501 -0.00000000000E+00 -0.00000000000E+00 -0.68525195377E+03  0.68525195379E+03  0.50400000000E-02 0.  1.
    8880023    1    1    2    0    0  0.29763322202E+03 -0.46634395873E+03 -0.35307326919E+03  0.92980275455E+03  0.65864270000E+03 0.  0.
    8880022    1    1    2    0    0 -0.29763322202E+03  0.46634395873E+03  0.18360321834E+04  0.19236600672E+04  0.15294330000E+03 0.  0.
<mgrwt>
<rscale>  0 0.77742436E+03</rscale>
<asrwt>0</asrwt>
<pdfrwt beam="1">  1        1 0.33357091E+00 0.86015837E+03</pdfrwt>
<pdfrwt beam="2">  1       -1 0.10542338E+00 0.86015837E+03</pdfrwt>
<totfact> 0.20011178E+00</totfact>
</mgrwt>
</event>
<event>
 4    1  0.2514307E-008  0.1122571E+04  0.7818608E-02  0.9236333E-01
         -1   -1    0    0    0  501 -0.00000000000E+00  0.00000000000E+00  0.20313643831E+04  0.20313643831E+04  0.50400000000E-02 0.  1.
          1   -1    0    0  501    0  0.00000000000E+00 -0.00000000000E+00 -0.12181934066E+04  0.12181934066E+04  0.50400000000E-02 0. -1.
    8880023    1    1    2    0    0  0.15400096467E+03  0.89590131274E+03  0.16559265807E+04  0.20005645469E+04  0.65864270000E+03 0.  0.
    8880022    1    1    2    0    0 -0.15400096467E+03 -0.89590131274E+03 -0.84275560414E+03  0.12489932428E+04  0.15294330000E+03 0.  0.
<mgrwt>
<rscale>  0 0.10686158E+04</rscale>
<asrwt>0</asrwt>
<pdfrwt beam="1">  1        1 0.18741437E+00 0.11225710E+04</pdfrwt>
<pdfrwt beam="2">  1       -1 0.31251759E+00 0.11225710E+04</pdfrwt>
<totfact> 0.28283207E-01</totfact>
</mgrwt>
</event>
<event>
 4    1  0.2514307E-008  0.7134236E+03  0.7818608E-02  0.9945501E-01
          1   -1    0    0  501    0  0.00000000000E+00  0.00000000000E+00  0.15523247514E+04  0.15523247514E+04  0.50400000000E-02 0. -1.
         -1   -1    0    0    0  501 -0.00000000000E+00 -0.00000000000E+00 -0.39146000150E+03  0.39146000154E+03  0.50400000000E-02 0.  1.
    8880023    1    1    2    0    0  0.21759980581E+03 -0.16677343962E+03 -0.28195238419E+02  0.71398055533E+03  0.65864270000E+03 0.  0.
    8880022    1    1    2    0    0 -0.21759980581E+03  0.16677343962E+03  0.11890599883E+04  0.12298041976E+04  0.15294330000E+03 0.  0.
<mgrwt>
<rscale>  0 0.58105907E+03</rscale>
<asrwt>0</asrwt>
<pdfrwt beam="1">  1        1 0.23881920E+00 0.71342362E+03</pdfrwt>
<pdfrwt beam="2">  1       -1 0.60224614E-01 0.71342362E+03</pdfrwt>
<totfact> 0.17521683E+01</totfact>
</mgrwt>
</event>
<event>
 4    1  0.2514307E-008  0.7260000E+03  0.7818608E-02  0.9902783E-01
          1   -1    0    0  501    0  0.00000000000E+00  0.00000000000E+00  0.35313408584E+04  0.35313408584E+04  0.50400000000E-02 0. -1.
         -1   -1    0    0    0  501 -0.00000000000E+00 -0.00000000000E+00 -0.20498552606E+03  0.20498552612E+03  0.50400000000E-02 0.  1.
    8880023    1    1    2    0    0  0.29886609377E+03 -0.62808307369E+02  0.48176811993E+03  0.87130738154E+03  0.65864270000E+03 0.  1.
    8880022    1    1    2    0    0 -0.29886609377E+03  0.62808307369E+02  0.28445872124E+04  0.28650190030E+04  0.15294330000E+03 0.  0.
<mgrwt>
<rscale>  0 0.60126586E+03</rscale>
<asrwt>0</asrwt>
<pdfrwt beam="1">  1        1 0.54328316E+00 0.72600002E+03</pdfrwt>
<pdfrwt beam="2">  1       -1 0.31536237E-01 0.72600002E+03</pdfrwt>
<totfact> 0.24049055E+00</totfact>
</mgrwt>
</event>
<event>
 4    1  0.2514307E-008  0.8810400E+03  0.7818608E-02  0.9557181E-01
         -1   -1    0    0    0  501 -0.00000000000E+00  0.00000000000E+00  0.71457770453E+03  0.71457770455E+03  0.50400000000E-02 0.  1.
          1   -1    0    0  501    0  0.00000000000E+00 -0.00000000000E+00 -0.20248820495E+04  0.20248820495E+04  0.50400000000E-02 0. -1.
    8880023    1    1    2    0    0 -0.44621823008E+03  0.37856380326E+03  0.36852155646E+03  0.95500764700E+03  0.65864270000E+03 0.  1.
    8880022    1    1    2    0    0  0.44621823008E+03 -0.37856380326E+03 -0.16788259014E+04  0.17844521070E+04  0.15294330000E+03 0.  0.
<mgrwt>
<rscale>  0 0.80196256E+03</rscale>
<asrwt>0</asrwt>
<pdfrwt beam="1">  1        1 0.31152031E+00 0.88103999E+03</pdfrwt>
<pdfrwt beam="2">  1       -1 0.10993503E+00 0.88103999E+03</pdfrwt>
<totfact> 0.22560519E+00</totfact>
</mgrwt>
</event>
<event>
 4    1  0.2514307E-008  0.8570959E+03  0.7818608E-02  0.9598750E-01
         -1   -1    0    0    0  501 -0.00000000000E+00  0.00000000000E+00  0.73510962923E+03  0.73510962925E+03  0.50400000000E-02 0.  1.
          1   -1    0    0  501    0  0.00000000000E+00 -0.00000000000E+00 -0.11598465688E+04  0.11598465689E+04  0.50400000000E-02 0. -1.
    8880023    1    1    2    0    0 -0.16564441296E+03 -0.52284332348E+03  0.35647173924E+03  0.92827017597E+03  0.65864270000E+03 0.  0.
    8880022    1    1    2    0    0  0.16564441296E+03  0.52284332348E+03 -0.78120867886E+03  0.96668602213E+03  0.15294330000E+03 0.  0.
<mgrwt>
<rscale>  0 0.77378951E+03</rscale>
<asrwt>0</asrwt>
<pdfrwt beam="1">  1        1 0.17843793E+00 0.85709592E+03</pdfrwt>
<pdfrwt beam="2">  1       -1 0.11309379E+00 0.85709592E+03</pdfrwt>
<totfact> 0.83360011E+00</totfact>
</mgrwt>
</event>
<event>
 4    1  0.2514307E-008  0.9683988E+03  0.7818608E-02  0.9424122E-01
          1   -1    0    0  501    0  0.00000000000E+00  0.00000000000E+00  0.11354858606E+04  0.11354858606E+04  0.50400000000E-02 0. -1.
         -1   -1    0    0    0  501 -0.00000000000E+00 -0.00000000000E+00 -0.81836587921E+03  0.81836587923E+03  0.50400000000E-02 0.  1.
    8880023    1    1    2    0    0 -0.68704555609E+03 -0.17875789656E+03 -0.28611453569E+03  0.10097810235E+04  0.65864270000E+03 0.  1.
    8880022    1    1    2    0    0  0.68704555609E+03  0.17875789656E+03  0.60323451705E+03  0.94407071625E+03  0.15294330000E+03 0.  0.
<mgrwt>
<rscale>  0 0.90116826E+03</rscale>
<asrwt>0</asrwt>
<pdfrwt beam="1">  1        1 0.17469013E+00 0.96839878E+03</pdfrwt>
<pdfrwt beam="2">  1       -1 0.12590244E+00 0.96839878E+03</pdfrwt>
<totfact> 0.65981899E+00</totfact>
</mgrwt>
</event>
<event>
 4    1  0.2514307E-008  0.9000855E+03  0.7818608E-02  0.9525894E-01
          1   -1    0    0  501    0  0.00000000000E+00  0.00000000000E+00  0.96110458215E+03  0.96110458216E+03  0.50400000000E-02 0. -1.
         -1   -1    0    0    0  501 -0.00000000000E+00 -0.00000000000E+00 -0.16679611829E+04  0.16679611829E+04  0.50400000000E-02 0.  1.
    8880023    1    1    2    0    0  0.23438793842E+03 -0.56692680689E+03 -0.14167192506E+04  0.16784657730E+04  0.65864270000E+03 0.  1.
    8880022    1    1    2    0    0 -0.23438793842E+03  0.56692680689E+03  0.70986264988E+03  0.95059999198E+03  0.15294330000E+03 0.  0.
<mgrwt>
<rscale>  0 0.82401363E+03</rscale>
<asrwt>0</asrwt>
<pdfrwt beam="1">  1        1 0.14786224E+00 0.90008551E+03</pdfrwt>
<pdfrwt beam="2">  1       -1 0.25660941E+00 0.90008551E+03</pdfrwt>
<totfact> 0.10501271E+00</totfact>
</mgrwt>
</event>
<event>
 4    1  0.2514307E-008  0.6608916E+03  0.7818608E-02  0.1023261E+00
         -1   -1    0    0    0  501 -0.00000000000E+00  0.00000000000E+00  0.54961082053E+03  0.54961082056E+03  0.50400000000E-02 0.  1.
          1   -1    0    0  501    0  0.00000000000E+00 -0.00000000000E+00 -0.17211209365E+04  0.17211209366E+04  0.50400000000E-02 0. -1.
    8880023    1    1    2    0    0  0.33705115473E+02  0.42795859150E+02  0.34502325568E+03  0.74553254362E+03  0.65864270000E+03 0.  1.
    8880022    1    1    2    0    0 -0.33705115473E+02 -0.42795859150E+02 -0.15165333717E+04  0.15251992135E+04  0.15294330000E+03 0.  0.
<mgrwt>
<rscale>  0 0.46527975E+03</rscale>
<asrwt>0</asrwt>
<pdfrwt beam="1">  1        1 0.26478783E+00 0.66089161E+03</pdfrwt>
<pdfrwt beam="2">  1       -1 0.84555511E-01 0.66089161E+03</pdfrwt>
<totfact> 0.67684962E+00</totfact>
</mgrwt>
</event>
<event>
 4    1  0.2514307E-008  0.8859127E+03  0.7818608E-02  0.9549035E-01
          1   -1    0    0  501    0  0.00000000000E+00  0.00000000000E+00  0.15144329417E+04  0.15144329417E+04  0.50400000000E-02 0. -1.
         -1   -1    0    0    0  501 -0.00000000000E+00 -0.00000000000E+00 -0.10151768889E+04  0.10151768889E+04  0.50400000000E-02 0.  1.
    8880023    1    1    2    0    0  0.92516844798E+02 -0.58521086423E+03 -0.73557605934E+03  0.11514831599E+04  0.65864270000E+03 0.  0.
    8880022    1    1    2    0    0 -0.92516844798E+02  0.58521086423E+03  0.12348321122E+04  0.13781266707E+04  0.15294330000E+03 0.  0.
<mgrwt>
<rscale>  0 0.80763193E+03</rscale>
<asrwt>0</asrwt>
<pdfrwt beam="1">  1        1 0.23298968E+00 0.88591271E+03</pdfrwt>
<pdfrwt beam="2">  1       -1 0.15618106E+00 0.88591271E+03</pdfrwt>
<totfact> 0.20434873E+00</totfact>
</mgrwt>
</event>
<event>
 4    1  0.2514307E-008  0.9708612E+03  0.7818608E-02  0.9420714E-01
         -1   -1    0    0    0  501 -0.00000000000E+00  0.00000000000E+00  0.10856065952E+04  0.10856065952E+04  0.50400000000E-02 0.  1.
          1   -1    0    0  501    0  0.00000000000E+00 -0.00000000000E+00 -0.15897649586E+04  0.15897649586E+04  0.50400000000E-02 0. -1.
    8880023    1    1    2    0    0  0.56880203701E+03 -0.43037833664E+03  0.74842287268E+03  0.12258500204E+04  0.65864270000E+03 0.  0.
    8880022    1    1    2    0    0 -0.56880203701E+03  0.43037833664E+03 -0.12525812360E+04  0.14495215334E+04  0.15294330000E+03 0.  0.
<mgrwt>
<rscale>  0 0.90390423E+03</rscale>
<asrwt>0</asrwt>
<pdfrwt beam="1">  1        1 0.24457923E+00 0.97086120E+03</pdfrwt>
<pdfrwt beam="2">  1       -1 0.16701640E+00 0.97086120E+03</pdfrwt>
<totfact> 0.14844364E+00</totfact>
</mgrwt>
</event>
<event>
 4    1  0.2514307E-008  0.6737910E+03  0.7818608E-02  0.1013079E+00
         -1   -1    0    0    0  501 -0.00000000000E+00  0.00000000000E+00  0.16958122670E+03  0.16958122677E+03  0.50400000000E-02 0.  1.
          1   -1    0    0  501    0  0.00000000000E+00 -0.00000000000E+00 -0.13080893524E+04  0.13080893524E+04  0.50400000000E-02 0. -1.
    8880023    1    1    2    0    0  0.10665058678E+03  0.93860605960E+02 -0.60794733964E+03  0.90752098326E+03  0.65864270000E+03 0.  1.
    8880022    1    1    2    0    0 -0.10665058678E+03 -0.93860605960E+02 -0.53056078609E+03  0.57014959595E+03  0.15294330000E+03 0.  0.
<mgrwt>
<rscale>  0 0.50268927E+03</rscale>
<asrwt>0</asrwt>
<pdfrwt beam="1">  1        1 0.20124451E+00 0.67379104E+03</pdfrwt>
<pdfrwt beam="2">  1       -1 0.26089420E-01 0.67379104E+03</pdfrwt>
<totfact> 0.11921852E+02</totfact>
</mgrwt>
</event>
<event>
 4    1  0.2514307E-008  0.7157646E+03  0.7818608E-02  0.9937187E-01
          1   -1    0    0  501    0  0.00000000000E+00  0.00000000000E+00  0.13158197627E+04  0.13158197627E+04  0.50400000000E-02 0. -1.
         -1   -1    0    0    0  501 -0.00000000000E+00 -0.00000000000E+00 -0.48063399169E+03  0.48063399172E+03  0.50400000000E-02 0.  1.
    8880023    1    1    2    0    0 -0.85357287455E+02 -0.26687615197E+03 -0.17515456680E+03  0.73688403127E+03  0.65864270000E+03 0.  1.
    8880022    1    1    2    0    0  0.85357287455E+02  0.26687615197E+03  0.10103403378E+04  0.10595697232E+04  0.15294330000E+03 0.  0.
<mgrwt>
<rscale>  0 0.58492427E+03</rscale>
<asrwt>0</asrwt>
<pdfrwt beam="1">  1        1 0.20243381E+00 0.71576459E+03</pdfrwt>
<pdfrwt beam="2">  1       -1 0.73943693E-01 0.71576459E+03</pdfrwt>
<totfact> 0.16850970E+01</totfact>
</mgrwt>
</event>
<event>
 4    1  0.2514307E-008  0.6929762E+03  0.7818608E-02  0.1002769E+00
         -1   -1    0    0    0  501 -0.00000000000E+00  0.00000000000E+00  0.42679930228E+03  0.42679930231E+03  0.50400000000E-02 0.  1.
          1   -1    0    0  501    0  0.00000000000E+00 -0.00000000000E+00 -0.17909853558E+04  0.17909853558E+04  0.50400000000E-02 0. -1.
    8880023    1    1    2    0    0  0.21451020044E+03 -0.19779476132E+02  0.12601951104E+03  0.70434152028E+03  0.65864270000E+03 0.  1.
    8880022    1    1    2    0    0 -0.21451020044E+03  0.19779476132E+02 -0.14902055645E+04  0.15134431378E+04  0.15294330000E+03 0.  0.
<mgrwt>
<rscale>  0 0.54452615E+03</rscale>
<asrwt>0</asrwt>
<pdfrwt beam="1">  1        1 0.27553620E+00 0.69297623E+03</pdfrwt>
<pdfrwt beam="2">  1       -1 0.65661432E-01 0.69297623E+03</pdfrwt>
<totfact> 0.10221515E+01</totfact>
</mgrwt>
</event>
<event>
 4    1  0.2514307E-008  0.6816288E+03  0.7818608E-02  0.1008417E+00
         -1   -1    0    0    0  501 -0.00000000000E+00  0.00000000000E+00  0.59974353676E+03  0.59974353678E+03  0.50400000000E-02 0.  1.
          1   -1    0    0  501    0  0.00000000000E+00 -0.00000000000E+00 -0.89918247340E+03  0.89918247342E+03  0.50400000000E-02 0. -1.
    8880023    1    1    2    0    0  0.16236754751E+03  0.66665918677E+02  0.38021808343E+03  0.78050212199E+03  0.65864270000E+03 0.  1.
    8880022    1    1    2    0    0 -0.16236754751E+03 -0.66665918677E+02 -0.67965702007E+03  0.71842388821E+03  0.15294330000E+03 0.  0.
<mgrwt>
<rscale>  0 0.52108678E+03</rscale>
<asrwt>0</asrwt>
<pdfrwt beam="1">  1        1 0.13833576E+00 0.68162876E+03</pdfrwt>
<pdfrwt beam="2">  1       -1 0.92268237E-01 0.68162876E+03</pdfrwt>
<totfact> 0.21593295E+01</totfact>
</mgrwt>
</event>
<event>
 4    1  0.2514307E-008  0.1034270E+04  0.7818608E-02  0.9338034E-01
          1   -1    0    0  501    0  0.00000000000E+00  0.00000000000E+00  0.14550438196E+04  0.14550438197E+04  0.50400000000E-02 0. -1.
         -1   -1    0    0    0  501 -0.00000000000E+00 -0.00000000000E+00 -0.14328292547E+04  0.14328292547E+04  0.50400000000E-02 0.  1.
    8880023    1    1    2    0    0  0.67297146331E+03  0.42780073119E+03 -0.10953449692E+04  0.15064842727E+04  0.65864270000E+03 0.  0.
    8880022    1    1    2    0    0 -0.67297146331E+03 -0.42780073119E+03  0.11175595341E+04  0.13813888017E+04  0.15294330000E+03 0.  0.
<mgrwt>
<rscale>  0 0.97355491E+03</rscale>
<asrwt>0</asrwt>
<pdfrwt beam="1">  1        1 0.22385289E+00 0.10342699E+04</pdfrwt>
<pdfrwt beam="2">  1       -1 0.22043527E+00 0.10342699E+04</pdfrwt>
<totfact> 0.77069355E-01</totfact>
</mgrwt>
</event>
<event>
 4    1  0.2514307E-008  0.7187732E+03  0.7818608E-02  0.9926759E-01
          1   -1    0    0  501    0  0.00000000000E+00  0.00000000000E+00  0.73036727223E+03  0.73036727225E+03  0.50400000000E-02 0. -1.
         -1   -1    0    0    0  501 -0.00000000000E+00 -0.00000000000E+00 -0.91556816173E+03  0.91556816174E+03  0.50400000000E-02 0.  1.
    8880023    1    1    2    0    0  0.21216064593E+03 -0.19445436988E+03 -0.72146514246E+03  0.10184040454E+04  0.65864270000E+03 0.  0.
    8880022    1    1    2    0    0 -0.21216064593E+03  0.19445436988E+03  0.53626425296E+03  0.62753138859E+03  0.15294330000E+03 0.  0.
<mgrwt>
<rscale>  0 0.58981767E+03</rscale>
<asrwt>0</asrwt>
<pdfrwt beam="1">  1        1 0.11236420E+00 0.71877315E+03</pdfrwt>
<pdfrwt beam="2">  1       -1 0.14085664E+00 0.71877315E+03</pdfrwt>
<totfact> 0.10893054E+01</totfact>
</mgrwt>
</event>
<event>
 4    1  0.2514307E-008  0.1030850E+04  0.7818608E-02  0.9342265E-01
         -1   -1    0    0    0  501 -0.00000000000E+00  0.00000000000E+00  0.62487612379E+03  0.62487612381E+03  0.50400000000E-02 0.  1.
          1   -1    0    0  501    0  0.00000000000E+00 -0.00000000000E+00 -0.27130395575E+04  0.27130395575E+04  0.50400000000E-02 0. -1.
    8880023    1    1    2    0    0 -0.13656202740E+02 -0.79287741764E+03  0.70367790230E+02  0.10332487229E+04  0.65864270000E+03 0.  1.
    8880022    1    1    2    0    0  0.13656202740E+02  0.79287741764E+03 -0.21585312240E+04  0.23046669584E+04  0.15294330000E+03 0.  0.
<mgrwt>
<rscale>  0 0.96983280E+03</rscale>
<asrwt>0</asrwt>
<pdfrwt beam="1">  1        1 0.41739069E+00 0.10308498E+04</pdfrwt>
<pdfrwt beam="2">  1       -1 0.96134790E-01 0.10308498E+04</pdfrwt>
<totfact> 0.10189530E+00</totfact>
</mgrwt>
</event>
<event>
 4    1  0.2514307E-008  0.1324628E+04  0.7818608E-02  0.9044579E-01
         -1   -1    0    0    0  501 -0.00000000000E+00  0.00000000000E+00  0.58720547022E+03  0.58720547024E+03  0.50400000000E-02 0.  1.
          1   -1    0    0  501    0  0.00000000000E+00 -0.00000000000E+00 -0.27161300349E+04  0.27161300349E+04  0.50400000000E-02 0. -1.
    8880023    1    1    2    0    0  0.10197611138E+04 -0.53001448620E+03 -0.14314543430E+04  0.19503076237E+04  0.65864270000E+03 0.  0.
    8880022    1    1    2    0    0 -0.10197611138E+04  0.53001448620E+03 -0.69747022166E+03  0.13530278814E+04  0.15294330000E+03 0.  0.
<mgrwt>
<rscale>  0 0.12812360E+04</rscale>
<asrwt>0</asrwt>
<pdfrwt beam="1">  1        1 0.41786615E+00 0.13246276E+04</pdfrwt>
<pdfrwt beam="2">  1       -1 0.90339305E-01 0.13246276E+04</pdfrwt>
<totfact> 0.11200468E+00</totfact>
</mgrwt>
</event>
<event>
 4    1  0.2514307E-008  0.9669708E+03  0.7818608E-02  0.9426106E-01
         -1   -1    0    0    0  501 -0.00000000000E+00  0.00000000000E+00  0.32758410946E+03  0.32758410949E+03  0.50400000000E-02 0.  1.
          1   -1    0    0  501    0  0.00000000000E+00 -0.00000000000E+00 -0.27864254601E+04  0.27864254601E+04  0.50400000000E-02 0. -1.
    8880023    1    1    2    0    0 -0.65386466148E+03  0.27144684879E+03 -0.20863434059E+04  0.22995350401E+04  0.65864270000E+03 0.  0.
    8880022    1    1    2    0    0  0.65386466148E+03 -0.27144684879E+03 -0.37249794471E+03  0.81447452942E+03  0.15294330000E+03 0.  0.
<mgrwt>
<rscale>  0 0.89958047E+03</rscale>
<asrwt>0</asrwt>
<pdfrwt beam="1">  1        1 0.42868083E+00 0.96697083E+03</pdfrwt>
<pdfrwt beam="2">  1       -1 0.50397557E-01 0.96697083E+03</pdfrwt>
<totfact> 0.34651194E+00</totfact>
</mgrwt>
</event>
<event>
 4    1  0.2514307E-008  0.1047178E+04  0.7818608E-02  0.9322282E-01
         -1   -1    0    0    0  501 -0.00000000000E+00  0.00000000000E+00  0.72538340484E+03  0.72538340486E+03  0.50400000000E-02 0.  1.
          1   -1    0    0  501    0  0.00000000000E+00 -0.00000000000E+00 -0.21794542195E+04  0.21794542195E+04  0.50400000000E-02 0. -1.
    8880023    1    1    2    0    0 -0.18199399992E+03 -0.79350426288E+03  0.18962981316E+03  0.10642088627E+04  0.65864270000E+03 0.  1.
    8880022    1    1    2    0    0  0.18199399992E+03  0.79350426288E+03 -0.16437006278E+04  0.18406287616E+04  0.15294330000E+03 0.  0.
<mgrwt>
<rscale>  0 0.98757172E+03</rscale>
<asrwt>0</asrwt>
<pdfrwt beam="1">  1        1 0.33530065E+00 0.10471777E+04</pdfrwt>
<pdfrwt beam="2">  1       -1 0.11159745E+00 0.10471777E+04</pdfrwt>
<totfact> 0.16701539E+00</totfact>
</mgrwt>
</event>
<event>
 4    1  0.2514307E-008  0.7237303E+03  0.7818608E-02  0.9910160E-01
          1   -1    0    0  501    0  0.00000000000E+00  0.00000000000E+00  0.97465076295E+03  0.97465076296E+03  0.50400000000E-02 0. -1.
         -1   -1    0    0    0  501 -0.00000000000E+00 -0.00000000000E+00 -0.45084724218E+03  0.45084724221E+03  0.50400000000E-02 0.  1.
    8880023    1    1    2    0    0  0.28051445813E+03  0.10624000366E+03 -0.86094040729E+02  0.72883310141E+03  0.65864270000E+03 0.  0.
    8880022    1    1    2    0    0 -0.28051445813E+03 -0.10624000366E+03  0.60989756150E+03  0.69666490376E+03  0.15294330000E+03 0.  0.
<mgrwt>
<rscale>  0 0.59771391E+03</rscale>
<asrwt>0</asrwt>
<pdfrwt beam="1">  1        1 0.14994627E+00 0.72373027E+03</pdfrwt>
<pdfrwt beam="2">  1       -1 0.69361115E-01 0.72373027E+03</pdfrwt>
<totfact> 0.34276110E+01</totfact>
</mgrwt>
</event>
<event>
 4    1  0.2514307E-008  0.9051503E+03  0.7818608E-02  0.9517814E-01
          1   -1    0    0  501    0  0.00000000000E+00  0.00000000000E+00  0.48169481104E+03  0.48169481107E+03  0.50400000000E-02 0. -1.
         -1   -1    0    0    0  501 -0.00000000000E+00 -0.00000000000E+00 -0.14821888241E+04  0.14821888242E+04  0.50400000000E-02 0.  1.
    8880023    1    1    2    0    0 -0.24863540295E+03 -0.56891759554E+03 -0.96557867188E+03  0.13234950593E+04  0.65864270000E+03 0.  0.
    8880022    1    1    2    0    0  0.24863540295E+03  0.56891759554E+03 -0.34915341219E+02  0.64038857593E+03  0.15294330000E+03 0.  0.
<mgrwt>
<rscale>  0 0.82983126E+03</rscale>
<asrwt>0</asrwt>
<pdfrwt beam="1">  1        1 0.74106895E-01 0.90515026E+03</pdfrwt>
<pdfrwt beam="2">  1       -1 0.22802905E+00 0.90515026E+03</pdfrwt>
<totfact> 0.46179462E+00</totfact>
</mgrwt>
</event>
<event>
 4    1  0.2514307E-008  0.1357706E+04  0.7818608E-02  0.9017263E-01
         -1   -1    0    0    0  501 -0.00000000000E+00  0.00000000000E+00  0.85188398568E+03  0.85188398570E+03  0.50400000000E-02 0.  1.
          1   -1    0    0  501    0  0.00000000000E+00 -0.00000000000E+00 -0.22024745973E+04  0.22024745973E+04  0.50400000000E-02 0. -1.
    8880023    1    1    2    0    0 -0.46308993236E+03 -0.10932074677E+04 -0.16182333254E+03  0.13673155635E+04  0.65864270000E+03 0.  0.
    8880022    1    1    2    0    0  0.46308993236E+03  0.10932074677E+04 -0.11887672791E+04  0.16870430195E+04  0.15294330000E+03 0.  0.
<mgrwt>
<rscale>  0 0.13156277E+04</rscale>
<asrwt>0</asrwt>
<pdfrwt beam="1">  1        1 0.33884224E+00 0.13577058E+04</pdfrwt>
<pdfrwt beam="2">  1       -1 0.13105908E+00 0.13577058E+04</pdfrwt>
<totfact> 0.10422244E+00</totfact>
</mgrwt>
</event>
<event>
 4    1  0.2514307E-008  0.6752166E+03  0.7818608E-02  0.1012170E+00
         -1   -1    0    0    0  501 -0.00000000000E+00  0.00000000000E+00  0.78331533872E+03  0.78331533874E+03  0.50400000000E-02 0.  1.
          1   -1    0    0  501    0  0.00000000000E+00 -0.00000000000E+00 -0.81740578295E+03  0.81740578296E+03  0.50400000000E-02 0. -1.
    8880023    1    1    2    0    0  0.11960113505E+03 -0.88333574084E+02  0.61756524334E+03  0.91504332567E+03  0.65864270000E+03 0.  1.
    8880022    1    1    2    0    0 -0.11960113505E+03  0.88333574084E+02 -0.65165568756E+03  0.68567779603E+03  0.15294330000E+03 0.  0.
<mgrwt>
<rscale>  0 0.50621202E+03</rscale>
<asrwt>0</asrwt>
<pdfrwt beam="1">  1        1 0.12575474E+00 0.67521660E+03</pdfrwt>
<pdfrwt beam="2">  1       -1 0.12051005E+00 0.67521660E+03</pdfrwt>
<totfact> 0.13604713E+01</totfact>
</mgrwt>
</event>
<event>
 4    1  0.2514307E-008  0.6638067E+03  0.7818608E-02  0.1020556E+00
          1   -1    0    0  501    0  0.00000000000E+00  0.00000000000E+00  0.24111429075E+04  0.24111429075E+04  0.50400000000E-02 0. -1.
         -1   -1    0    0    0  501 -0.00000000000E+00 -0.00000000000E+00 -0.11665268192E+03  0.11665268203E+03  0.50400000000E-02 0.  1.
    8880023    1    1    2    0    0  0.80493894104E+02  0.18704288832E+02  0.87807416911E+03  0.11007513662E+04  0.65864270000E+03 0.  1.
    8880022    1    1    2    0    0 -0.80493894104E+02 -0.18704288832E+02  0.14164160565E+04  0.14270442233E+04  0.15294330000E+03 0.  0.
<mgrwt>
<rscale>  0 0.47486418E+03</rscale>
<asrwt>0</asrwt>
<pdfrwt beam="1">  1        1 0.37094502E+00 0.66380669E+03</pdfrwt>
<pdfrwt beam="2">  1       -1 0.17946568E-01 0.66380669E+03</pdfrwt>
<totfact> 0.40308252E+01</totfact>
</mgrwt>
</event>
<event>
 4    1  0.2514307E-008  0.6666235E+03  0.7818608E-02  0.1018209E+00
          1   -1    0    0  501    0  0.00000000000E+00  0.00000000000E+00  0.22427820324E+04  0.22427820324E+04  0.50400000000E-02 0. -1.
         -1   -1    0    0    0  501 -0.00000000000E+00 -0.00000000000E+00 -0.52473895908E+03  0.52473895911E+03  0.50400000000E-02 0.  1.
    8880023    1    1    2    0    0 -0.87646191866E+02  0.53803856543E+02 -0.30713430938E+03  0.73397438660E+03  0.65864270000E+03 0.  1.
    8880022    1    1    2    0    0  0.87646191866E+02 -0.53803856543E+02  0.20251773827E+04  0.20335466049E+04  0.15294330000E+03 0.  0.
<mgrwt>
<rscale>  0 0.48338682E+03</rscale>
<asrwt>0</asrwt>
<pdfrwt beam="1">  1        1 0.34504338E+00 0.66662352E+03</pdfrwt>
<pdfrwt beam="2">  1       -1 0.80729072E-01 0.66662352E+03</pdfrwt>
<totfact> 0.33476866E+00</totfact>
</mgrwt>
</event>
<event>
 4    1  0.2514307E-008  0.7473295E+03  0.7818608E-02  0.9839089E-01
          1   -1    0    0  501    0  0.00000000000E+00  0.00000000000E+00  0.92497079959E+03  0.92497079960E+03  0.50400000000E-02 0. -1.
         -1   -1    0    0    0  501 -0.00000000000E+00 -0.00000000000E+00 -0.11349745833E+04  0.11349745833E+04  0.50400000000E-02 0.  1.
    8880023    1    1    2    0    0  0.31602153745E+03  0.15754871553E+03 -0.96023455623E+03  0.12167792812E+04  0.65864270000E+03 0.  0.
    8880022    1    1    2    0    0 -0.31602153745E+03 -0.15754871553E+03  0.75023077256E+03  0.84316610167E+03  0.15294330000E+03 0.  0.
<mgrwt>
<rscale>  0 0.63306340E+03</rscale>
<asrwt>0</asrwt>
<pdfrwt beam="1">  1        1 0.14230320E+00 0.74732952E+03</pdfrwt>
<pdfrwt beam="2">  1       -1 0.17461147E+00 0.74732952E+03</pdfrwt>
<totfact> 0.41035191E+00</totfact>
</mgrwt>
</event>
<event>
 4    1  0.2514307E-008  0.6958208E+03  0.7818608E-02  0.1001500E+00
          1   -1    0    0  501    0  0.00000000000E+00  0.00000000000E+00  0.13934482731E+04  0.13934482731E+04  0.50400000000E-02 0. -1.
         -1   -1    0    0    0  501 -0.00000000000E+00 -0.00000000000E+00 -0.31380071824E+03  0.31380071829E+03  0.50400000000E-02 0.  1.
    8880023    1    1    2    0    0  0.37733005174E+02 -0.22120719176E+03  0.11519408373E+03  0.70529163086E+03  0.65864270000E+03 0.  1.
    8880022    1    1    2    0    0 -0.37733005174E+02  0.22120719176E+03  0.96445347113E+03  0.10019573605E+04  0.15294330000E+03 0.  0.
<mgrwt>
<rscale>  0 0.54997365E+03</rscale>
<asrwt>0</asrwt>
<pdfrwt beam="1">  1        1 0.21437666E+00 0.69582082E+03</pdfrwt>
<pdfrwt beam="2">  1       -1 0.48277034E-01 0.69582082E+03</pdfrwt>
<totfact> 0.34535009E+01</totfact>
</mgrwt>
</event>
<event>
 4    1  0.2514307E-008  0.1206316E+04  0.7818608E-02  0.9151008E-01
          1   -1    0    0  501    0  0.00000000000E+00  0.00000000000E+00  0.30375952187E+04  0.30375952187E+04  0.50400000000E-02 0. -1.
         -1   -1    0    0    0  501 -0.00000000000E+00 -0.00000000000E+00 -0.81092492478E+03  0.81092492479E+03  0.50400000000E-02 0.  1.
    8880023    1    1    2    0    0 -0.99239355731E+03 -0.19115969958E+03 -0.19314571305E+03  0.12216801857E+04  0.65864270000E+03 0.  0.
    8880022    1    1    2    0    0  0.99239355731E+03  0.19115969958E+03  0.24198160069E+04  0.26268399578E+04  0.15294330000E+03 0.  0.
<mgrwt>
<rscale>  0 0.11573740E+04</rscale>
<asrwt>0</asrwt>
<pdfrwt beam="1">  1        1 0.46732234E+00 0.12063156E+04</pdfrwt>
<pdfrwt beam="2">  1       -1 0.12475768E+00 0.12063156E+04</pdfrwt>
<totfact> 0.31354149E-01</totfact>
</mgrwt>
</event>
<event>
 4    1  0.2514307E-008  0.1595246E+04  0.7818608E-02  0.8845152E-01
          1   -1    0    0  501    0  0.00000000000E+00  0.00000000000E+00  0.29023016191E+04  0.29023016192E+04  0.50400000000E-02 0. -1.
         -1   -1    0    0    0  501 -0.00000000000E+00 -0.00000000000E+00 -0.12509907024E+04  0.12509907024E+04  0.50400000000E-02 0.  1.
    8880023    1    1    2    0    0  0.15461372545E+03 -0.14446782525E+04  0.20887545447E+04  0.26282515883E+04  0.65864270000E+03 0.  0.
    8880022    1    1    2    0    0 -0.15461372545E+03  0.14446782525E+04 -0.43744362793E+03  0.15250407332E+04  0.15294330000E+03 0.  0.
<mgrwt>
<rscale>  0 0.15605587E+04</rscale>
<asrwt>0</asrwt>
<pdfrwt beam="1">  1        1 0.44650794E+00 0.15952463E+04</pdfrwt>
<pdfrwt beam="2">  1       -1 0.19246011E+00 0.15952463E+04</pdfrwt>
<totfact> 0.11190019E-01</totfact>
</mgrwt>
</event>
<event>
 4    1  0.2514307E-008  0.9937932E+03  0.7818608E-02  0.9389724E-01
          1   -1    0    0  501    0  0.00000000000E+00  0.00000000000E+00  0.56645584931E+03  0.56645584933E+03  0.50400000000E-02 0. -1.
         -1   -1    0    0    0  501 -0.00000000000E+00 -0.00000000000E+00 -0.18201663281E+04  0.18201663281E+04  0.50400000000E-02 0.  1.
    8880023    1    1    2    0    0 -0.46282275220E+03 -0.58276045461E+03 -0.12871388855E+04  0.16261461694E+04  0.65864270000E+03 0.  0.
    8880022    1    1    2    0    0  0.46282275220E+03  0.58276045461E+03  0.33428406701E+02  0.76047600804E+03  0.15294330000E+03 0.  0.
<mgrwt>
<rscale>  0 0.92926245E+03</rscale>
<asrwt>0</asrwt>
<pdfrwt beam="1">  1        1 0.87147055E-01 0.99379316E+03</pdfrwt>
<pdfrwt beam="2">  1       -1 0.28002559E+00 0.99379316E+03</pdfrwt>
<totfact> 0.16757210E+00</totfact>
</mgrwt>
</event>
<event>
 4    1  0.2514307E-008  0.1329963E+04  0.7818608E-02  0.9040108E-01
         -1   -1    0    0    0  501 -0.00000000000E+00  0.00000000000E+00  0.10081349498E+04  0.10081349498E+04  0.50400000000E-02 0.  1.
          1   -1    0    0  501    0  0.00000000000E+00 -0.00000000000E+00 -0.21317510533E+04  0.21317510533E+04  0.50400000000E-02 0. -1.
    8880023    1    1    2    0    0 -0.11473610073E+04 -0.13621183693E+03  0.23423578395E+03  0.13504323583E+04  0.65864270000E+03 0.  1.
    8880022    1    1    2    0    0  0.11473610073E+04  0.13621183693E+03 -0.13578518875E+04  0.17894536448E+04  0.15294330000E+03 0.  0.
<mgrwt>
<rscale>  0 0.12867892E+04</rscale>
<asrwt>0</asrwt>
<pdfrwt beam="1">  1        1 0.32796170E+00 0.13299628E+04</pdfrwt>
<pdfrwt beam="2">  1       -1 0.15509768E+00 0.13299628E+04</pdfrwt>
<totfact> 0.74733163E-01</totfact>
</mgrwt>
</event>
<event>
 4    1  0.2514307E-008  0.1252512E+04  0.7818608E-02  0.9107693E-01
          1   -1    0    0  501    0  0.00000000000E+00  0.00000000000E+00  0.15042813615E+04  0.15042813615E+04  0.50400000000E-02 0. -1.
         -1   -1    0    0    0  501 -0.00000000000E+00 -0.00000000000E+00 -0.22837584093E+04  0.22837584093E+04  0.50400000000E-02 0.  1.
    8880023    1    1    2    0    0 -0.81844105263E+02 -0.10622046255E+04 -0.18733308241E+04  0.22534763603E+04  0.65864270000E+03 0.  0.
    8880022    1    1    2    0    0  0.81844105263E+02  0.10622046255E+04  0.10938537762E+04  0.15345634105E+04  0.15294330000E+03 0. -1.
<mgrwt>
<rscale>  0 0.12059169E+04</rscale>
<asrwt>0</asrwt>
<pdfrwt beam="1">  1        1 0.23142790E+00 0.12525124E+04</pdfrwt>
<pdfrwt beam="2">  1       -1 0.35134745E+00 0.12525124E+04</pdfrwt>
<totfact> 0.96892856E-02</totfact>
</mgrwt>
</event>
<event>
 4    1  0.2514307E-008  0.1234363E+04  0.7818608E-02  0.9124422E-01
          1   -1    0    0  501    0  0.00000000000E+00  0.00000000000E+00  0.12234903732E+04  0.12234903732E+04  0.50400000000E-02 0. -1.
         -1   -1    0    0    0  501 -0.00000000000E+00 -0.00000000000E+00 -0.13085604093E+04  0.13085604093E+04  0.50400000000E-02 0.  1.
    8880023    1    1    2    0    0  0.26344013550E+03 -0.10101692918E+04 -0.58328499343E+03  0.13652378155E+04  0.65864270000E+03 0.  0.
    8880022    1    1    2    0    0 -0.26344013550E+03  0.10101692918E+04  0.49821495740E+03  0.11668129670E+04  0.15294330000E+03 0.  0.
<mgrwt>
<rscale>  0 0.11868767E+04</rscale>
<asrwt>0</asrwt>
<pdfrwt beam="1">  1        1 0.18822929E+00 0.12343634E+04</pdfrwt>
<pdfrwt beam="2">  1       -1 0.20131699E+00 0.12343634E+04</pdfrwt>
<totfact> 0.14780034E+00</totfact>
</mgrwt>
</event>
<event>
 4    1  0.2514307E-008  0.8304608E+03  0.7818608E-02  0.9648436E-01
         -1   -1    0    0    0  501 -0.00000000000E+00  0.00000000000E+00  0.42657381577E+03  0.42657381580E+03  0.50400000000E-02 0.  1.
          1   -1    0    0  501    0  0.00000000000E+00 -0.00000000000E+00 -0.20809051131E+04  0.20809051131E+04  0.50400000000E-02 0. -1.
    8880023    1    1    2    0    0 -0.53834289568E+02 -0.50294816935E+03 -0.65460685917E+02  0.83303679357E+03  0.65864270000E+03 0.  0.
    8880022    1    1    2    0    0  0.53834289568E+02  0.50294816935E+03 -0.15888706114E+04  0.16744421353E+04  0.15294330000E+03 0.  0.
<mgrwt>
<rscale>  0 0.74171637E+03</rscale>
<asrwt>0</asrwt>
<pdfrwt beam="1">  1        1 0.32013924E+00 0.83046083E+03</pdfrwt>
<pdfrwt beam="2">  1       -1 0.65626742E-01 0.83046083E+03</pdfrwt>
<totfact> 0.64046436E+00</totfact>
</mgrwt>
</event>
<event>
 4    1  0.2514307E-008  0.9629455E+03  0.7818608E-02  0.9431728E-01
          1   -1    0    0  501    0  0.00000000000E+00  0.00000000000E+00  0.85091454642E+03  0.85091454643E+03  0.50400000000E-02 0. -1.
         -1   -1    0    0    0  501 -0.00000000000E+00 -0.00000000000E+00 -0.27672021480E+04  0.27672021480E+04  0.50400000000E-02 0.  1.
    8880023    1    1    2    0    0 -0.50222909616E+02  0.70066504212E+03 -0.25083163738E+04  0.26868038780E+04  0.65864270000E+03 0.  1.
    8880022    1    1    2    0    0  0.50222909616E+02 -0.70066504212E+03  0.59202877217E+03  0.93131281640E+03  0.15294330000E+03 0.  0.
<mgrwt>
<rscale>  0 0.89509962E+03</rscale>
<asrwt>0</asrwt>
<pdfrwt beam="1">  1        1 0.13090993E+00 0.96294551E+03</pdfrwt>
<pdfrwt beam="2">  1       -1 0.42572340E+00 0.96294551E+03</pdfrwt>
<totfact> 0.98398613E-02</totfact>
</mgrwt>
</event>
<event>
 4    1  0.2514307E-008  0.8039322E+03  0.7818608E-02  0.9702358E-01
         -1   -1    0    0    0  501 -0.00000000000E+00  0.00000000000E+00  0.79082727344E+03  0.79082727345E+03  0.50400000000E-02 0.  1.
          1   -1    0    0  501    0  0.00000000000E+00 -0.00000000000E+00 -0.79060300327E+03  0.79060300329E+03  0.50400000000E-02 0. -1.
    8880023    1    1    2    0    0  0.36075984938E+02 -0.45955985310E+03  0.44842830414E+03  0.92054053984E+03  0.65864270000E+03 0.  1.
    8880022    1    1    2    0    0 -0.36075984938E+02  0.45955985310E+03 -0.44820403397E+03  0.66088973691E+03  0.15294330000E+03 0.  0.
<mgrwt>
<rscale>  0 0.70876600E+03</rscale>
<asrwt>0</asrwt>
<pdfrwt beam="1">  1        1 0.12163123E+00 0.80393217E+03</pdfrwt>
<pdfrwt beam="2">  1       -1 0.12166573E+00 0.80393217E+03</pdfrwt>
<totfact> 0.13790246E+01</totfact>
</mgrwt>
</event>
<event>
 4    1  0.2514307E-008  0.1211041E+04  0.7818608E-02  0.9146464E-01
          1   -1    0    0  501    0  0.00000000000E+00  0.00000000000E+00  0.35089774901E+04  0.35089774901E+04  0.50400000000E-02 0. -1.
         -1   -1    0    0    0  501 -0.00000000000E+00 -0.00000000000E+00 -0.73516055326E+03  0.73516055328E+03  0.50400000000E-02 0.  1.
    8880023    1    1    2    0    0  0.46661862538E+03 -0.90281575542E+03 -0.77245323506E+02  0.12135016589E+04  0.65864270000E+03 0.  0.
    8880022    1    1    2    0    0 -0.46661862538E+03  0.90281575542E+03  0.28510622604E+04  0.30306363845E+04  0.15294330000E+03 0.  0.
<mgrwt>
<rscale>  0 0.11623512E+04</rscale>
<asrwt>0</asrwt>
<pdfrwt beam="1">  1        1 0.53984268E+00 0.12110406E+04</pdfrwt>
<pdfrwt beam="2">  1       -1 0.11310163E+00 0.12110406E+04</pdfrwt>
<totfact> 0.17589410E-01</totfact>
</mgrwt>
</event>
<event>
 4    1  0.2514307E-008  0.1404253E+04  0.7818608E-02  0.8980385E-01
          1   -1    0    0  501    0  0.00000000000E+00  0.00000000000E+00  0.13370851646E+04  0.13370851646E+04  0.50400000000E-02 0. -1.
         -1   -1    0    0    0  501 -0.00000000000E+00 -0.00000000000E+00 -0.17422758789E+04  0.17422758789E+04  0.50400000000E-02 0.  1.
    8880023    1    1    2    0    0 -0.35424715364E+02  0.12397017646E+04 -0.97136767863E+03  0.17074778912E+04  0.65864270000E+03 0.  1.
    8880022    1    1    2    0    0  0.35424715364E+02 -0.12397017646E+04  0.56617696440E+03  0.13718831523E+04  0.15294330000E+03 0.  0.
<mgrwt>
<rscale>  0 0.13638824E+04</rscale>
<asrwt>0</asrwt>
<pdfrwt beam="1">  1        1 0.20570541E+00 0.14042527E+04</pdfrwt>
<pdfrwt beam="2">  1       -1 0.26804244E+00 0.14042527E+04</pdfrwt>
<totfact> 0.43344428E-01</totfact>
</mgrwt>
</event>
<event>
 4    1  0.2514307E-008  0.7699010E+03  0.7818608E-02  0.9780118E-01
          1   -1    0    0  501    0  0.00000000000E+00  0.00000000000E+00  0.21358527621E+04  0.21358527622E+04  0.50400000000E-02 0. -1.
         -1   -1    0    0    0  501 -0.00000000000E+00 -0.00000000000E+00 -0.23032620186E+03  0.23032620192E+03  0.50400000000E-02 0.  1.
    8880023    1    1    2    0    0 -0.19881547983E+03  0.34555716381E+03  0.55319518301E+03  0.94803610967E+03  0.65864270000E+03 0.  1.
    8880022    1    1    2    0    0  0.19881547983E+03 -0.34555716381E+03  0.13523313773E+04  0.14181428544E+04  0.15294330000E+03 0. -1.
<mgrwt>
<rscale>  0 0.66440537E+03</rscale>
<asrwt>0</asrwt>
<pdfrwt beam="1">  1        1 0.32859273E+00 0.76990100E+03</pdfrwt>
<pdfrwt beam="2">  1       -1 0.35434801E-01 0.76990100E+03</pdfrwt>
<totfact> 0.19018000E+01</totfact>
</mgrwt>
</event>
<event>
 4    1  0.2514307E-008  0.6701129E+03  0.7818608E-02  0.1015582E+00
          1   -1    0    0  501    0  0.00000000000E+00  0.00000000000E+00  0.19062072632E+04  0.19062072632E+04  0.50400000000E-02 0. -1.
         -1   -1    0    0    0  501 -0.00000000000E+00 -0.00000000000E+00 -0.13060121184E+03  0.13060121194E+03  0.50400000000E-02 0.  1.
    8880023    1    1    2    0    0  0.22656132399E+02 -0.12135831974E+03  0.80933552594E+03  0.10507498950E+04  0.65864270000E+03 0.  1.
    8880022    1    1    2    0    0 -0.22656132399E+02  0.12135831974E+03  0.96627052544E+03  0.98605858013E+03  0.15294330000E+03 0.  0.
<mgrwt>
<rscale>  0 0.49315168E+03</rscale>
<asrwt>0</asrwt>
<pdfrwt beam="1">  1        1 0.29326263E+00 0.67011294E+03</pdfrwt>
<pdfrwt beam="2">  1       -1 0.20092496E-01 0.67011294E+03</pdfrwt>
<totfact> 0.72759793E+01</totfact>
</mgrwt>
</event>
<event>
 4    1  0.2514307E-008  0.8042896E+03  0.7818608E-02  0.9701597E-01
          1   -1    0    0  501    0  0.00000000000E+00  0.00000000000E+00  0.17567530461E+04  0.17567530461E+04  0.50400000000E-02 0. -1.
         -1   -1    0    0    0  501 -0.00000000000E+00 -0.00000000000E+00 -0.30468681313E+03  0.30468681317E+03  0.50400000000E-02 0.  1.
    8880023    1    1    2    0    0  0.22237097313E+03 -0.40450295899E+03  0.39108758925E+03  0.89433282521E+03  0.65864270000E+03 0.  0.
    8880022    1    1    2    0    0 -0.22237097313E+03  0.40450295899E+03  0.10609786438E+04  0.11671070341E+04  0.15294330000E+03 0.  0.
<mgrwt>
<rscale>  0 0.70921801E+03</rscale>
<asrwt>0</asrwt>
<pdfrwt beam="1">  1        1 0.27026970E+00 0.80428956E+03</pdfrwt>
<pdfrwt beam="2">  1       -1 0.46874894E-01 0.80428956E+03</pdfrwt>
<totfact> 0.20374570E+01</totfact>
</mgrwt>
</event>
<event>
 4    1  0.2514307E-008  0.9019310E+03  0.7818608E-02  0.9522939E-01
         -1   -1    0    0    0  501 -0.00000000000E+00  0.00000000000E+00  0.82173393552E+03  0.82173393553E+03  0.50400000000E-02 0.  1.
          1   -1    0    0  501    0  0.00000000000E+00 -0.00000000000E+00 -0.98413101540E+03  0.98413101542E+03  0.50400000000E-02 0. -1.
    8880023    1    1    2    0    0 -0.54969177508E+03  0.27840322559E+03  0.37237621756E+03  0.97577848781E+03  0.65864270000E+03 0.  1.
    8880022    1    1    2    0    0  0.54969177508E+03 -0.27840322559E+03 -0.53477329744E+03  0.83008646314E+03  0.15294330000E+03 0.  0.
<mgrwt>
<rscale>  0 0.82613564E+03</rscale>
<asrwt>0</asrwt>
<pdfrwt beam="1">  1        1 0.15140477E+00 0.90193104E+03</pdfrwt>
<pdfrwt beam="2">  1       -1 0.12642061E+00 0.90193104E+03</pdfrwt>
<totfact> 0.85845334E+00</totfact>
</mgrwt>
</event>
<event>
 4    1  0.2514307E-008  0.8406518E+03  0.7818608E-02  0.9628952E-01
          1   -1    0    0  501    0  0.00000000000E+00  0.00000000000E+00  0.11687315678E+04  0.11687315678E+04  0.50400000000E-02 0. -1.
         -1   -1    0    0    0  501 -0.00000000000E+00 -0.00000000000E+00 -0.10515372578E+04  0.10515372578E+04  0.50400000000E-02 0.  1.
    8880023    1    1    2    0    0  0.27474523893E+03  0.44429761623E+03 -0.79563887538E+03  0.11574699756E+04  0.65864270000E+03 0.  0.
    8880022    1    1    2    0    0 -0.27474523893E+03 -0.44429761623E+03  0.91283318540E+03  0.10627988500E+04  0.15294330000E+03 0.  0.
<mgrwt>
<rscale>  0 0.75409205E+03</rscale>
<asrwt>0</asrwt>
<pdfrwt beam="1">  1        1 0.17980485E+00 0.84065184E+03</pdfrwt>
<pdfrwt beam="2">  1       -1 0.16177496E+00 0.84065184E+03</pdfrwt>
<totfact> 0.32741276E+00</totfact>
</mgrwt>
</event>
<event>
 4    1  0.2514307E-008  0.8842333E+03  0.7818608E-02  0.9551832E-01
          1   -1    0    0  501    0  0.00000000000E+00  0.00000000000E+00  0.12247333471E+04  0.12247333471E+04  0.50400000000E-02 0. -1.
         -1   -1    0    0    0  501 -0.00000000000E+00 -0.00000000000E+00 -0.79097912242E+03  0.79097912244E+03  0.50400000000E-02 0.  1.
    8880023    1    1    2    0    0  0.56918876014E+03  0.15518505103E+03 -0.41016086073E+03  0.97473092835E+03  0.65864270000E+03 0.  1.
    8880022    1    1    2    0    0 -0.56918876014E+03 -0.15518505103E+03  0.84391508539E+03  0.10409815412E+04  0.15294330000E+03 0.  0.
<mgrwt>
<rscale>  0 0.80568015E+03</rscale>
<asrwt>0</asrwt>
<pdfrwt beam="1">  1        1 0.18842051E+00 0.88423326E+03</pdfrwt>
<pdfrwt beam="2">  1       -1 0.12168910E+00 0.88423326E+03</pdfrwt>
<totfact> 0.62396187E+00</totfact>
</mgrwt>
</event>
<event>
 4    1  0.2514307E-008  0.9074519E+03  0.7818608E-02  0.9514173E-01
          1   -1    0    0  501    0  0.00000000000E+00  0.00000000000E+00  0.20854639295E+04  0.20854639295E+04  0.50400000000E-02 0. -1.
         -1   -1    0    0    0  501 -0.00000000000E+00 -0.00000000000E+00 -0.11763151470E+04  0.11763151471E+04  0.50400000000E-02 0.  1.
    8880023    1    1    2    0    0 -0.35014264704E+03  0.51677736961E+03 -0.93854454662E+03  0.13055017408E+04  0.65864270000E+03 0.  1.
    8880022    1    1    2    0    0  0.35014264704E+03 -0.51677736961E+03  0.18476933291E+04  0.19562773358E+04  0.15294330000E+03 0.  0.
<mgrwt>
<rscale>  0 0.83246903E+03</rscale>
<asrwt>0</asrwt>
<pdfrwt beam="1">  1        1 0.32084061E+00 0.90745189E+03</pdfrwt>
<pdfrwt beam="2">  1       -1 0.18097156E+00 0.90745189E+03</pdfrwt>
<totfact> 0.54986889E-01</totfact>
</mgrwt>
</event>
<event>
 4    1  0.2514307E-008  0.8386546E+03  0.7818608E-02  0.9632722E-01
         -1   -1    0    0    0  501 -0.00000000000E+00  0.00000000000E+00  0.11549429380E+04  0.11549429381E+04  0.50400000000E-02 0.  1.
          1   -1    0    0  501    0  0.00000000000E+00 -0.00000000000E+00 -0.53359155644E+03  0.53359155646E+03  0.50400000000E-02 0. -1.
    8880023    1    1    2    0    0  0.83147973238E+02 -0.51246246589E+03  0.75787097347E+03  0.11303583428E+04  0.65864270000E+03 0. -1.
    8880022    1    1    2    0    0 -0.83147973238E+02  0.51246246589E+03 -0.13651959186E+03  0.55817615174E+03  0.15294330000E+03 0.  0.
<mgrwt>
<rscale>  0 0.75167749E+03</rscale>
<asrwt>0</asrwt>
<pdfrwt beam="1">  1        1 0.82091009E-01 0.83865462E+03</pdfrwt>
<pdfrwt beam="2">  1       -1 0.17768353E+00 0.83865462E+03</pdfrwt>
<totfact> 0.89339531E+00</totfact>
</mgrwt>
</event>
<event>
 4    1  0.2514307E-008  0.1090981E+04  0.7818608E-02  0.9271165E-01
          1   -1    0    0  501    0  0.00000000000E+00  0.00000000000E+00  0.15529024850E+04  0.15529024850E+04  0.50400000000E-02 0. -1.
         -1   -1    0    0    0  501 -0.00000000000E+00 -0.00000000000E+00 -0.99753860974E+03  0.99753860976E+03  0.50400000000E-02 0.  1.
    8880023    1    1    2    0    0 -0.83987928938E+03  0.22590290569E+03 -0.47804476604E+03  0.11911197875E+04  0.65864270000E+03 0.  0.
    8880022    1    1    2    0    0  0.83987928938E+03 -0.22590290569E+03  0.10334086413E+04  0.13593213073E+04  0.15294330000E+03 0.  0.
<mgrwt>
<rscale>  0 0.10348139E+04</rscale>
<asrwt>0</asrwt>
<pdfrwt beam="1">  1        1 0.23890807E+00 0.10909810E+04</pdfrwt>
<pdfrwt beam="2">  1       -1 0.15346748E+00 0.10909810E+04</pdfrwt>
<totfact> 0.19597793E+00</totfact>
</mgrwt>
</event>
<event>
 4    1  0.2514307E-008  0.7265034E+03  0.7818608E-02  0.9901165E-01
         -1   -1    0    0    0  501 -0.00000000000E+00  0.00000000000E+00  0.72852474979E+03  0.72852474981E+03  0.50400000000E-02 0.  1.
          1   -1    0    0  501    0  0.00000000000E+00 -0.00000000000E+00 -0.52151334527E+03  0.52151334530E+03  0.50400000000E-02 0. -1.
    8880023    1    1    2    0    0 -0.25549408798E+03 -0.16946901485E+03  0.42716899573E+03  0.84278142668E+03  0.65864270000E+03 0.  0.
    8880022    1    1    2    0    0  0.25549408798E+03  0.16946901485E+03 -0.22015759122E+03  0.40725666842E+03  0.15294330000E+03 0.  0.
<mgrwt>
<rscale>  0 0.60204852E+03</rscale>
<asrwt>0</asrwt>
<pdfrwt beam="1">  1        1 0.80232822E-01 0.72650339E+03</pdfrwt>
<pdfrwt beam="2">  1       -1 0.11208073E+00 0.72650339E+03</pdfrwt>
<totfact> 0.31310312E+01</totfact>
</mgrwt>
</event>
<event>
 4    1  0.2514307E-008  0.7134327E+03  0.7818608E-02  0.9945468E-01
         -1   -1    0    0    0  501 -0.00000000000E+00  0.00000000000E+00  0.18231894390E+03  0.18231894397E+03  0.50400000000E-02 0.  1.
          1   -1    0    0  501    0  0.00000000000E+00 -0.00000000000E+00 -0.16092057100E+04  0.16092057100E+04  0.50400000000E-02 0. -1.
    8880023    1    1    2    0    0  0.17037902562E+01 -0.27417726331E+03 -0.69889389609E+03  0.99871865852E+03  0.65864270000E+03 0.  1.
    8880022    1    1    2    0    0 -0.17037902562E+01  0.27417726331E+03 -0.72799286998E+03  0.79280599542E+03  0.15294330000E+03 0.  0.
<mgrwt>
<rscale>  0 0.58107424E+03</rscale>
<asrwt>0</asrwt>
<pdfrwt beam="1">  1        1 0.24757010E+00 0.71343274E+03</pdfrwt>
<pdfrwt beam="2">  1       -1 0.28049069E-01 0.71343274E+03</pdfrwt>
<totfact> 0.65069771E+01</totfact>
</mgrwt>
</event>
<event>
 4    1  0.2514307E-008  0.9142843E+03  0.7818608E-02  0.9503479E-01
          1   -1    0    0  501    0  0.00000000000E+00  0.00000000000E+00  0.12796892303E+04  0.12796892303E+04  0.50400000000E-02 0. -1.
         -1   -1    0    0    0  501 -0.00000000000E+00 -0.00000000000E+00 -0.11310747858E+04  0.11310747858E+04  0.50400000000E-02 0.  1.
    8880023    1    1    2    0    0  0.63189926080E+03 -0.52998762935E+02 -0.82989464635E+03  0.12347634895E+04  0.65864270000E+03 0.  1.
    8880022    1    1    2    0    0 -0.63189926080E+03  0.52998762935E+02  0.97850909087E+03  0.11760005266E+04  0.15294330000E+03 0.  0.
<mgrwt>
<rscale>  0 0.84027807E+03</rscale>
<asrwt>0</asrwt>
<pdfrwt beam="1">  1        1 0.19687527E+00 0.91428428E+03</pdfrwt>
<pdfrwt beam="2">  1       -1 0.17401150E+00 0.91428428E+03</pdfrwt>
<totfact> 0.21869376E+00</totfact>
</mgrwt>
</event>
<event>
 4    1  0.2514307E-008  0.8572829E+03  0.7818608E-02  0.9598415E-01
         -1   -1    0    0    0  501 -0.00000000000E+00  0.00000000000E+00  0.47898900172E+03  0.47898900175E+03  0.50400000000E-02 0.  1.
          1   -1    0    0  501    0  0.00000000000E+00 -0.00000000000E+00 -0.33295325205E+04  0.33295325205E+04  0.50400000000E-02 0. -1.
    8880023    1    1    2    0    0  0.50148227423E+03  0.22279891085E+03  0.44041435660E+02  0.85841346702E+03  0.65864270000E+03 0.  1.
    8880022    1    1    2    0    0 -0.50148227423E+03 -0.22279891085E+03 -0.28945849544E+04  0.29501080552E+04  0.15294330000E+03 0.  0.
<mgrwt>
<rscale>  0 0.77401176E+03</rscale>
<asrwt>0</asrwt>
<pdfrwt beam="1">  1        1 0.51223576E+00 0.85728294E+03</pdfrwt>
<pdfrwt beam="2">  1       -1 0.73690618E-01 0.85728294E+03</pdfrwt>
<totfact> 0.66900059E-01</totfact>
</mgrwt>
</event>
<event>
 4    1  0.2514307E-008  0.1280833E+04  0.7818608E-02  0.9082291E-01
         -1   -1    0    0    0  501 -0.00000000000E+00  0.00000000000E+00  0.11365107163E+04  0.11365107163E+04  0.50400000000E-02 0.  1.
          1   -1    0    0  501    0  0.00000000000E+00 -0.00000000000E+00 -0.15507402981E+04  0.15507402981E+04  0.50400000000E-02 0. -1.
    8880023    1    1    2    0    0  0.10955806466E+04  0.80156021685E+02  0.36494265847E+03  0.13318090296E+04  0.65864270000E+03 0.  0.
    8880022    1    1    2    0    0 -0.10955806466E+04 -0.80156021685E+02 -0.77917224026E+03  0.13554419848E+04  0.15294330000E+03 0.  0.
<mgrwt>
<rscale>  0 0.12355560E+04</rscale>
<asrwt>0</asrwt>
<pdfrwt beam="1">  1        1 0.23857543E+00 0.12808326E+04</pdfrwt>
<pdfrwt beam="2">  1       -1 0.17484780E+00 0.12808326E+04</pdfrwt>
<totfact> 0.13285498E+00</totfact>
</mgrwt>
</event>
<event>
 4    1  0.2514307E-008  0.1107239E+04  0.7818608E-02  0.9253039E-01
          1   -1    0    0  501    0  0.00000000000E+00  0.00000000000E+00  0.13157969298E+04  0.13157969298E+04  0.50400000000E-02 0. -1.
         -1   -1    0    0    0  501 -0.00000000000E+00 -0.00000000000E+00 -0.10988202148E+04  0.10988202148E+04  0.50400000000E-02 0.  1.
    8880023    1    1    2    0    0 -0.34021089210E+03 -0.82244993966E+03 -0.54400721584E+03  0.12336617898E+04  0.65864270000E+03 0.  0.
    8880022    1    1    2    0    0  0.34021089210E+03  0.82244993966E+03  0.76098393084E+03  0.11809553549E+04  0.15294330000E+03 0.  0.
<mgrwt>
<rscale>  0 0.10522353E+04</rscale>
<asrwt>0</asrwt>
<pdfrwt beam="1">  1        1 0.20243030E+00 0.11072387E+04</pdfrwt>
<pdfrwt beam="2">  1       -1 0.16904926E+00 0.11072387E+04</pdfrwt>
<totfact> 0.21839325E+00</totfact>
</mgrwt>
</event>
<event>
 4    1  0.2514307E-008  0.1018701E+04  0.7818608E-02  0.9357490E-01
         -1   -1    0    0    0  501 -0.00000000000E+00  0.00000000000E+00  0.75753051767E+03  0.75753051768E+03  0.50400000000E-02 0.  1.
          1   -1    0    0  501    0  0.00000000000E+00 -0.00000000000E+00 -0.18809081537E+04  0.18809081537E+04  0.50400000000E-02 0. -1.
    8880023    1    1    2    0    0 -0.44486535477E+03  0.63720923540E+03  0.25371281428E+03  0.10498195997E+04  0.65864270000E+03 0.  0.
    8880022    1    1    2    0    0  0.44486535477E+03 -0.63720923540E+03 -0.13770904503E+04  0.15886190717E+04  0.15294330000E+03 0.  0.
<mgrwt>
<rscale>  0 0.95658189E+03</rscale>
<asrwt>0</asrwt>
<pdfrwt beam="1">  1        1 0.28937048E+00 0.10187006E+04</pdfrwt>
<pdfrwt beam="2">  1       -1 0.11654316E+00 0.10187006E+04</pdfrwt>
<totfact> 0.24024499E+00</totfact>
</mgrwt>
</event>
<event>
 4    1  0.2514307E-008  0.7127082E+03  0.7818608E-02  0.9948079E-01
         -1   -1    0    0    0  501 -0.00000000000E+00  0.00000000000E+00  0.21366906178E+03  0.21366906184E+03  0.50400000000E-02 0.  1.
          1   -1    0    0  501    0  0.00000000000E+00 -0.00000000000E+00 -0.19896671663E+04  0.19896671663E+04  0.50400000000E-02 0. -1.
    8880023    1    1    2    0    0 -0.22378155116E+02  0.27137058222E+03 -0.45417464622E+03  0.84511986739E+03  0.65864270000E+03 0.  0.
    8880022    1    1    2    0    0  0.22378155116E+02 -0.27137058222E+03 -0.13218234583E+04  0.13582163608E+04  0.15294330000E+03 0. -1.
<mgrwt>
<rscale>  0 0.57986722E+03</rscale>
<asrwt>0</asrwt>
<pdfrwt beam="1">  1        1 0.30610263E+00 0.71270820E+03</pdfrwt>
<pdfrwt beam="2">  1       -1 0.32872165E-01 0.71270820E+03</pdfrwt>
<totfact> 0.27429403E+01</totfact>
</mgrwt>
</event>
<event>
 4    1  0.2514307E-008  0.7377579E+03  0.7818608E-02  0.9866527E-01
          1   -1    0    0  501    0  0.00000000000E+00  0.00000000000E+00  0.57129565785E+03  0.57129565787E+03  0.50400000000E-02 0. -1.
         -1   -1    0    0    0  501 -0.00000000000E+00 -0.00000000000E+00 -0.68820818543E+03  0.68820818545E+03  0.50400000000E-02 0.  1.
    8880023    1    1    2    0    0 -0.31435474520E+03  0.10797051455E+03 -0.35931991400E+03  0.82060803354E+03  0.65864270000E+03 0.  0.
    8880022    1    1    2    0    0  0.31435474520E+03 -0.10797051455E+03  0.24240738642E+03  0.43889580979E+03  0.15294330000E+03 0.  0.
<mgrwt>
<rscale>  0 0.61911323E+03</rscale>
<asrwt>0</asrwt>
<pdfrwt beam="1">  1        1 0.87891640E-01 0.73775792E+03</pdfrwt>
<pdfrwt beam="2">  1       -1 0.10587818E+00 0.73775792E+03</pdfrwt>
<totfact> 0.31459274E+01</totfact>
</mgrwt>
</event>
<event>
 4    1  0.2781550E-008  0.7308200E+03  0.7818608E-02  0.9887543E-01
          1   -1    0    0  501    0  0.00000000000E+00  0.00000000000E+00  0.15824617518E+04  0.15824617518E+04  0.50400000000E-02 0. -1.
         -1   -1    0    0    0  501 -0.00000000000E+00 -0.00000000000E+00 -0.18301087808E+04  0.18301087808E+04  0.50400000000E-02 0.  1.
    8880023    1    1    2    0    0  0.13904650603E+03 -0.28452359866E+03 -0.17358279585E+04  0.18834002540E+04  0.65864270000E+03 0.  1.
    8880022    1    1    2    0    0 -0.13904650603E+03  0.28452359866E+03  0.14881809295E+04  0.15291702786E+04  0.15294330000E+03 0.  0.
<mgrwt>
<rscale>  0 0.60868824E+03</rscale>
<asrwt>0</asrwt>
<pdfrwt beam="1">  1        1 0.24345566E+00 0.73081996E+03</pdfrwt>
<pdfrwt beam="2">  1       -1 0.28155520E+00 0.73081996E+03</pdfrwt>
<totfact> 0.26826985E-01</totfact>
</mgrwt>
</event>
<event>
 4    1  0.2514307E-008  0.1164771E+04  0.7818608E-02  0.9192152E-01
          1   -1    0    0  501    0  0.00000000000E+00  0.00000000000E+00  0.15210193702E+04  0.15210193702E+04  0.50400000000E-02 0. -1.
         -1   -1    0    0    0  501 -0.00000000000E+00 -0.00000000000E+00 -0.30298201725E+04  0.30298201725E+04  0.50400000000E-02 0.  1.
    8880023    1    1    2    0    0 -0.53527677730E+03 -0.79772232919E+03 -0.27425961697E+04  0.29796855705E+04  0.65864270000E+03 0.  1.
    8880022    1    1    2    0    0  0.53527677730E+03  0.79772232919E+03  0.12337953673E+04  0.15711539722E+04  0.15294330000E+03 0.  0.
<mgrwt>
<rscale>  0 0.11134805E+04</rscale>
<asrwt>0</asrwt>
<pdfrwt beam="1">  1        1 0.23400298E+00 0.11647714E+04</pdfrwt>
<pdfrwt beam="2">  1       -1 0.46612618E+00 0.11647714E+04</pdfrwt>
<totfact> 0.15790401E-02</totfact>
</mgrwt>
</event>
<event>
 4    1  0.2514307E-008  0.7114036E+03  0.7818608E-02  0.9952825E-01
         -1   -1    0    0    0  501 -0.00000000000E+00  0.00000000000E+00  0.68638554100E+03  0.68638554102E+03  0.50400000000E-02 0.  1.
          1   -1    0    0  501    0  0.00000000000E+00 -0.00000000000E+00 -0.82307275948E+03  0.82307275950E+03  0.50400000000E-02 0. -1.
    8880023    1    1    2    0    0 -0.14436584543E+03 -0.22681136859E+03  0.45312741839E+03  0.84345690928E+03  0.65864270000E+03 0.  1.
    8880022    1    1    2    0    0  0.14436584543E+03  0.22681136859E+03 -0.58981463688E+03  0.66600139124E+03  0.15294330000E+03 0.  0.
<mgrwt>
<rscale>  0 0.57768054E+03</rscale>
<asrwt>0</asrwt>
<pdfrwt beam="1">  1        1 0.12662658E+00 0.71140361E+03</pdfrwt>
<pdfrwt beam="2">  1       -1 0.10559778E+00 0.71140361E+03</pdfrwt>
<totfact> 0.18324722E+01</totfact>
</mgrwt>
</event>
<event>
 4    1  0.2514307E-008  0.9049292E+03  0.7818608E-02  0.9518165E-01
          1   -1    0    0  501    0  0.00000000000E+00  0.00000000000E+00  0.90438665295E+03  0.90438665296E+03  0.50400000000E-02 0. -1.
         -1   -1    0    0    0  501 -0.00000000000E+00 -0.00000000000E+00 -0.11732981478E+04  0.11732981478E+04  0.50400000000E-02 0.  1.
    8880023    1    1    2    0    0 -0.58974713680E+03 -0.19309320046E+03 -0.82946932064E+03  0.12275651631E+04  0.65864270000E+03 0.  0.
    8880022    1    1    2    0    0  0.58974713680E+03  0.19309320046E+03  0.56055782576E+03  0.85011963774E+03  0.15294330000E+03 0.  0.
<mgrwt>
<rscale>  0 0.82957772E+03</rscale>
<asrwt>0</asrwt>
<pdfrwt beam="1">  1        1 0.13913641E+00 0.90492921E+03</pdfrwt>
<pdfrwt beam="2">  1       -1 0.18050741E+00 0.90492921E+03</pdfrwt>
<totfact> 0.37804970E+00</totfact>
</mgrwt>
</event>
<event>
 4    1  0.2514307E-008  0.8720217E+03  0.7818608E-02  0.9572527E-01
          1   -1    0    0  501    0  0.00000000000E+00  0.00000000000E+00  0.12921581242E+04  0.12921581242E+04  0.50400000000E-02 0. -1.
         -1   -1    0    0    0  501 -0.00000000000E+00 -0.00000000000E+00 -0.42615931817E+03  0.42615931820E+03  0.50400000000E-02 0.  1.
    8880023    1    1    2    0    0  0.44954684435E+03 -0.35287284873E+03  0.37392302317E+03  0.94880991044E+03  0.65864270000E+03 0.  0.
    8880022    1    1    2    0    0 -0.44954684435E+03  0.35287284873E+03  0.49207578285E+03  0.76950753194E+03  0.15294330000E+03 0.  0.
<mgrwt>
<rscale>  0 0.79141536E+03</rscale>
<asrwt>0</asrwt>
<pdfrwt beam="1">  1        1 0.19879356E+00 0.87202168E+03</pdfrwt>
<pdfrwt beam="2">  1       -1 0.65562973E-01 0.87202168E+03</pdfrwt>
<totfact> 0.21978471E+01</totfact>
</mgrwt>
</event>
<event>
 4    1  0.2514307E-008  0.7068542E+03  0.7818608E-02  0.9969874E-01
         -1   -1    0    0    0  501 -0.00000000000E+00  0.00000000000E+00  0.19050282721E+03  0.19050282727E+03  0.50400000000E-02 0.  1.
          1   -1    0    0  501    0  0.00000000000E+00 -0.00000000000E+00 -0.15206803134E+04  0.15206803134E+04  0.50400000000E-02 0. -1.
    8880023    1    1    2    0    0 -0.25652352308E+03  0.53198309336E+01 -0.61806731666E+03  0.93896221046E+03  0.65864270000E+03 0.  0.
    8880022    1    1    2    0    0  0.25652352308E+03 -0.53198309336E+01 -0.71211016955E+03  0.77222093023E+03  0.15294330000E+03 0.  0.
<mgrwt>
<rscale>  0 0.56991193E+03</rscale>
<asrwt>0</asrwt>
<pdfrwt beam="1">  1        1 0.23395081E+00 0.70685418E+03</pdfrwt>
<pdfrwt beam="2">  1       -1 0.29308128E-01 0.70685418E+03</pdfrwt>
<totfact> 0.69307341E+01</totfact>
</mgrwt>
</event>
<event>
 4    1  0.2514307E-008  0.1532672E+04  0.7818608E-02  0.8886903E-01
          1   -1    0    0  501    0  0.00000000000E+00  0.00000000000E+00  0.20287082653E+04  0.20287082653E+04  0.50400000000E-02 0. -1.
         -1   -1    0    0    0  501 -0.00000000000E+00 -0.00000000000E+00 -0.11281495897E+04  0.11281495897E+04  0.50400000000E-02 0.  1.
    8880023    1    1    2    0    0  0.39448535783E+03  0.13265191666E+04  0.67167145593E+02  0.15341425712E+04  0.65864270000E+03 0.  0.
    8880022    1    1    2    0    0 -0.39448535783E+03 -0.13265191666E+04  0.83339153000E+03  0.16227152838E+04  0.15294330000E+03 0.  0.
<mgrwt>
<rscale>  0 0.14963205E+04</rscale>
<asrwt>0</asrwt>
<pdfrwt beam="1">  1        1 0.31210896E+00 0.15326715E+04</pdfrwt>
<pdfrwt beam="2">  1       -1 0.17356148E+00 0.15326715E+04</pdfrwt>
<totfact> 0.62332623E-01</totfact>
</mgrwt>
</event>
<event>
 4    1  0.2514307E-008  0.1309244E+04  0.7818608E-02  0.9057618E-01
         -1   -1    0    0    0  501 -0.00000000000E+00  0.00000000000E+00  0.13695233504E+04  0.13695233504E+04  0.50400000000E-02 0.  1.
          1   -1    0    0  501    0  0.00000000000E+00 -0.00000000000E+00 -0.16785553744E+04  0.16785553744E+04  0.50400000000E-02 0. -1.
    8880023    1    1    2    0    0 -0.10273366348E+04  0.47422471623E+03  0.73454568008E+03  0.15012252346E+04  0.65864270000E+03 0.  0.
    8880022    1    1    2    0    0  0.10273366348E+04 -0.47422471623E+03 -0.10435777041E+04  0.15468534902E+04  0.15294330000E+03 0.  0.
<mgrwt>
<rscale>  0 0.12652103E+04</rscale>
<asrwt>0</asrwt>
<pdfrwt beam="1">  1        1 0.25823929E+00 0.13092440E+04</pdfrwt>
<pdfrwt beam="2">  1       -1 0.21069590E+00 0.13092440E+04</pdfrwt>
<totfact> 0.60599124E-01</totfact>
</mgrwt>
</event>
<event>
 4    1  0.2514307E-008  0.1106895E+04  0.7818608E-02  0.9253418E-01
          1   -1    0    0  501    0  0.00000000000E+00  0.00000000000E+00  0.21348273793E+04  0.21348273793E+04  0.50400000000E-02 0. -1.
         -1   -1    0    0    0  501 -0.00000000000E+00 -0.00000000000E+00 -0.62224341375E+03  0.62224341377E+03  0.50400000000E-02 0.  1.
    8880023    1    1    2    0    0 -0.49932270921E+02  0.88820812589E+03  0.14203249243E+03  0.11159705828E+04  0.65864270000E+03 0.  0.
    8880022    1    1    2    0    0  0.49932270921E+02 -0.88820812589E+03  0.13705514731E+04  0.16411002102E+04  0.15294330000E+03 0.  0.
<mgrwt>
<rscale>  0 0.10518678E+04</rscale>
<asrwt>0</asrwt>
<pdfrwt beam="1">  1        1 0.32843498E+00 0.11068953E+04</pdfrwt>
<pdfrwt beam="2">  1       -1 0.95729757E-01 0.11068953E+04</pdfrwt>
<totfact> 0.25363392E+00</totfact>
</mgrwt>
</event>
<event>
 4    1  0.2514307E-008  0.7058129E+03  0.7818608E-02  0.9973891E-01
          1   -1    0    0  501    0  0.00000000000E+00  0.00000000000E+00  0.47746010957E+03  0.47746010960E+03  0.50400000000E-02 0. -1.
         -1   -1    0    0    0  501 -0.00000000000E+00 -0.00000000000E+00 -0.74430253490E+03  0.74430253491E+03  0.50400000000E-02 0.  1.
    8880023    1    1    2    0    0  0.12656662790E+03 -0.21986936613E+03 -0.48282338578E+03  0.85515511902E+03  0.65864270000E+03 0.  1.
    8880022    1    1    2    0    0 -0.12656662790E+03  0.21986936613E+03  0.21598096046E+03  0.36660752550E+03  0.15294330000E+03 0.  0.
<mgrwt>
<rscale>  0 0.56810044E+03</rscale>
<asrwt>0</asrwt>
<pdfrwt beam="1">  1        1 0.73455402E-01 0.70581290E+03</pdfrwt>
<pdfrwt beam="2">  1       -1 0.11450808E+00 0.70581290E+03</pdfrwt>
<totfact> 0.33656674E+01</totfact>
</mgrwt>
</event>
<event>
 4    1  0.2514307E-008  0.7387526E+03  0.7818608E-02  0.9863596E-01
         -1   -1    0    0    0  501 -0.00000000000E+00  0.00000000000E+00  0.58891641063E+03  0.58891641065E+03  0.50400000000E-02 0.  1.
          1   -1    0    0  501    0  0.00000000000E+00 -0.00000000000E+00 -0.98211004317E+03  0.98211004318E+03  0.50400000000E-02 0. -1.
    8880023    1    1    2    0    0 -0.32100170798E+03  0.94356183174E+02  0.29116095202E+03  0.79405924973E+03  0.65864270000E+03 0.  1.
    8880022    1    1    2    0    0  0.32100170798E+03 -0.94356183174E+02 -0.68435458456E+03  0.77696720411E+03  0.15294330000E+03 0.  0.
<mgrwt>
<rscale>  0 0.62058499E+03</rscale>
<asrwt>0</asrwt>
<pdfrwt beam="1">  1        1 0.15109385E+00 0.73875259E+03</pdfrwt>
<pdfrwt beam="2">  1       -1 0.90602525E-01 0.73875259E+03</pdfrwt>
<totfact> 0.19171377E+01</totfact>
</mgrwt>
</event>
<event>
 4    1  0.2514307E-008  0.8118846E+03  0.7818608E-02  0.9685665E-01
         -1   -1    0    0    0  501 -0.00000000000E+00  0.00000000000E+00  0.92555255022E+03  0.92555255024E+03  0.50400000000E-02 0.  1.
          1   -1    0    0  501    0  0.00000000000E+00 -0.00000000000E+00 -0.70821554372E+03  0.70821554373E+03  0.50400000000E-02 0. -1.
    8880023    1    1    2    0    0 -0.37916164040E+03 -0.28562697406E+03  0.59634235275E+03  0.10073632541E+04  0.65864270000E+03 0.  1.
    8880022    1    1    2    0    0  0.37916164040E+03  0.28562697406E+03 -0.37900534624E+03  0.62640483982E+03  0.15294330000E+03 0.  0.
<mgrwt>
<rscale>  0 0.71876756E+03</rscale>
<asrwt>0</asrwt>
<pdfrwt beam="1">  1        1 0.10895624E+00 0.81188455E+03</pdfrwt>
<pdfrwt beam="2">  1       -1 0.14239270E+00 0.81188455E+03</pdfrwt>
<totfact> 0.10969451E+01</totfact>
</mgrwt>
</event>
<event>
 4    1  0.2514307E-008  0.1020270E+04  0.7818608E-02  0.9355506E-01
         -1   -1    0    0    0  501 -0.00000000000E+00  0.00000000000E+00  0.51494757973E+03  0.51494757975E+03  0.50400000000E-02 0.  1.
          1   -1    0    0  501    0  0.00000000000E+00 -0.00000000000E+00 -0.19657903824E+04  0.19657903824E+04  0.50400000000E-02 0. -1.
    8880023    1    1    2    0    0 -0.75359450244E+03  0.19808133527E+03 -0.26592384106E+03  0.10543560049E+04  0.65864270000E+03 0.  0.
    8880022    1    1    2    0    0  0.75359450244E+03 -0.19808133527E+03 -0.11849189616E+04  0.14263819573E+04  0.15294330000E+03 0.  0.
<mgrwt>
<rscale>  0 0.95829630E+03</rscale>
<asrwt>0</asrwt>
<pdfrwt beam="1">  1        1 0.30242929E+00 0.10202701E+04</pdfrwt>
<pdfrwt beam="2">  1       -1 0.79222706E-01 0.10202701E+04</pdfrwt>
<totfact> 0.50485547E+00</totfact>
</mgrwt>
</event>
<event>
 4    1  0.2514307E-008  0.1207806E+04  0.7818608E-02  0.9149572E-01
          1   -1    0    0  501    0  0.00000000000E+00  0.00000000000E+00  0.16858799879E+04  0.16858799879E+04  0.50400000000E-02 0. -1.
         -1   -1    0    0    0  501 -0.00000000000E+00 -0.00000000000E+00 -0.82956777345E+03  0.82956777346E+03  0.50400000000E-02 0.  1.
    8880023    1    1    2    0    0 -0.88555919744E+03 -0.49068294896E+03  0.44258381395E+02  0.12086165062E+04  0.65864270000E+03 0.  0.
    8880022    1    1    2    0    0  0.88555919744E+03  0.49068294896E+03  0.81205383303E+03  0.13068312551E+04  0.15294330000E+03 0.  0.
<mgrwt>
<rscale>  0 0.11589442E+04</rscale>
<asrwt>0</asrwt>
<pdfrwt beam="1">  1        1 0.25936615E+00 0.12078059E+04</pdfrwt>
<pdfrwt beam="2">  1       -1 0.12762581E+00 0.12078059E+04</pdfrwt>
<totfact> 0.25417745E+00</totfact>
</mgrwt>
</event>
<event>
 4    1  0.2514307E-008  0.7378661E+03  0.7818608E-02  0.9866207E-01
          1   -1    0    0  501    0  0.00000000000E+00  0.00000000000E+00  0.27886224448E+04  0.27886224448E+04  0.50400000000E-02 0. -1.
         -1   -1    0    0    0  501 -0.00000000000E+00 -0.00000000000E+00 -0.12104352137E+03  0.12104352147E+03  0.50400000000E-02 0.  1.
    8880023    1    1    2    0    0 -0.21391920859E+03  0.25470509924E+03  0.13091607999E+04  0.15027801974E+04  0.65864270000E+03 0.  1.
    8880022    1    1    2    0    0  0.21391920859E+03 -0.25470509924E+03  0.13584181236E+04  0.14068857690E+04  0.15294330000E+03 0.  0.
<mgrwt>
<rscale>  0 0.61927350E+03</rscale>
<asrwt>0</asrwt>
<pdfrwt beam="1">  1        1 0.42901881E+00 0.73786606E+03</pdfrwt>
<pdfrwt beam="2">  1       -1 0.18622081E-01 0.73786606E+03</pdfrwt>
<totfact> 0.20637612E+01</totfact>
</mgrwt>
</event>
<event>
 4    1  0.2514307E-008  0.7512004E+03  0.7818608E-02  0.9828446E-01
         -1   -1    0    0    0  501 -0.00000000000E+00  0.00000000000E+00  0.81224042237E+03  0.81224042239E+03  0.50400000000E-02 0.  1.
          1   -1    0    0  501    0  0.00000000000E+00 -0.00000000000E+00 -0.86073111193E+03  0.86073111194E+03  0.50400000000E-02 0. -1.
    8880023    1    1    2    0    0  0.18785380708E+03  0.30854952330E+03  0.56833801215E+03  0.94197142392E+03  0.65864270000E+03 0.  1.
    8880022    1    1    2    0    0 -0.18785380708E+03 -0.30854952330E+03 -0.61682870170E+03  0.73100011041E+03  0.15294330000E+03 0.  0.
<mgrwt>
<rscale>  0 0.63858083E+03</rscale>
<asrwt>0</asrwt>
<pdfrwt beam="1">  1        1 0.13242017E+00 0.75120042E+03</pdfrwt>
<pdfrwt beam="2">  1       -1 0.12496006E+00 0.75120042E+03</pdfrwt>
<totfact> 0.11323122E+01</totfact>
</mgrwt>
</event>
<event>
 4    1  0.2514307E-008  0.1031166E+04  0.7818608E-02  0.9341873E-01
          1   -1    0    0  501    0  0.00000000000E+00  0.00000000000E+00  0.13612550583E+04  0.13612550583E+04  0.50400000000E-02 0. -1.
         -1   -1    0    0    0  501 -0.00000000000E+00 -0.00000000000E+00 -0.80031860139E+03  0.80031860141E+03  0.50400000000E-02 0.  1.
    8880023    1    1    2    0    0  0.10113014007E+03 -0.78693464052E+03 -0.20145599545E+03  0.10506608197E+04  0.65864270000E+03 0.  0.
    8880022    1    1    2    0    0 -0.10113014007E+03  0.78693464052E+03  0.76239245235E+03  0.11109128400E+04  0.15294330000E+03 0.  0.
<mgrwt>
<rscale>  0 0.97017724E+03</rscale>
<asrwt>0</asrwt>
<pdfrwt beam="1">  1        1 0.20942385E+00 0.10311662E+04</pdfrwt>
<pdfrwt beam="2">  1       -1 0.12312594E+00 0.10311662E+04</pdfrwt>
<totfact> 0.47567527E+00</totfact>
</mgrwt>
</event>
<event>
 4    1  0.2514307E-008  0.8813233E+03  0.7818608E-02  0.9556704E-01
          1   -1    0    0  501    0  0.00000000000E+00  0.00000000000E+00  0.10845188759E+04  0.10845188759E+04  0.50400000000E-02 0. -1.
         -1   -1    0    0    0  501 -0.00000000000E+00 -0.00000000000E+00 -0.77340739958E+03  0.77340739959E+03  0.50400000000E-02 0.  1.
    8880023    1    1    2    0    0 -0.37287107657E+03 -0.45153933657E+03 -0.36195703956E+03  0.95275585381E+03  0.65864270000E+03 0.  0.
    8880022    1    1    2    0    0  0.37287107657E+03  0.45153933657E+03  0.67306851586E+03  0.90517042167E+03  0.15294330000E+03 0.  0.
<mgrwt>
<rscale>  0 0.80229278E+03</rscale>
<asrwt>0</asrwt>
<pdfrwt beam="1">  1        1 0.16684906E+00 0.88132333E+03</pdfrwt>
<pdfrwt beam="2">  1       -1 0.11898575E+00 0.88132333E+03</pdfrwt>
<totfact> 0.83679518E+00</totfact>
</mgrwt>
</event>
<event>
 4    1  0.2514307E-008  0.7214427E+03  0.7818608E-02  0.9917734E-01
         -1   -1    0    0    0  501 -0.00000000000E+00  0.00000000000E+00  0.19444154107E+03  0.19444154113E+03  0.50400000000E-02 0.  1.
          1   -1    0    0  501    0  0.00000000000E+00 -0.00000000000E+00 -0.15654912253E+04  0.15654912253E+04  0.50400000000E-02 0. -1.
    8880023    1    1    2    0    0  0.20086751385E+03 -0.21522453124E+03 -0.67099866975E+03  0.98525061687E+03  0.65864270000E+03 0.  1.
    8880022    1    1    2    0    0 -0.20086751385E+03  0.21522453124E+03 -0.70005101447E+03  0.77468214956E+03  0.15294330000E+03 0.  0.
<mgrwt>
<rscale>  0 0.59409455E+03</rscale>
<asrwt>0</asrwt>
<pdfrwt beam="1">  1        1 0.24084480E+00 0.72144270E+03</pdfrwt>
<pdfrwt beam="2">  1       -1 0.29914084E-01 0.72144270E+03</pdfrwt>
<totfact> 0.62248983E+01</totfact>
</mgrwt>
</event>
<event>
 4    1  0.2857774E-008  0.8567561E+03  0.7818608E-02  0.9599360E-01
         -1   -1    0    0    0  501 -0.00000000000E+00  0.00000000000E+00  0.19852931450E+04  0.19852931450E+04  0.50400000000E-02 0.  1.
          1   -1    0    0  501    0  0.00000000000E+00 -0.00000000000E+00 -0.18808843988E+04  0.18808843988E+04  0.50400000000E-02 0. -1.
    8880023    1    1    2    0    0 -0.54738342194E+03  0.24336510868E+02  0.18454105318E+04  0.20345935991E+04  0.65864270000E+03 0.  0.
    8880022    1    1    2    0    0  0.54738342194E+03 -0.24336510868E+02 -0.17410017855E+04  0.18315839447E+04  0.15294330000E+03 0.  0.
<mgrwt>
<rscale>  0 0.77338561E+03</rscale>
<asrwt>0</asrwt>
<pdfrwt beam="1">  1        1 0.28936683E+00 0.85675614E+03</pdfrwt>
<pdfrwt beam="2">  1       -1 0.30542971E+00 0.85675614E+03</pdfrwt>
<totfact> 0.11520708E-01</totfact>
</mgrwt>
</event>
<event>
 4    1  0.2514307E-008  0.8666247E+03  0.7818608E-02  0.9581886E-01
         -1   -1    0    0    0  501 -0.00000000000E+00  0.00000000000E+00  0.44505581203E+03  0.44505581206E+03  0.50400000000E-02 0.  1.
          1   -1    0    0  501    0  0.00000000000E+00 -0.00000000000E+00 -0.12843184424E+04  0.12843184424E+04  0.50400000000E-02 0. -1.
    8880023    1    1    2    0    0 -0.27222151692E+03  0.49307557968E+03 -0.25455427296E+03  0.90323649489E+03  0.65864270000E+03 0.  0.
    8880022    1    1    2    0    0  0.27222151692E+03 -0.49307557968E+03 -0.58470835741E+03  0.82613775958E+03  0.15294330000E+03 0.  0.
<mgrwt>
<rscale>  0 0.78506751E+03</rscale>
<asrwt>0</asrwt>
<pdfrwt beam="1">  1        1 0.19758745E+00 0.86662465E+03</pdfrwt>
<pdfrwt beam="2">  1       -1 0.68470126E-01 0.86662465E+03</pdfrwt>
<totfact> 0.20398143E+01</totfact>
</mgrwt>
</event>
<event>
 4    1  0.2514307E-008  0.9324714E+03  0.7818608E-02  0.9475796E-01
          1   -1    0    0  501    0  0.00000000000E+00  0.00000000000E+00  0.37296612607E+04  0.37296612607E+04  0.50400000000E-02 0. -1.
         -1   -1    0    0    0  501 -0.00000000000E+00 -0.00000000000E+00 -0.24276842156E+03  0.24276842161E+03  0.50400000000E-02 0.  1.
    8880023    1    1    2    0    0  0.49328655872E+02 -0.65822436727E+03  0.89155618463E+03  0.12901066896E+04  0.65864270000E+03 0.  0.
    8880022    1    1    2    0    0 -0.49328655872E+02  0.65822436727E+03  0.25953366545E+04  0.26823229927E+04  0.15294330000E+03 0.  0.
<mgrwt>
<rscale>  0 0.86092076E+03</rscale>
<asrwt>0</asrwt>
<pdfrwt beam="1">  1        1 0.57379400E+00 0.93247136E+03</pdfrwt>
<pdfrwt beam="2">  1       -1 0.37348991E-01 0.93247136E+03</pdfrwt>
<totfact> 0.11896347E+00</totfact>
</mgrwt>
</event>
<event>
 4    1  0.2514307E-008  0.6782433E+03  0.7818608E-02  0.1010335E+00
         -1   -1    0    0    0  501 -0.00000000000E+00  0.00000000000E+00  0.14552736613E+04  0.14552736613E+04  0.50400000000E-02 0.  1.
          1   -1    0    0  501    0  0.00000000000E+00 -0.00000000000E+00 -0.25033468076E+03  0.25033468081E+03  0.50400000000E-02 0. -1.
    8880023    1    1    2    0    0 -0.16183323349E+03 -0.37094954467E+01  0.12977847635E+04  0.14643289434E+04  0.65864270000E+03 0.  1.
    8880022    1    1    2    0    0  0.16183323349E+03  0.37094954467E+01 -0.92845782955E+02  0.24127939872E+03  0.15294330000E+03 0.  0.
<mgrwt>
<rscale>  0 0.51341590E+03</rscale>
<asrwt>0</asrwt>
<pdfrwt beam="1">  1        1 0.38513029E-01 0.67824329E+03</pdfrwt>
<pdfrwt beam="2">  1       -1 0.22388825E+00 0.67824329E+03</pdfrwt>
<totfact> 0.11970871E+01</totfact>
</mgrwt>
</event>
<event>
 4    1  0.2514307E-008  0.7248750E+03  0.7818608E-02  0.9906423E-01
         -1   -1    0    0    0  501 -0.00000000000E+00  0.00000000000E+00  0.93461525975E+03  0.93461525976E+03  0.50400000000E-02 0.  1.
          1   -1    0    0  501    0  0.00000000000E+00 -0.00000000000E+00 -0.18947962977E+04  0.18947962977E+04  0.50400000000E-02 0. -1.
    8880023    1    1    2    0    0  0.46533420211E+01 -0.30267448497E+03  0.77513572530E+03  0.10612629723E+04  0.65864270000E+03 0.  1.
    8880022    1    1    2    0    0 -0.46533420211E+01  0.30267448497E+03 -0.17353167632E+04  0.17681485852E+04  0.15294330000E+03 0.  0.
<mgrwt>
<rscale>  0 0.59950999E+03</rscale>
<asrwt>0</asrwt>
<pdfrwt beam="1">  1        1 0.29150712E+00 0.72487496E+03</pdfrwt>
<pdfrwt beam="2">  1       -1 0.14378696E+00 0.72487496E+03</pdfrwt>
<totfact> 0.14548745E+00</totfact>
</mgrwt>
</event>
<event>
 4    1  0.2514307E-008  0.7907630E+03  0.7818608E-02  0.9731136E-01
         -1   -1    0    0    0  501 -0.00000000000E+00  0.00000000000E+00  0.19992480461E+04  0.19992480461E+04  0.50400000000E-02 0.  1.
          1   -1    0    0  501    0  0.00000000000E+00 -0.00000000000E+00 -0.28826138330E+03  0.28826138335E+03  0.50400000000E-02 0. -1.
    8880023    1    1    2    0    0  0.43447756247E+03 -0.52202780504E+02  0.16371292603E+04  0.18181029409E+04  0.65864270000E+03 0.  1.
    8880022    1    1    2    0    0 -0.43447756247E+03  0.52202780504E+02  0.73857402521E+02  0.46940648856E+03  0.15294330000E+03 0.  0.
<mgrwt>
<rscale>  0 0.69192839E+03</rscale>
<asrwt>0</asrwt>
<pdfrwt beam="1">  1        1 0.44347904E-01 0.79076298E+03</pdfrwt>
<pdfrwt beam="2">  1       -1 0.30757663E+00 0.79076298E+03</pdfrwt>
<totfact> 0.28418201E+00</totfact>
</mgrwt>
</event>
<event>
 4    1  0.2514307E-008  0.1046612E+04  0.7818608E-02  0.9322966E-01
         -1   -1    0    0    0  501 -0.00000000000E+00  0.00000000000E+00  0.13722958199E+04  0.13722958199E+04  0.50400000000E-02 0.  1.
          1   -1    0    0  501    0  0.00000000000E+00 -0.00000000000E+00 -0.15593585627E+04  0.15593585627E+04  0.50400000000E-02 0. -1.
    8880023    1    1    2    0    0 -0.40178394849E+03 -0.70721669055E+03  0.10243757344E+04  0.14644936464E+04  0.65864270000E+03 0.  1.
    8880022    1    1    2    0    0  0.40178394849E+03  0.70721669055E+03 -0.12114384773E+04  0.14671607362E+04  0.15294330000E+03 0.  0.
<mgrwt>
<rscale>  0 0.98695810E+03</rscale>
<asrwt>0</asrwt>
<pdfrwt beam="1">  1        1 0.23990132E+00 0.10466117E+04</pdfrwt>
<pdfrwt beam="2">  1       -1 0.21112243E+00 0.10466117E+04</pdfrwt>
<totfact> 0.75267516E-01</totfact>
</mgrwt>
</event>
<event>
 4    1  0.2514307E-008  0.8925315E+03  0.7818608E-02  0.9538129E-01
          1   -1    0    0  501    0  0.00000000000E+00  0.00000000000E+00  0.71681455347E+03  0.71681455349E+03  0.50400000000E-02 0. -1.
         -1   -1    0    0    0  501 -0.00000000000E+00 -0.00000000000E+00 -0.91615739429E+03  0.91615739430E+03  0.50400000000E-02 0.  1.
    8880023    1    1    2    0    0 -0.17712399687E+03 -0.57569904481E+03 -0.40259935302E+03  0.97913162842E+03  0.65864270000E+03 0.  1.
    8880022    1    1    2    0    0  0.17712399687E+03  0.57569904481E+03  0.20325651220E+03  0.65384031937E+03  0.15294330000E+03 0. -1.
<mgrwt>
<rscale>  0 0.81530171E+03</rscale>
<asrwt>0</asrwt>
<pdfrwt beam="1">  1        1 0.11027916E+00 0.89253152E+03</pdfrwt>
<pdfrwt beam="2">  1       -1 0.14094729E+00 0.89253152E+03</pdfrwt>
<totfact> 0.10961723E+01</totfact>
</mgrwt>
</event>
<event>
 4    1  0.2514307E-008  0.1278697E+04  0.7818608E-02  0.9084178E-01
          1   -1    0    0  501    0  0.00000000000E+00  0.00000000000E+00  0.25551143017E+04  0.25551143017E+04  0.50400000000E-02 0. -1.
         -1   -1    0    0    0  501 -0.00000000000E+00 -0.00000000000E+00 -0.57488352407E+03  0.57488352409E+03  0.50400000000E-02 0.  1.
    8880023    1    1    2    0    0  0.39139456137E+03 -0.10237505852E+04  0.78171443848E+03  0.14987136594E+04  0.65864270000E+03 0.  0.
    8880022    1    1    2    0    0 -0.39139456137E+03  0.10237505852E+04  0.11985163392E+04  0.16312841664E+04  0.15294330000E+03 0.  0.
<mgrwt>
<rscale>  0 0.12333235E+04</rscale>
<asrwt>0</asrwt>
<pdfrwt beam="1">  1        1 0.39309452E+00 0.12786967E+04</pdfrwt>
<pdfrwt beam="2">  1       -1 0.88443617E-01 0.12786967E+04</pdfrwt>
<totfact> 0.15292348E+00</totfact>
</mgrwt>
</event>
<event>
 4    1  0.2514307E-008  0.9466853E+03  0.7818608E-02  0.9454899E-01
          1   -1    0    0  501    0  0.00000000000E+00  0.00000000000E+00  0.16085534871E+04  0.16085534871E+04  0.50400000000E-02 0. -1.
         -1   -1    0    0    0  501 -0.00000000000E+00 -0.00000000000E+00 -0.69565459735E+03  0.69565459737E+03  0.50400000000E-02 0.  1.
    8880023    1    1    2    0    0  0.59986777917E+03  0.32025214619E+03 -0.22200401169E+03  0.97236761418E+03  0.65864270000E+03 0.  0.
    8880022    1    1    2    0    0 -0.59986777917E+03 -0.32025214619E+03  0.11349029014E+04  0.13318404703E+04  0.15294330000E+03 0.  0.
<mgrwt>
<rscale>  0 0.87692163E+03</rscale>
<asrwt>0</asrwt>
<pdfrwt beam="1">  1        1 0.24746976E+00 0.94668527E+03</pdfrwt>
<pdfrwt beam="2">  1       -1 0.10702379E+00 0.94668527E+03</pdfrwt>
<totfact> 0.45427358E+00</totfact>
</mgrwt>
</event>
<event>
 4    1  0.2514307E-008  0.7288110E+03  0.7818608E-02  0.9893827E-01
          1   -1    0    0  501    0  0.00000000000E+00  0.00000000000E+00  0.20748646628E+04  0.20748646628E+04  0.50400000000E-02 0. -1.
         -1   -1    0    0    0  501 -0.00000000000E+00 -0.00000000000E+00 -0.10339995577E+04  0.10339995577E+04  0.50400000000E-02 0.  1.
    8880023    1    1    2    0    0  0.30872641295E+03 -0.45202353552E+02 -0.88809274294E+03  0.11488577706E+04  0.65864270000E+03 0.  1.
    8880022    1    1    2    0    0 -0.30872641295E+03  0.45202353552E+02  0.19289578481E+04  0.19600064498E+04  0.15294330000E+03 0.  0.
<mgrwt>
<rscale>  0 0.60561369E+03</rscale>
<asrwt>0</asrwt>
<pdfrwt beam="1">  1        1 0.31920995E+00 0.72881099E+03</pdfrwt>
<pdfrwt beam="2">  1       -1 0.15907685E+00 0.72881099E+03</pdfrwt>
<totfact> 0.83924484E-01</totfact>
</mgrwt>
</event>
<event>
 4    1  0.2514307E-008  0.1048225E+04  0.7818608E-02  0.9321018E-01
         -1   -1    0    0    0  501 -0.00000000000E+00  0.00000000000E+00  0.10574846385E+04  0.10574846385E+04  0.50400000000E-02 0.  1.
          1   -1    0    0  501    0  0.00000000000E+00 -0.00000000000E+00 -0.10509452709E+04  0.10509452709E+04  0.50400000000E-02 0. -1.
    8880023    1    1    2    0    0  0.75324935917E+03  0.31237896679E+03  0.48029720994E+03  0.11530224768E+04  0.65864270000E+03 0.  1.
    8880022    1    1    2    0    0 -0.75324935917E+03 -0.31237896679E+03 -0.47375784232E+03  0.95540743254E+03  0.15294330000E+03 0.  0.
<mgrwt>
<rscale>  0 0.98870688E+03</rscale>
<asrwt>0</asrwt>
<pdfrwt beam="1">  1        1 0.16168389E+00 0.10482249E+04</pdfrwt>
<pdfrwt beam="2">  1       -1 0.16268994E+00 0.10482249E+04</pdfrwt>
<totfact> 0.38427534E+00</totfact>
</mgrwt>
</event>
<event>
 4    1  0.2514307E-008  0.6624991E+03  0.7818608E-02  0.1021731E+00
         -1   -1    0    0    0  501 -0.00000000000E+00  0.00000000000E+00  0.18208981149E+04  0.18208981149E+04  0.50400000000E-02 0.  1.
          1   -1    0    0  501    0  0.00000000000E+00 -0.00000000000E+00 -0.22117592300E+03  0.22117592306E+03  0.50400000000E-02 0. -1.
    8880023    1    1    2    0    0  0.35360497205E+02  0.62004206041E+02  0.17144454362E+04  0.18379957144E+04  0.65864270000E+03 0.  1.
    8880022    1    1    2    0    0 -0.35360497205E+02 -0.62004206041E+02 -0.11472324431E+03  0.20407832352E+03  0.15294330000E+03 0.  0.
<mgrwt>
<rscale>  0 0.47067263E+03</rscale>
<asrwt>0</asrwt>
<pdfrwt beam="1">  1        1 0.34027065E-01 0.66249913E+03</pdfrwt>
<pdfrwt beam="2">  1       -1 0.28013817E+00 0.66249913E+03</pdfrwt>
<totfact> 0.61089611E+00</totfact>
</mgrwt>
</event>
<event>
 4    1  0.2514307E-008  0.1268734E+04  0.7818608E-02  0.9093042E-01
         -1   -1    0    0    0  501 -0.00000000000E+00  0.00000000000E+00  0.15144324859E+04  0.15144324859E+04  0.50400000000E-02 0.  1.
          1   -1    0    0  501    0  0.00000000000E+00 -0.00000000000E+00 -0.14570765370E+04  0.14570765370E+04  0.50400000000E-02 0. -1.
    8880023    1    1    2    0    0  0.59689138007E+03 -0.90531506711E+03  0.92847685115E+03  0.15721813381E+04  0.65864270000E+03 0.  1.
    8880022    1    1    2    0    0 -0.59689138007E+03  0.90531506711E+03 -0.87112090219E+03  0.13993276849E+04  0.15294330000E+03 0.  0.
<mgrwt>
<rscale>  0 0.12229038E+04</rscale>
<asrwt>0</asrwt>
<pdfrwt beam="1">  1        1 0.22416562E+00 0.12687336E+04</pdfrwt>
<pdfrwt beam="2">  1       -1 0.23298961E+00 0.12687336E+04</pdfrwt>
<totfact> 0.61405204E-01</totfact>
</mgrwt>
</event>
<event>
 4    1  0.2514307E-008  0.1495250E+04  0.7818608E-02  0.8912998E-01
          1   -1    0    0  501    0  0.00000000000E+00  0.00000000000E+00  0.19388791365E+04  0.19388791365E+04  0.50400000000E-02 0. -1.
         -1   -1    0    0    0  501 -0.00000000000E+00 -0.00000000000E+00 -0.15137532510E+04  0.15137532510E+04  0.50400000000E-02 0.  1.
    8880023    1    1    2    0    0 -0.16827891122E+03  0.13317821965E+04 -0.74020783043E+03  0.16684362287E+04  0.65864270000E+03 0.  1.
    8880022    1    1    2    0    0  0.16827891122E+03 -0.13317821965E+04  0.11653337159E+04  0.17841961588E+04  0.15294330000E+03 0.  0.
<mgrwt>
<rscale>  0 0.14578192E+04</rscale>
<asrwt>0</asrwt>
<pdfrwt beam="1">  1        1 0.29828910E+00 0.14952498E+04</pdfrwt>
<pdfrwt beam="2">  1       -1 0.23288512E+00 0.14952498E+04</pdfrwt>
<totfact> 0.27973027E-01</totfact>
</mgrwt>
</event>
<event>
 4    1  0.2514307E-008  0.7024634E+03  0.7818608E-02  0.9987132E-01
          1   -1    0    0  501    0  0.00000000000E+00  0.00000000000E+00  0.20595195851E+04  0.20595195851E+04  0.50400000000E-02 0. -1.
         -1   -1    0    0    0  501 -0.00000000000E+00 -0.00000000000E+00 -0.17799778721E+03  0.17799778728E+03  0.50400000000E-02 0.  1.
    8880023    1    1    2    0    0  0.17999373135E+03  0.16506611695E+03  0.59947482669E+03  0.92348515981E+03  0.65864270000E+03 0.  0.
    8880022    1    1    2    0    0 -0.17999373135E+03 -0.16506611695E+03  0.12820469712E+04  0.13140322126E+04  0.15294330000E+03 0.  0.
<mgrwt>
<rscale>  0 0.56218105E+03</rscale>
<asrwt>0</asrwt>
<pdfrwt beam="1">  1        1 0.31684916E+00 0.70246336E+03</pdfrwt>
<pdfrwt beam="2">  1       -1 0.27384276E-01 0.70246336E+03</pdfrwt>
<totfact> 0.33916229E+01</totfact>
</mgrwt>
</event>
<event>
 4    1  0.2514307E-008  0.1056279E+04  0.7818608E-02  0.9311371E-01
          1   -1    0    0  501    0  0.00000000000E+00  0.00000000000E+00  0.24210300937E+04  0.24210300938E+04  0.50400000000E-02 0. -1.
         -1   -1    0    0    0  501 -0.00000000000E+00 -0.00000000000E+00 -0.60553456142E+03  0.60553456144E+03  0.50400000000E-02 0.  1.
    8880023    1    1    2    0    0  0.14939570309E+03 -0.81215546487E+03  0.33756843650E+02  0.10568184830E+04  0.65864270000E+03 0.  1.
    8880022    1    1    2    0    0 -0.14939570309E+03  0.81215546487E+03  0.17817386887E+04  0.19697461722E+04  0.15294330000E+03 0.  0.
<mgrwt>
<rscale>  0 0.99742751E+03</rscale>
<asrwt>0</asrwt>
<pdfrwt beam="1">  1        1 0.37246617E+00 0.10562792E+04</pdfrwt>
<pdfrwt beam="2">  1       -1 0.93159163E-01 0.10562792E+04</pdfrwt>
<totfact> 0.17344662E+00</totfact>
</mgrwt>
</event>
<event>
 4    1  0.2514307E-008  0.8473443E+03  0.7818608E-02  0.9616484E-01
         -1   -1    0    0    0  501 -0.00000000000E+00  0.00000000000E+00  0.11844451120E+04  0.11844451120E+04  0.50400000000E-02 0.  1.
          1   -1    0    0  501    0  0.00000000000E+00 -0.00000000000E+00 -0.89682372809E+03  0.89682372810E+03  0.50400000000E-02 0. -1.
    8880023    1    1    2    0    0 -0.72340191803E+01  0.53303825071E+03  0.91285542840E+03  0.12455108780E+04  0.65864270000E+03 0.  0.
    8880022    1    1    2    0    0  0.72340191803E+01 -0.53303825071E+03 -0.62523404453E+03  0.83575796209E+03  0.15294330000E+03 0.  0.
<mgrwt>
<rscale>  0 0.76214672E+03</rscale>
<asrwt>0</asrwt>
<pdfrwt beam="1">  1        1 0.13797288E+00 0.84734427E+03</pdfrwt>
<pdfrwt beam="2">  1       -1 0.18222233E+00 0.84734427E+03</pdfrwt>
<totfact> 0.37574437E+00</totfact>
</mgrwt>
</event>
<event>
 4    1  0.2514307E-008  0.1011985E+04  0.7818608E-02  0.9366043E-01
         -1   -1    0    0    0  501 -0.00000000000E+00  0.00000000000E+00  0.10612651651E+04  0.10612651651E+04  0.50400000000E-02 0.  1.
          1   -1    0    0  501    0  0.00000000000E+00 -0.00000000000E+00 -0.96405068890E+03  0.96405068891E+03  0.50400000000E-02 0. -1.
    8880023    1    1    2    0    0 -0.73122762978E+03  0.23581646323E+03 -0.41019304474E+03  0.10919577790E+04  0.65864270000E+03 0.  1.
    8880022    1    1    2    0    0  0.73122762978E+03 -0.23581646323E+03  0.50740752091E+03  0.93335807501E+03  0.15294330000E+03 0. -1.
<mgrwt>
<rscale>  0 0.94923686E+03</rscale>
<asrwt>0</asrwt>
<pdfrwt beam="1">  1        1 0.14831549E+00 0.10119849E+04</pdfrwt>
<pdfrwt beam="2">  1       -1 0.16327156E+00 0.10119849E+04</pdfrwt>
<totfact> 0.44656527E+00</totfact>
</mgrwt>
</event>
<event>
 4    1  0.2514307E-008  0.1095506E+04  0.7818608E-02  0.9266076E-01
          1   -1    0    0  501    0  0.00000000000E+00  0.00000000000E+00  0.15442143678E+04  0.15442143678E+04  0.50400000000E-02 0. -1.
         -1   -1    0    0    0  501 -0.00000000000E+00 -0.00000000000E+00 -0.13178671216E+04  0.13178671216E+04  0.50400000000E-02 0.  1.
    8880023    1    1    2    0    0  0.39870951825E+03  0.77932904496E+03 -0.90674091444E+03  0.14220802834E+04  0.65864270000E+03 0.  0.
    8880022    1    1    2    0    0 -0.39870951825E+03 -0.77932904496E+03  0.11330881606E+04  0.14400012059E+04  0.15294330000E+03 0.  0.
<mgrwt>
<rscale>  0 0.10396684E+04</rscale>
<asrwt>0</asrwt>
<pdfrwt beam="1">  1        1 0.23757144E+00 0.10955059E+04</pdfrwt>
<pdfrwt beam="2">  1       -1 0.20274879E+00 0.10955059E+04</pdfrwt>
<totfact> 0.87287187E-01</totfact>
</mgrwt>
</event>
<event>
 4    1  0.2514307E-008  0.6957984E+03  0.7818608E-02  0.1001510E+00
         -1   -1    0    0    0  501 -0.00000000000E+00  0.00000000000E+00  0.28432225116E+03  0.28432225120E+03  0.50400000000E-02 0.  1.
          1   -1    0    0  501    0  0.00000000000E+00 -0.00000000000E+00 -0.15775488294E+04  0.15775488294E+04  0.50400000000E-02 0. -1.
    8880023    1    1    2    0    0 -0.20974781914E+03 -0.79568339160E+02 -0.18374487757E+03  0.71965106443E+03  0.65864270000E+03 0.  1.
    8880022    1    1    2    0    0  0.20974781914E+03  0.79568339160E+02 -0.11094817007E+04  0.11422200162E+04  0.15294330000E+03 0.  0.
<mgrwt>
<rscale>  0 0.54993136E+03</rscale>
<asrwt>0</asrwt>
<pdfrwt beam="1">  1        1 0.24269982E+00 0.69579844E+03</pdfrwt>
<pdfrwt beam="2">  1       -1 0.43741886E-01 0.69579844E+03</pdfrwt>
<totfact> 0.31040217E+01</totfact>
</mgrwt>
</event>
<event>
 4    1  0.2514307E-008  0.9804143E+03  0.7818608E-02  0.9407642E-01
         -1   -1    0    0    0  501 -0.00000000000E+00  0.00000000000E+00  0.11745783227E+04  0.11745783227E+04  0.50400000000E-02 0.  1.
          1   -1    0    0  501    0  0.00000000000E+00 -0.00000000000E+00 -0.10512889974E+04  0.10512889975E+04  0.50400000000E-02 0. -1.
    8880023    1    1    2    0    0 -0.71493929535E+03  0.12752976488E+03  0.76594051089E+03  0.12441370943E+04  0.65864270000E+03 0.  0.
    8880022    1    1    2    0    0  0.71493929535E+03 -0.12752976488E+03 -0.64265118562E+03  0.98173022586E+03  0.15294330000E+03 0.  0.
<mgrwt>
<rscale>  0 0.91449399E+03</rscale>
<asrwt>0</asrwt>
<pdfrwt beam="1">  1        1 0.16173677E+00 0.98041432E+03</pdfrwt>
<pdfrwt beam="2">  1       -1 0.18070436E+00 0.98041432E+03</pdfrwt>
<totfact> 0.28574346E+00</totfact>
</mgrwt>
</event>
<event>
 4    1  0.2514307E-008  0.7145817E+03  0.7818608E-02  0.9941365E-01
          1   -1    0    0  501    0  0.00000000000E+00  0.00000000000E+00  0.11721063928E+04  0.11721063928E+04  0.50400000000E-02 0. -1.
         -1   -1    0    0    0  501 -0.00000000000E+00 -0.00000000000E+00 -0.87239740870E+03  0.87239740872E+03  0.50400000000E-02 0.  1.
    8880023    1    1    2    0    0 -0.12734436534E+02  0.27686560609E+03 -0.69731265726E+03  0.99843471391E+03  0.65864270000E+03 0.  1.
    8880022    1    1    2    0    0  0.12734436534E+02 -0.27686560609E+03  0.99702164131E+03  0.10460690876E+04  0.15294330000E+03 0.  0.
<mgrwt>
<rscale>  0 0.58297765E+03</rscale>
<asrwt>0</asrwt>
<pdfrwt beam="1">  1        1 0.18032406E+00 0.71458165E+03</pdfrwt>
<pdfrwt beam="2">  1       -1 0.13421499E+00 0.71458165E+03</pdfrwt>
<totfact> 0.54654161E+00</totfact>
</mgrwt>
</event>
<event>
 4    1  0.2514307E-008  0.8472184E+03  0.7818608E-02  0.9616717E-01
          1   -1    0    0  501    0  0.00000000000E+00  0.00000000000E+00  0.12150538488E+04  0.12150538488E+04  0.50400000000E-02 0. -1.
         -1   -1    0    0    0  501 -0.00000000000E+00 -0.00000000000E+00 -0.14917665863E+04  0.14917665863E+04  0.50400000000E-02 0.  1.
    8880023    1    1    2    0    0 -0.53147466946E+03 -0.38774414772E+02 -0.12949292721E+04  0.15474562370E+04  0.65864270000E+03 0.  1.
    8880022    1    1    2    0    0  0.53147466946E+03  0.38774414772E+02  0.10182165345E+04  0.11593641981E+04  0.15294330000E+03 0.  0.
<mgrwt>
<rscale>  0 0.76199570E+03</rscale>
<asrwt>0</asrwt>
<pdfrwt beam="1">  1        1 0.18693136E+00 0.84721838E+03</pdfrwt>
<pdfrwt beam="2">  1       -1 0.22950255E+00 0.84721838E+03</pdfrwt>
<totfact> 0.10230867E+00</totfact>
</mgrwt>
</event>
<event>
 4    1  0.2514307E-008  0.9489111E+03  0.7818608E-02  0.9451682E-01
          1   -1    0    0  501    0  0.00000000000E+00  0.00000000000E+00  0.88371944554E+03  0.88371944555E+03  0.50400000000E-02 0. -1.
         -1   -1    0    0    0  501 -0.00000000000E+00 -0.00000000000E+00 -0.12305337234E+04  0.12305337234E+04  0.50400000000E-02 0.  1.
    8880023    1    1    2    0    0 -0.58902445510E+03 -0.34593687038E+03 -0.83243359701E+03  0.12622907853E+04  0.65864270000E+03 0.  1.
    8880022    1    1    2    0    0  0.58902445510E+03  0.34593687038E+03  0.48561931915E+03  0.85196238364E+03  0.15294330000E+03 0.  0.
<mgrwt>
<rscale>  0 0.87941768E+03</rscale>
<asrwt>0</asrwt>
<pdfrwt beam="1">  1        1 0.13595684E+00 0.94891113E+03</pdfrwt>
<pdfrwt beam="2">  1       -1 0.18931288E+00 0.94891113E+03</pdfrwt>
<totfact> 0.33864874E+00</totfact>
</mgrwt>
</event>
<event>
 4    1  0.2514307E-008  0.6701779E+03  0.7818608E-02  0.1015536E+00
          1   -1    0    0  501    0  0.00000000000E+00  0.00000000000E+00  0.15449896150E+04  0.15449896150E+04  0.50400000000E-02 0. -1.
         -1   -1    0    0    0  501 -0.00000000000E+00 -0.00000000000E+00 -0.27352989377E+03  0.27352989382E+03  0.50400000000E-02 0.  1.
    8880023    1    1    2    0    0 -0.11863560033E+03  0.35409857709E+02  0.15898695780E+03  0.68877813750E+03  0.65864270000E+03 0.  1.
    8880022    1    1    2    0    0  0.11863560033E+03 -0.35409857709E+02  0.11124727634E+04  0.11297413713E+04  0.15294330000E+03 0.  0.
<mgrwt>
<rscale>  0 0.49332645E+03</rscale>
<asrwt>0</asrwt>
<pdfrwt beam="1">  1        1 0.23769070E+00 0.67017794E+03</pdfrwt>
<pdfrwt beam="2">  1       -1 0.42081523E-01 0.67017794E+03</pdfrwt>
<totfact> 0.35188080E+01</totfact>
</mgrwt>
</event>
<event>
 4    1  0.2514307E-008  0.7360278E+03  0.7818608E-02  0.9871673E-01
         -1   -1    0    0    0  501 -0.00000000000E+00  0.00000000000E+00  0.42808588055E+03  0.42808588058E+03  0.50400000000E-02 0.  1.
          1   -1    0    0  501    0  0.00000000000E+00 -0.00000000000E+00 -0.17008560163E+04  0.17008560163E+04  0.50400000000E-02 0. -1.
    8880023    1    1    2    0    0  0.28924668328E+03  0.15576596135E+03  0.68851955884E+02  0.73924114915E+03  0.65864270000E+03 0.  1.
    8880022    1    1    2    0    0 -0.28924668328E+03 -0.15576596135E+03 -0.13416220916E+04  0.13897007477E+04  0.15294330000E+03 0.  0.
<mgrwt>
<rscale>  0 0.61654009E+03</rscale>
<asrwt>0</asrwt>
<pdfrwt beam="1">  1        1 0.26167015E+00 0.73602777E+03</pdfrwt>
<pdfrwt beam="2">  1       -1 0.65859367E-01 0.73602777E+03</pdfrwt>
<totfact> 0.11596805E+01</totfact>
</mgrwt>
</event>
<event>
 4    1  0.2514307E-008  0.1773868E+04  0.7818608E-02  0.8737131E-01
         -1   -1    0    0    0  501 -0.00000000000E+00  0.00000000000E+00  0.19457584111E+04  0.19457584111E+04  0.50400000000E-02 0.  1.
          1   -1    0    0  501    0  0.00000000000E+00 -0.00000000000E+00 -0.18787985304E+04  0.18787985304E+04  0.50400000000E-02 0. -1.
    8880023    1    1    2    0    0  0.15860563687E+04 -0.44409633764E+03  0.88140868576E+03  0.19807796039E+04  0.65864270000E+03 0.  0.
    8880022    1    1    2    0    0 -0.15860563687E+04  0.44409633764E+03 -0.81444880508E+03  0.18437773376E+04  0.15294330000E+03 0.  0.
<mgrwt>
<rscale>  0 0.17431476E+04</rscale>
<asrwt>0</asrwt>
<pdfrwt beam="1">  1        1 0.28904593E+00 0.17738677E+04</pdfrwt>
<pdfrwt beam="2">  1       -1 0.29934745E+00 0.17738677E+04</pdfrwt>
<totfact> 0.10978694E-01</totfact>
</mgrwt>
</event>
<event>
 4    1  0.2514307E-008  0.1100705E+04  0.7818608E-02  0.9260272E-01
          1   -1    0    0  501    0  0.00000000000E+00  0.00000000000E+00  0.31528357613E+04  0.31528357613E+04  0.50400000000E-02 0. -1.
         -1   -1    0    0    0  501 -0.00000000000E+00 -0.00000000000E+00 -0.72321802241E+03  0.72321802243E+03  0.50400000000E-02 0.  1.
    8880023    1    1    2    0    0  0.37543771023E+03 -0.79798962464E+03 -0.18169765254E+03  0.11156008061E+04  0.65864270000E+03 0.  1.
    8880022    1    1    2    0    0 -0.37543771023E+03  0.79798962464E+03  0.26113153914E+04  0.27604529776E+04  0.15294330000E+03 0.  0.
<mgrwt>
<rscale>  0 0.10452404E+04</rscale>
<asrwt>0</asrwt>
<pdfrwt beam="1">  1        1 0.48505165E+00 0.11007048E+04</pdfrwt>
<pdfrwt beam="2">  1       -1 0.11126431E+00 0.11007048E+04</pdfrwt>
<totfact> 0.34698792E-01</totfact>
</mgrwt>
</event>
<event>
 4    1  0.2514307E-008  0.8154079E+03  0.7818608E-02  0.9678421E-01
          1   -1    0    0  501    0  0.00000000000E+00  0.00000000000E+00  0.67242990620E+03  0.67242990622E+03  0.50400000000E-02 0. -1.
         -1   -1    0    0    0  501 -0.00000000000E+00 -0.00000000000E+00 -0.14450968212E+04  0.14450968212E+04  0.50400000000E-02 0.  1.
    8880023    1    1    2    0    0 -0.47804520530E+03  0.50523218133E+02 -0.12037807700E+04  0.14539525998E+04  0.65864270000E+03 0.  0.
    8880022    1    1    2    0    0  0.47804520530E+03 -0.50523218133E+02  0.43111385502E+03  0.66357412765E+03  0.15294330000E+03 0.  0.
<mgrwt>
<rscale>  0 0.72316278E+03</rscale>
<asrwt>0</asrwt>
<pdfrwt beam="1">  1        1 0.10345075E+00 0.81540789E+03</pdfrwt>
<pdfrwt beam="2">  1       -1 0.22232259E+00 0.81540789E+03</pdfrwt>
<totfact> 0.31670739E+00</totfact>
</mgrwt>
</event>
<event>
 4    1  0.2514307E-008  0.6874907E+03  0.7818608E-02  0.1005369E+00
         -1   -1    0    0    0  501 -0.00000000000E+00  0.00000000000E+00  0.50549032153E+03  0.50549032155E+03  0.50400000000E-02 0.  1.
          1   -1    0    0  501    0  0.00000000000E+00 -0.00000000000E+00 -0.13305204815E+04  0.13305204815E+04  0.50400000000E-02 0. -1.
    8880023    1    1    2    0    0 -0.19391845859E+03 -0.35056043990E+02  0.25067158844E+03  0.73176481626E+03  0.65864270000E+03 0.  1.
    8880022    1    1    2    0    0  0.19391845859E+03  0.35056043990E+02 -0.10757017484E+04  0.11042459868E+04  0.15294330000E+03 0.  0.
<mgrwt>
<rscale>  0 0.53357528E+03</rscale>
<asrwt>0</asrwt>
<pdfrwt beam="1">  1        1 0.20469546E+00 0.68749073E+03</pdfrwt>
<pdfrwt beam="2">  1       -1 0.77767742E-01 0.68749073E+03</pdfrwt>
<totfact> 0.14871425E+01</totfact>
</mgrwt>
</event>
<event>
 4    1  0.2514307E-008  0.1049608E+04  0.7818608E-02  0.9319353E-01
          1   -1    0    0  501    0  0.00000000000E+00  0.00000000000E+00  0.14617462549E+04  0.14617462550E+04  0.50400000000E-02 0. -1.
         -1   -1    0    0    0  501 -0.00000000000E+00 -0.00000000000E+00 -0.80987070263E+03  0.80987070264E+03  0.50400000000E-02 0.  1.
    8880023    1    1    2    0    0 -0.12529450608E+03 -0.80756877699E+03 -0.21399979931E+03  0.10712012711E+04  0.65864270000E+03 0.  0.
    8880022    1    1    2    0    0  0.12529450608E+03  0.80756877699E+03  0.86587535163E+03  0.12004156865E+04  0.15294330000E+03 0.  0.
<mgrwt>
<rscale>  0 0.99020529E+03</rscale>
<asrwt>0</asrwt>
<pdfrwt beam="1">  1        1 0.22488404E+00 0.10496077E+04</pdfrwt>
<pdfrwt beam="2">  1       -1 0.12459549E+00 0.10496077E+04</pdfrwt>
<totfact> 0.39196812E+00</totfact>
</mgrwt>
</event>
<event>
 4    1  0.2514307E-008  0.1572260E+04  0.7818608E-02  0.8860227E-01
          1   -1    0    0  501    0  0.00000000000E+00  0.00000000000E+00  0.26148922331E+04  0.26148922331E+04  0.50400000000E-02 0. -1.
         -1   -1    0    0    0  501 -0.00000000000E+00 -0.00000000000E+00 -0.11342175347E+04  0.11342175347E+04  0.50400000000E-02 0.  1.
    8880023    1    1    2    0    0  0.90374201562E+03  0.11051883277E+04 -0.14644280272E+03  0.15790650940E+04  0.65864270000E+03 0.  0.
    8880022    1    1    2    0    0 -0.90374201562E+03 -0.11051883277E+04  0.16271175011E+04  0.21700446737E+04  0.15294330000E+03 0.  0.
<mgrwt>
<rscale>  0 0.15369804E+04</rscale>
<asrwt>0</asrwt>
<pdfrwt beam="1">  1        1 0.40229111E+00 0.15722599E+04</pdfrwt>
<pdfrwt beam="2">  1       -1 0.17449501E+00 0.15722599E+04</pdfrwt>
<totfact> 0.24148611E-01</totfact>
</mgrwt>
</event>
<event>
 4    1  0.2514307E-008  0.1350390E+04  0.7818608E-02  0.9023223E-01
          1   -1    0    0  501    0  0.00000000000E+00  0.00000000000E+00  0.15023606448E+04  0.15023606448E+04  0.50400000000E-02 0. -1.
         -1   -1    0    0    0  501 -0.00000000000E+00 -0.00000000000E+00 -0.15663523293E+04  0.15663523293E+04  0.50400000000E-02 0.  1.
    8880023    1    1    2    0    0  0.11226613470E+04  0.35968545576E+03 -0.89343650698E+03  0.16191915036E+04  0.65864270000E+03 0.  1.
    8880022    1    1    2    0    0 -0.11226613470E+04 -0.35968545576E+03  0.82944482251E+03  0.14495214706E+04  0.15294330000E+03 0.  0.
<mgrwt>
<rscale>  0 0.13080286E+04</rscale>
<asrwt>0</asrwt>
<pdfrwt beam="1">  1        1 0.23113241E+00 0.13503897E+04</pdfrwt>
<pdfrwt beam="2">  1       -1 0.24097728E+00 0.13503897E+04</pdfrwt>
<totfact> 0.50088268E-01</totfact>
</mgrwt>
</event>
<event>
 4    1  0.2514307E-008  0.1067079E+04  0.7818608E-02  0.9298626E-01
         -1   -1    0    0    0  501 -0.00000000000E+00  0.00000000000E+00  0.60530814107E+03  0.60530814109E+03  0.50400000000E-02 0.  1.
          1   -1    0    0  501    0  0.00000000000E+00 -0.00000000000E+00 -0.30679005625E+04  0.30679005625E+04  0.50400000000E-02 0. -1.
    8880023    1    1    2    0    0 -0.15487651328E+03  0.82514279266E+03 -0.13977710032E+00  0.10670789982E+04  0.65864270000E+03 0.  1.
    8880022    1    1    2    0    0  0.15487651328E+03 -0.82514279266E+03 -0.24624526443E+04  0.26061297053E+04  0.15294330000E+03 0.  0.
<mgrwt>
<rscale>  0 0.10090941E+04</rscale>
<asrwt>0</asrwt>
<pdfrwt beam="1">  1        1 0.47198469E+00 0.10670790E+04</pdfrwt>
<pdfrwt beam="2">  1       -1 0.93124331E-01 0.10670790E+04</pdfrwt>
<totfact> 0.60749014E-01</totfact>
</mgrwt>
</event>
<event>
 4    1  0.2514307E-008  0.8003176E+03  0.7818608E-02  0.9710110E-01
         -1   -1    0    0    0  501 -0.00000000000E+00  0.00000000000E+00  0.31442099581E+03  0.31442099585E+03  0.50400000000E-02 0.  1.
          1   -1    0    0  501    0  0.00000000000E+00 -0.00000000000E+00 -0.14215942765E+04  0.14215942765E+04  0.50400000000E-02 0. -1.
    8880023    1    1    2    0    0 -0.25304901470E+03 -0.37770928199E+03 -0.92436303455E+03  0.12226836596E+04  0.65864270000E+03 0.  1.
    8880022    1    1    2    0    0  0.25304901470E+03  0.37770928199E+03 -0.18281024612E+03  0.51333161274E+03  0.15294330000E+03 0. -1.
<mgrwt>
<rscale>  0 0.70418043E+03</rscale>
<asrwt>0</asrwt>
<pdfrwt beam="1">  1        1 0.21870681E+00 0.80031763E+03</pdfrwt>
<pdfrwt beam="2">  1       -1 0.48372461E-01 0.80031763E+03</pdfrwt>
<totfact> 0.32493514E+01</totfact>
</mgrwt>
</event>
<event>
 4    1  0.2514307E-008  0.1122927E+04  0.7818608E-02  0.9235949E-01
          1   -1    0    0  501    0  0.00000000000E+00  0.00000000000E+00  0.10801066260E+04  0.10801066261E+04  0.50400000000E-02 0. -1.
         -1   -1    0    0    0  501 -0.00000000000E+00 -0.00000000000E+00 -0.24101400360E+04  0.24101400360E+04  0.50400000000E-02 0.  1.
    8880023    1    1    2    0    0 -0.36499718550E+03 -0.83302619073E+03 -0.20384743674E+04  0.23273039193E+04  0.65864270000E+03 0.  0.
    8880022    1    1    2    0    0  0.36499718550E+03  0.83302619073E+03  0.70844095743E+03  0.11629427428E+04  0.15294330000E+03 0.  0.
<mgrwt>
<rscale>  0 0.10689959E+04</rscale>
<asrwt>0</asrwt>
<pdfrwt beam="1">  1        1 0.16617025E+00 0.11229273E+04</pdfrwt>
<pdfrwt beam="2">  1       -1 0.37079077E+00 0.11229273E+04</pdfrwt>
<totfact> 0.14845888E-01</totfact>
</mgrwt>
</event>
<event>
 4    1  0.2514307E-008  0.8845016E+03  0.7818608E-02  0.9551384E-01
         -1   -1    0    0    0  501 -0.00000000000E+00  0.00000000000E+00  0.51660806921E+03  0.51660806924E+03  0.50400000000E-02 0.  1.
          1   -1    0    0  501    0  0.00000000000E+00 -0.00000000000E+00 -0.28378830597E+04  0.28378830597E+04  0.50400000000E-02 0. -1.
    8880023    1    1    2    0    0 -0.48959715193E+03  0.32989019559E+03  0.69433852296E+02  0.88722273327E+03  0.65864270000E+03 0.  1.
    8880022    1    1    2    0    0  0.48959715193E+03 -0.32989019559E+03 -0.23907088428E+04  0.24672683957E+04  0.15294330000E+03 0.  0.
<mgrwt>
<rscale>  0 0.80599219E+03</rscale>
<asrwt>0</asrwt>
<pdfrwt beam="1">  1        1 0.43659739E+00 0.88450162E+03</pdfrwt>
<pdfrwt beam="2">  1       -1 0.79478166E-01 0.88450162E+03</pdfrwt>
<totfact> 0.12945287E+00</totfact>
</mgrwt>
</event>
<event>
 4    1  0.2514307E-008  0.7917799E+03  0.7818608E-02  0.9728860E-01
         -1   -1    0    0    0  501 -0.00000000000E+00  0.00000000000E+00  0.94271018479E+03  0.94271018481E+03  0.50400000000E-02 0.  1.
          1   -1    0    0  501    0  0.00000000000E+00 -0.00000000000E+00 -0.78863926565E+03  0.78863926566E+03  0.50400000000E-02 0. -1.
    8880023    1    1    2    0    0  0.59124820630E+01  0.43939755746E+03  0.66955539345E+03  0.10369280602E+04  0.65864270000E+03 0.  0.
    8880022    1    1    2    0    0 -0.59124820630E+01 -0.43939755746E+03 -0.51548447430E+03  0.69442139023E+03  0.15294330000E+03 0.  0.
<mgrwt>
<rscale>  0 0.69324187E+03</rscale>
<asrwt>0</asrwt>
<pdfrwt beam="1">  1        1 0.12132912E+00 0.79177988E+03</pdfrwt>
<pdfrwt beam="2">  1       -1 0.14503234E+00 0.79177988E+03</pdfrwt>
<totfact> 0.88644033E+00</totfact>
</mgrwt>
</event>
<event>
 4    1  0.2514307E-008  0.7002395E+03  0.7818608E-02  0.9996209E-01
          1   -1    0    0  501    0  0.00000000000E+00  0.00000000000E+00  0.46679090179E+03  0.46679090182E+03  0.50400000000E-02 0. -1.
         -1   -1    0    0    0  501 -0.00000000000E+00 -0.00000000000E+00 -0.11126210025E+04  0.11126210026E+04  0.50400000000E-02 0.  1.
    8880023    1    1    2    0    0  0.64990790434E+02  0.22869476067E+03 -0.93952444845E+03  0.11717685317E+04  0.65864270000E+03 0.  1.
    8880022    1    1    2    0    0 -0.64990790434E+02 -0.22869476067E+03  0.29369434769E+03  0.40764337267E+03  0.15294330000E+03 0.  0.
<mgrwt>
<rscale>  0 0.55816765E+03</rscale>
<asrwt>0</asrwt>
<pdfrwt beam="1">  1        1 0.71813985E-01 0.70023946E+03</pdfrwt>
<pdfrwt beam="2">  1       -1 0.17117246E+00 0.70023946E+03</pdfrwt>
<totfact> 0.12169950E+01</totfact>
</mgrwt>
</event>
<event>
 4    1  0.2514307E-008  0.1030423E+04  0.7818608E-02  0.9342795E-01
          1   -1    0    0  501    0  0.00000000000E+00  0.00000000000E+00  0.16984308762E+04  0.16984308762E+04  0.50400000000E-02 0. -1.
         -1   -1    0    0    0  501 -0.00000000000E+00 -0.00000000000E+00 -0.51932126293E+03  0.51932126295E+03  0.50400000000E-02 0.  1.
    8880023    1    1    2    0    0  0.79242331434E+03  0.50883043822E+01  0.42978228480E+03  0.11164603076E+04  0.65864270000E+03 0.  0.
    8880022    1    1    2    0    0 -0.79242331434E+03 -0.50883043822E+01  0.74932732845E+03  0.11012918315E+04  0.15294330000E+03 0.  0.
<mgrwt>
<rscale>  0 0.96936767E+03</rscale>
<asrwt>0</asrwt>
<pdfrwt beam="1">  1        1 0.26129705E+00 0.10304226E+04</pdfrwt>
<pdfrwt beam="2">  1       -1 0.79895581E-01 0.10304226E+04</pdfrwt>
<totfact> 0.75051003E+00</totfact>
</mgrwt>
</event>
<event>
 4    1  0.2514307E-008  0.1092355E+04  0.7818608E-02  0.9269616E-01
         -1   -1    0    0    0  501 -0.00000000000E+00  0.00000000000E+00  0.94684025410E+03  0.94684025411E+03  0.50400000000E-02 0.  1.
          1   -1    0    0  501    0  0.00000000000E+00 -0.00000000000E+00 -0.19075206759E+04  0.19075206759E+04  0.50400000000E-02 0. -1.
    8880023    1    1    2    0    0  0.48686650976E+03 -0.72276624164E+03  0.45630566947E+03  0.11838306926E+04  0.65864270000E+03 0.  0.
    8880022    1    1    2    0    0 -0.48686650976E+03  0.72276624164E+03 -0.14169860913E+04  0.16705302375E+04  0.15294330000E+03 0.  0.
<mgrwt>
<rscale>  0 0.10362888E+04</rscale>
<asrwt>0</asrwt>
<pdfrwt beam="1">  1        1 0.29346472E+00 0.10923554E+04</pdfrwt>
<pdfrwt beam="2">  1       -1 0.14566773E+00 0.10923554E+04</pdfrwt>
<totfact> 0.12950727E+00</totfact>
</mgrwt>
</event>
<event>
 4    1  0.2514307E-008  0.9823010E+03  0.7818608E-02  0.9405089E-01
         -1   -1    0    0    0  501 -0.00000000000E+00  0.00000000000E+00  0.63728600696E+03  0.63728600698E+03  0.50400000000E-02 0.  1.
          1   -1    0    0  501    0  0.00000000000E+00 -0.00000000000E+00 -0.23272681606E+04  0.23272681606E+04  0.50400000000E-02 0. -1.
    8880023    1    1    2    0    0  0.66978994652E+03 -0.28720474908E+03  0.13684861244E+03  0.99178772393E+03  0.65864270000E+03 0.  1.
    8880022    1    1    2    0    0 -0.66978994652E+03  0.28720474908E+03 -0.18268307661E+04  0.19727664437E+04  0.15294330000E+03 0.  0.
<mgrwt>
<rscale>  0 0.91658097E+03</rscale>
<asrwt>0</asrwt>
<pdfrwt beam="1">  1        1 0.35804125E+00 0.98230105E+03</pdfrwt>
<pdfrwt beam="2">  1       -1 0.98044002E-01 0.98230105E+03</pdfrwt>
<totfact> 0.18104871E+00</totfact>
</mgrwt>
</event>
<event>
 4    1  0.2514307E-008  0.1317468E+04  0.7818608E-02  0.9050620E-01
         -1   -1    0    0    0  501 -0.00000000000E+00  0.00000000000E+00  0.17270296787E+04  0.17270296787E+04  0.50400000000E-02 0.  1.
          1   -1    0    0  501    0  0.00000000000E+00 -0.00000000000E+00 -0.15667386200E+04  0.15667386200E+04  0.50400000000E-02 0. -1.
    8880023    1    1    2    0    0  0.34209964639E+03 -0.10885222005E+04  0.11703739129E+04  0.17622423361E+04  0.65864270000E+03 0.  0.
    8880022    1    1    2    0    0 -0.34209964639E+03  0.10885222005E+04 -0.10100828542E+04  0.15315259627E+04  0.15294330000E+03 0.  0.
<mgrwt>
<rscale>  0 0.12737805E+04</rscale>
<asrwt>0</asrwt>
<pdfrwt beam="1">  1        1 0.24103671E+00 0.13174684E+04</pdfrwt>
<pdfrwt beam="2">  1       -1 0.26569687E+00 0.13174684E+04</pdfrwt>
<totfact> 0.31318043E-01</totfact>
</mgrwt>
</event>
<event>
 4    1  0.2514307E-008  0.7460825E+03  0.7818608E-02  0.9842571E-01
         -1   -1    0    0    0  501 -0.00000000000E+00  0.00000000000E+00  0.30733779393E+03  0.30733779398E+03  0.50400000000E-02 0.  1.
          1   -1    0    0  501    0  0.00000000000E+00 -0.00000000000E+00 -0.12777075928E+04  0.12777075928E+04  0.50400000000E-02 0. -1.
    8880023    1    1    2    0    0  0.90774458048E+02  0.33850980950E+03 -0.28200080824E+03  0.79759861802E+03  0.65864270000E+03 0.  0.
    8880022    1    1    2    0    0 -0.90774458048E+02 -0.33850980950E+03 -0.68836899061E+03  0.78744676874E+03  0.15294330000E+03 0.  0.
<mgrwt>
<rscale>  0 0.63127151E+03</rscale>
<asrwt>0</asrwt>
<pdfrwt beam="1">  1        1 0.19657040E+00 0.74608250E+03</pdfrwt>
<pdfrwt beam="2">  1       -1 0.47282738E-01 0.74608250E+03</pdfrwt>
<totfact> 0.43039466E+01</totfact>
</mgrwt>
</event>
<event>
 4    1  0.2514307E-008  0.1041206E+04  0.7818608E-02  0.9329529E-01
          1   -1    0    0  501    0  0.00000000000E+00  0.00000000000E+00  0.10079630019E+04  0.10079630019E+04  0.50400000000E-02 0. -1.
         -1   -1    0    0    0  501 -0.00000000000E+00 -0.00000000000E+00 -0.16834222927E+04  0.16834222927E+04  0.50400000000E-02 0.  1.
    8880023    1    1    2    0    0  0.80639291072E+03 -0.54080202789E+01 -0.12959845154E+04  0.16624334102E+04  0.65864270000E+03 0.  0.
    8880022    1    1    2    0    0 -0.80639291072E+03  0.54080202789E+01  0.62052522450E+03  0.10289518844E+04  0.15294330000E+03 0.  0.
<mgrwt>
<rscale>  0 0.98109237E+03</rscale>
<asrwt>0</asrwt>
<pdfrwt beam="1">  1        1 0.15507123E+00 0.10412055E+04</pdfrwt>
<pdfrwt beam="2">  1       -1 0.25898805E+00 0.10412055E+04</pdfrwt>
<totfact> 0.91151999E-01</totfact>
</mgrwt>
</event>
<event>
 4    1  0.2514307E-008  0.9028318E+03  0.7818608E-02  0.9521501E-01
          1   -1    0    0  501    0  0.00000000000E+00  0.00000000000E+00  0.13559391138E+04  0.13559391138E+04  0.50400000000E-02 0. -1.
         -1   -1    0    0    0  501 -0.00000000000E+00 -0.00000000000E+00 -0.67577719746E+03  0.67577719748E+03  0.50400000000E-02 0.  1.
    8880023    1    1    2    0    0  0.55438589419E+03 -0.27193979923E+03 -0.22019559531E+03  0.92929612102E+03  0.65864270000E+03 0.  0.
    8880022    1    1    2    0    0 -0.55438589419E+03  0.27193979923E+03  0.90035751162E+03  0.11024201902E+04  0.15294330000E+03 0.  0.
<mgrwt>
<rscale>  0 0.82717038E+03</rscale>
<asrwt>0</asrwt>
<pdfrwt beam="1">  1        1 0.20860601E+00 0.90283176E+03</pdfrwt>
<pdfrwt beam="2">  1       -1 0.10396572E+00 0.90283176E+03</pdfrwt>
<totfact> 0.73064872E+00</totfact>
</mgrwt>
</event>
<event>
 4    1  0.2514307E-008  0.6730668E+03  0.7818608E-02  0.1013553E+00
         -1   -1    0    0    0  501 -0.00000000000E+00  0.00000000000E+00  0.21551913041E+04  0.21551913042E+04  0.50400000000E-02 0.  1.
          1   -1    0    0  501    0  0.00000000000E+00 -0.00000000000E+00 -0.21773125199E+03  0.21773125205E+03  0.50400000000E-02 0. -1.
    8880023    1    1    2    0    0  0.13514502639E+03  0.30733547122E+02  0.20358836823E+04  0.21442577511E+04  0.65864270000E+03 0.  1.
    8880022    1    1    2    0    0 -0.13514502639E+03 -0.30733547122E+02 -0.98423630181E+02  0.22866480505E+03  0.15294330000E+03 0.  0.
<mgrwt>
<rscale>  0 0.50086458E+03</rscale>
<asrwt>0</asrwt>
<pdfrwt beam="1">  1        1 0.33497117E-01 0.67306681E+03</pdfrwt>
<pdfrwt beam="2">  1       -1 0.33156788E+00 0.67306681E+03</pdfrwt>
<totfact> 0.29175613E+00</totfact>
</mgrwt>
</event>
<event>
 4    1  0.2514307E-008  0.6739008E+03  0.7818608E-02  0.1013008E+00
         -1   -1    0    0    0  501 -0.00000000000E+00  0.00000000000E+00  0.44964084928E+03  0.44964084931E+03  0.50400000000E-02 0.  1.
          1   -1    0    0  501    0  0.00000000000E+00 -0.00000000000E+00 -0.45688785522E+03  0.45688785525E+03  0.50400000000E-02 0. -1.
    8880023    1    1    2    0    0 -0.10577092898E+03 -0.95627575666E+02  0.82593587914E+02  0.67894331845E+03  0.65864270000E+03 0.  0.
    8880022    1    1    2    0    0  0.10577092898E+03  0.95627575666E+02 -0.89840593857E+02  0.22758538610E+03  0.15294330000E+03 0.  1.
<mgrwt>
<rscale>  0 0.50296377E+03</rscale>
<asrwt>0</asrwt>
<pdfrwt beam="1">  1        1 0.70290439E-01 0.67390083E+03</pdfrwt>
<pdfrwt beam="2">  1       -1 0.69175516E-01 0.67390083E+03</pdfrwt>
<totfact> 0.10841357E+02</totfact>
</mgrwt>
</event>
<event>
 4    1  0.2514307E-008  0.6704904E+03  0.7818608E-02  0.1015314E+00
          1   -1    0    0  501    0  0.00000000000E+00  0.00000000000E+00  0.14063892226E+04  0.14063892226E+04  0.50400000000E-02 0. -1.
         -1   -1    0    0    0  501 -0.00000000000E+00 -0.00000000000E+00 -0.14990632992E+04  0.14990632992E+04  0.50400000000E-02 0.  1.
    8880023    1    1    2    0    0  0.11887493448E+03 -0.40198899082E+02 -0.14163696377E+04  0.15670546762E+04  0.65864270000E+03 0.  1.
    8880022    1    1    2    0    0 -0.11887493448E+03  0.40198899082E+02  0.13236955611E+04  0.13383978456E+04  0.15294330000E+03 0.  0.
<mgrwt>
<rscale>  0 0.49416325E+03</rscale>
<asrwt>0</asrwt>
<pdfrwt beam="1">  1        1 0.21636757E+00 0.67049042E+03</pdfrwt>
<pdfrwt beam="2">  1       -1 0.23062512E+00 0.67049042E+03</pdfrwt>
<totfact> 0.76432569E-01</totfact>
</mgrwt>
</event>
<event>
 4    1  0.2514307E-008  0.7455775E+03  0.7818608E-02  0.9843988E-01
          1   -1    0    0  501    0  0.00000000000E+00  0.00000000000E+00  0.14293635183E+04  0.14293635184E+04  0.50400000000E-02 0. -1.
         -1   -1    0    0    0  501 -0.00000000000E+00 -0.00000000000E+00 -0.73899093897E+03  0.73899093898E+03  0.50400000000E-02 0.  1.
    8880023    1    1    2    0    0 -0.30487128775E+03 -0.17067233386E+03 -0.51363806809E+03  0.90537827392E+03  0.65864270000E+03 0.  1.
    8880022    1    1    2    0    0  0.30487128775E+03  0.17067233386E+03  0.12040106475E+04  0.12629761834E+04  0.15294330000E+03 0.  0.
<mgrwt>
<rscale>  0 0.63054373E+03</rscale>
<asrwt>0</asrwt>
<pdfrwt beam="1">  1        1 0.21990208E+00 0.74557746E+03</pdfrwt>
<pdfrwt beam="2">  1       -1 0.11369092E+00 0.74557746E+03</pdfrwt>
<totfact> 0.53829380E+00</totfact>
</mgrwt>
</event>
<event>
 4    1  0.2514307E-008  0.7570618E+03  0.7818608E-02  0.9812774E-01
         -1   -1    0    0    0  501 -0.00000000000E+00  0.00000000000E+00  0.10909469781E+04  0.10909469781E+04  0.50400000000E-02 0.  1.
          1   -1    0    0  501    0  0.00000000000E+00 -0.00000000000E+00 -0.12570564012E+04  0.12570564012E+04  0.50400000000E-02 0. -1.
    8880023    1    1    2    0    0  0.61249121897E+02  0.36821314300E+03  0.91880431946E+03  0.11905225564E+04  0.65864270000E+03 0.  1.
    8880022    1    1    2    0    0 -0.61249121897E+02 -0.36821314300E+03 -0.10849137425E+04  0.11574808229E+04  0.15294330000E+03 0.  0.
<mgrwt>
<rscale>  0 0.64681482E+03</rscale>
<asrwt>0</asrwt>
<pdfrwt beam="1">  1        1 0.19339329E+00 0.75706181E+03</pdfrwt>
<pdfrwt beam="2">  1       -1 0.16783800E+00 0.75706181E+03</pdfrwt>
<totfact> 0.25828749E+00</totfact>
</mgrwt>
</event>
<event>
 4    1  0.2514307E-008  0.7792766E+03  0.7818608E-02  0.9757539E-01
          1   -1    0    0  501    0  0.00000000000E+00  0.00000000000E+00  0.48766891117E+03  0.48766891119E+03  0.50400000000E-02 0. -1.
         -1   -1    0    0    0  501 -0.00000000000E+00 -0.00000000000E+00 -0.20728471669E+04  0.20728471669E+04  0.50400000000E-02 0.  1.
    8880023    1    1    2    0    0 -0.60890545584E+02  0.41201223444E+03 -0.18750485716E+04  0.20305366512E+04  0.65864270000E+03 0.  1.
    8880022    1    1    2    0    0  0.60890545584E+02 -0.41201223444E+03  0.28987031587E+03  0.52997942687E+03  0.15294330000E+03 0.  0.
<mgrwt>
<rscale>  0 0.67691879E+03</rscale>
<asrwt>0</asrwt>
<pdfrwt beam="1">  1        1 0.75025987E-01 0.77927655E+03</pdfrwt>
<pdfrwt beam="2">  1       -1 0.31889956E+00 0.77927655E+03</pdfrwt>
<totfact> 0.12007505E+00</totfact>
</mgrwt>
</event>
<event>
 4    1  0.2514307E-008  0.1122637E+04  0.7818608E-02  0.9236262E-01
          1   -1    0    0  501    0  0.00000000000E+00  0.00000000000E+00  0.18964655891E+04  0.18964655891E+04  0.50400000000E-02 0. -1.
         -1   -1    0    0    0  501 -0.00000000000E+00 -0.00000000000E+00 -0.11796845732E+04  0.11796845732E+04  0.50400000000E-02 0.  1.
    8880023    1    1    2    0    0  0.10617014117E+03 -0.90290125551E+03 -0.74542800052E+03  0.13475814952E+04  0.65864270000E+03 0.  1.
    8880022    1    1    2    0    0 -0.10617014117E+03  0.90290125551E+03  0.14622090164E+04  0.17285686671E+04  0.15294330000E+03 0.  0.
<mgrwt>
<rscale>  0 0.10686858E+04</rscale>
<asrwt>0</asrwt>
<pdfrwt beam="1">  1        1 0.29176393E+00 0.11226366E+04</pdfrwt>
<pdfrwt beam="2">  1       -1 0.18148994E+00 0.11226366E+04</pdfrwt>
<totfact> 0.70556822E-01</totfact>
</mgrwt>
</event>
<event>
 4    1  0.2514307E-008  0.7896099E+03  0.7818608E-02  0.9733729E-01
         -1   -1    0    0    0  501 -0.00000000000E+00  0.00000000000E+00  0.36525698743E+03  0.36525698746E+03  0.50400000000E-02 0.  1.
          1   -1    0    0  501    0  0.00000000000E+00 -0.00000000000E+00 -0.27249702286E+04  0.27249702286E+04  0.50400000000E-02 0. -1.
    8880023    1    1    2    0    0  0.41367914196E+03  0.13617318912E+03 -0.24886952014E+04  0.26109553006E+04  0.65864270000E+03 0. -1.
    8880022    1    1    2    0    0 -0.41367914196E+03 -0.13617318912E+03  0.12898196019E+03  0.47927191551E+03  0.15294330000E+03 0.  0.
<mgrwt>
<rscale>  0 0.69043612E+03</rscale>
<asrwt>0</asrwt>
<pdfrwt beam="1">  1        1 0.41922618E+00 0.78960989E+03</pdfrwt>
<pdfrwt beam="2">  1       -1 0.56193384E-01 0.78960989E+03</pdfrwt>
<totfact> 0.31943356E+00</totfact>
</mgrwt>
</event>
<event>
 4    1  0.2514307E-008  0.9154943E+03  0.7818608E-02  0.9501602E-01
          1   -1    0    0  501    0  0.00000000000E+00  0.00000000000E+00  0.19738561407E+04  0.19738561407E+04  0.50400000000E-02 0. -1.
         -1   -1    0    0    0  501 -0.00000000000E+00 -0.00000000000E+00 -0.47352055216E+03  0.47352055219E+03  0.50400000000E-02 0.  1.
    8880023    1    1    2    0    0  0.62885947830E+03  0.94103398398E+02  0.12437951149E+03  0.92390484477E+03  0.65864270000E+03 0.  0.
    8880022    1    1    2    0    0 -0.62885947830E+03 -0.94103398398E+02  0.13759560770E+04  0.15234718481E+04  0.15294330000E+03 0.  0.
<mgrwt>
<rscale>  0 0.84165789E+03</rscale>
<asrwt>0</asrwt>
<pdfrwt beam="1">  1        1 0.30367018E+00 0.91549435E+03</pdfrwt>
<pdfrwt beam="2">  1       -1 0.72849315E-01 0.91549435E+03</pdfrwt>
<totfact> 0.60290146E+00</totfact>
</mgrwt>
</event>
<event>
 4    1  0.2514307E-008  0.6636556E+03  0.7818608E-02  0.1020689E+00
          1   -1    0    0  501    0  0.00000000000E+00  0.00000000000E+00  0.29733434948E+04  0.29733434949E+04  0.50400000000E-02 0. -1.
         -1   -1    0    0    0  501 -0.00000000000E+00 -0.00000000000E+00 -0.18590249325E+03  0.18590249331E+03  0.50400000000E-02 0.  1.
    8880023    1    1    2    0    0  0.69135697996E+02  0.42997724890E+02  0.41982189001E+03  0.78529559700E+03  0.65864270000E+03 0.  1.
    8880022    1    1    2    0    0 -0.69135697996E+02 -0.42997724890E+02  0.23676191116E+04  0.23739503912E+04  0.15294330000E+03 0.  0.
<mgrwt>
<rscale>  0 0.47438809E+03</rscale>
<asrwt>0</asrwt>
<pdfrwt beam="1">  1        1 0.45743745E+00 0.66365560E+03</pdfrwt>
<pdfrwt beam="2">  1       -1 0.28600384E-01 0.66365560E+03</pdfrwt>
<totfact> 0.74984410E+00</totfact>
</mgrwt>
</event>
<event>
 4    1  0.2514307E-008  0.8326518E+03  0.7818608E-02  0.9644195E-01
         -1   -1    0    0    0  501 -0.00000000000E+00  0.00000000000E+00  0.10554421201E+04  0.10554421201E+04  0.50400000000E-02 0.  1.
          1   -1    0    0  501    0  0.00000000000E+00 -0.00000000000E+00 -0.63273860086E+03  0.63273860088E+03  0.50400000000E-02 0. -1.
    8880023    1    1    2    0    0  0.34389444878E+03 -0.37581302753E+03  0.70050694285E+03  0.10881263745E+04  0.65864270000E+03 0.  0.
    8880022    1    1    2    0    0 -0.34389444878E+03  0.37581302753E+03 -0.27780342363E+03  0.60005434651E+03  0.15294330000E+03 0.  0.
<mgrwt>
<rscale>  0 0.74438885E+03</rscale>
<asrwt>0</asrwt>
<pdfrwt beam="1">  1        1 0.97344400E-01 0.83265181E+03</pdfrwt>
<pdfrwt beam="2">  1       -1 0.16237571E+00 0.83265181E+03</pdfrwt>
<totfact> 0.90710913E+00</totfact>
</mgrwt>
</event>
<event>
 4    1  0.2514307E-008  0.1038701E+04  0.7818608E-02  0.9332589E-01
         -1   -1    0    0    0  501 -0.00000000000E+00  0.00000000000E+00  0.24601677306E+04  0.24601677306E+04  0.50400000000E-02 0.  1.
          1   -1    0    0  501    0  0.00000000000E+00 -0.00000000000E+00 -0.11488908878E+04  0.11488908879E+04  0.50400000000E-02 0. -1.
    8880023    1    1    2    0    0 -0.48728042376E+03  0.63847347914E+03  0.21807886211E+04  0.24155206087E+04  0.65864270000E+03 0.  1.
    8880022    1    1    2    0    0  0.48728042376E+03 -0.63847347914E+03 -0.86951177836E+03  0.11935380097E+04  0.15294330000E+03 0.  0.
<mgrwt>
<rscale>  0 0.97837265E+03</rscale>
<asrwt>0</asrwt>
<pdfrwt beam="1">  1        1 0.17675244E+00 0.10387015E+04</pdfrwt>
<pdfrwt beam="2">  1       -1 0.37848734E+00 0.10387015E+04</pdfrwt>
<totfact> 0.11873997E-01</totfact>
</mgrwt>
</event>
<event>
 4    1  0.2514307E-008  0.1271982E+04  0.7818608E-02  0.9090141E-01
         -1   -1    0    0    0  501 -0.00000000000E+00  0.00000000000E+00  0.45120744338E+04  0.45120744338E+04  0.50400000000E-02 0.  1.
          1   -1    0    0  501    0  0.00000000000E+00 -0.00000000000E+00 -0.40208439294E+03  0.40208439298E+03  0.50400000000E-02 0. -1.
    8880023    1    1    2    0    0 -0.26876163587E+03  0.10544640146E+04  0.33354349763E+04  0.35697428286E+04  0.65864270000E+03 0.  1.
    8880022    1    1    2    0    0  0.26876163587E+03 -0.10544640146E+04  0.77455506451E+03  0.13444159981E+04  0.15294330000E+03 0.  0.
<mgrwt>
<rscale>  0 0.12263018E+04</rscale>
<asrwt>0</asrwt>
<pdfrwt beam="1">  1        1 0.61859139E-01 0.12719817E+04</pdfrwt>
<pdfrwt beam="2">  1       -1 0.69416527E+00 0.12719817E+04</pdfrwt>
<totfact> 0.12130417E-02</totfact>
</mgrwt>
</event>
<event>
 4    1  0.2514307E-008  0.1433323E+04  0.7818608E-02  0.8958213E-01
          1   -1    0    0  501    0  0.00000000000E+00  0.00000000000E+00  0.17835040448E+04  0.17835040448E+04  0.50400000000E-02 0. -1.
         -1   -1    0    0    0  501 -0.00000000000E+00 -0.00000000000E+00 -0.16779534665E+04  0.16779534665E+04  0.50400000000E-02 0.  1.
    8880023    1    1    2    0    0  0.16805253863E+03  0.12618882127E+04 -0.10168711425E+04  0.17573959838E+04  0.65864270000E+03 0.  0.
    8880022    1    1    2    0    0 -0.16805253863E+03 -0.12618882127E+04  0.11224217208E+04  0.17040615275E+04  0.15294330000E+03 0.  0.
<mgrwt>
<rscale>  0 0.13939447E+04</rscale>
<asrwt>0</asrwt>
<pdfrwt beam="1">  1        1 0.27438524E+00 0.14333226E+04</pdfrwt>
<pdfrwt beam="2">  1       -1 0.25814669E+00 0.14333226E+04</pdfrwt>
<totfact> 0.24543381E-01</totfact>
</mgrwt>
</event>
<event>
 4    1  0.2514307E-008  0.6876285E+03  0.7818608E-02  0.1005301E+00
          1   -1    0    0  501    0  0.00000000000E+00  0.00000000000E+00  0.15710716439E+04  0.15710716439E+04  0.50400000000E-02 0. -1.
         -1   -1    0    0    0  501 -0.00000000000E+00 -0.00000000000E+00 -0.43668564340E+03  0.43668564343E+03  0.50400000000E-02 0.  1.
    8880023    1    1    2    0    0 -0.11973657445E+03  0.15711728121E+03 -0.14622571792E+03  0.70300416369E+03  0.65864270000E+03 0.  1.
    8880022    1    1    2    0    0  0.11973657445E+03 -0.15711728121E+03  0.12806117184E+04  0.13047531237E+04  0.15294330000E+03 0.  0.
<mgrwt>
<rscale>  0 0.53385821E+03</rscale>
<asrwt>0</asrwt>
<pdfrwt beam="1">  1        1 0.24170332E+00 0.68762846E+03</pdfrwt>
<pdfrwt beam="2">  1       -1 0.67182409E-01 0.68762846E+03</pdfrwt>
<totfact> 0.13733207E+01</totfact>
</mgrwt>
</event>
<event>
 4    1  0.2514307E-008  0.6673544E+03  0.7818608E-02  0.1017635E+00
          1   -1    0    0  501    0  0.00000000000E+00  0.00000000000E+00  0.65379028355E+03  0.65379028357E+03  0.50400000000E-02 0. -1.
         -1   -1    0    0    0  501 -0.00000000000E+00 -0.00000000000E+00 -0.42169321061E+03  0.42169321064E+03  0.50400000000E-02 0.  1.
    8880023    1    1    2    0    0  0.10671023208E+03  0.12831402331E+02 -0.11885153335E+03  0.67785515544E+03  0.65864270000E+03 0.  1.
    8880022    1    1    2    0    0 -0.10671023208E+03 -0.12831402331E+02  0.35094860629E+03  0.39762833876E+03  0.15294330000E+03 0.  0.
<mgrwt>
<rscale>  0 0.48549863E+03</rscale>
<asrwt>0</asrwt>
<pdfrwt beam="1">  1        1 0.10058312E+00 0.66735442E+03</pdfrwt>
<pdfrwt beam="2">  1       -1 0.64875879E-01 0.66735442E+03</pdfrwt>
<totfact> 0.74702638E+01</totfact>
</mgrwt>
</event>
<event>
 4    1  0.2514307E-008  0.1186251E+04  0.7818608E-02  0.9170605E-01
          1   -1    0    0  501    0  0.00000000000E+00  0.00000000000E+00  0.23791022685E+04  0.23791022685E+04  0.50400000000E-02 0. -1.
         -1   -1    0    0    0  501 -0.00000000000E+00 -0.00000000000E+00 -0.73355514562E+03  0.73355514564E+03  0.50400000000E-02 0.  1.
    8880023    1    1    2    0    0 -0.19766527114E+03 -0.96659645617E+03 -0.19555630067E+01  0.11862522072E+04  0.65864270000E+03 0.  0.
    8880022    1    1    2    0    0  0.19766527114E+03  0.96659645617E+03  0.16475026859E+04  0.19264052070E+04  0.15294330000E+03 0.  0.
<mgrwt>
<rscale>  0 0.11362053E+04</rscale>
<asrwt>0</asrwt>
<pdfrwt beam="1">  1        1 0.36601574E+00 0.11862506E+04</pdfrwt>
<pdfrwt beam="2">  1       -1 0.11285464E+00 0.11862506E+04</pdfrwt>
<totfact> 0.11672334E+00</totfact>
</mgrwt>
</event>
<event>
 4    1  0.2514307E-008  0.8504732E+03  0.7818608E-02  0.9610740E-01
          1   -1    0    0  501    0  0.00000000000E+00  0.00000000000E+00  0.12815037608E+04  0.12815037608E+04  0.50400000000E-02 0. -1.
         -1   -1    0    0    0  501 -0.00000000000E+00 -0.00000000000E+00 -0.54080833636E+03  0.54080833638E+03  0.50400000000E-02 0.  1.
    8880023    1    1    2    0    0  0.47274955565E+03 -0.25690930665E+03 -0.52078677784E+02  0.85206627040E+03  0.65864270000E+03 0.  0.
    8880022    1    1    2    0    0 -0.47274955565E+03  0.25690930665E+03  0.79277410220E+03  0.97024582676E+03  0.15294330000E+03 0.  0.
<mgrwt>
<rscale>  0 0.76589422E+03</rscale>
<asrwt>0</asrwt>
<pdfrwt beam="1">  1        1 0.19715442E+00 0.85047325E+03</pdfrwt>
<pdfrwt beam="2">  1       -1 0.83201284E-01 0.85047325E+03</pdfrwt>
<totfact> 0.13651215E+01</totfact>
</mgrwt>
</event>
<event>
 4    1  0.2514307E-008  0.1232208E+04  0.7818608E-02  0.9126432E-01
         -1   -1    0    0    0  501 -0.00000000000E+00  0.00000000000E+00  0.99344600216E+03  0.99344600217E+03  0.50400000000E-02 0.  1.
          1   -1    0    0  501    0  0.00000000000E+00 -0.00000000000E+00 -0.41321137593E+04  0.41321137593E+04  0.50400000000E-02 0. -1.
    8880023    1    1    2    0    0  0.10389384188E+04  0.71653524610E+02  0.50591623304E+03  0.13320242891E+04  0.65864270000E+03 0.  0.
    8880022    1    1    2    0    0 -0.10389384188E+04 -0.71653524610E+02 -0.36445839902E+04  0.37935354724E+04  0.15294330000E+03 0.  0.
<mgrwt>
<rscale>  0 0.11846133E+04</rscale>
<asrwt>0</asrwt>
<pdfrwt beam="1">  1        1 0.63570980E+00 0.12322084E+04</pdfrwt>
<pdfrwt beam="2">  1       -1 0.15283785E+00 0.12322084E+04</pdfrwt>
<totfact> 0.24431452E-02</totfact>
</mgrwt>
</event>
<event>
 4    1  0.2514307E-008  0.1417296E+04  0.7818608E-02  0.8970359E-01
          1   -1    0    0  501    0  0.00000000000E+00  0.00000000000E+00  0.14421677108E+04  0.14421677108E+04  0.50400000000E-02 0. -1.
         -1   -1    0    0    0  501 -0.00000000000E+00 -0.00000000000E+00 -0.13938818068E+04  0.13938818068E+04  0.50400000000E-02 0.  1.
    8880023    1    1    2    0    0  0.11024076495E+04 -0.59967897292E+03 -0.43505007207E+03  0.14825640855E+04  0.65864270000E+03 0.  0.
    8880022    1    1    2    0    0 -0.11024076495E+04  0.59967897292E+03  0.48333597609E+03  0.13534854321E+04  0.15294330000E+03 0.  0.
<mgrwt>
<rscale>  0 0.13773775E+04</rscale>
<asrwt>0</asrwt>
<pdfrwt beam="1">  1        1 0.22187196E+00 0.14172959E+04</pdfrwt>
<pdfrwt beam="2">  1       -1 0.21444336E+00 0.14172959E+04</pdfrwt>
<totfact> 0.82268002E-01</totfact>
</mgrwt>
</event>
<event>
 4    1  0.2514307E-008  0.1064724E+04  0.7818608E-02  0.9301387E-01
         -1   -1    0    0    0  501 -0.00000000000E+00  0.00000000000E+00  0.66661365191E+03  0.66661365193E+03  0.50400000000E-02 0.  1.
          1   -1    0    0  501    0  0.00000000000E+00 -0.00000000000E+00 -0.18350451745E+04  0.18350451745E+04  0.50400000000E-02 0. -1.
    8880023    1    1    2    0    0  0.67138450460E+03  0.49906984091E+03 -0.10234801188E+02  0.10647735987E+04  0.65864270000E+03 0.  0.
    8880022    1    1    2    0    0 -0.67138450460E+03 -0.49906984091E+03 -0.11581967214E+04  0.14368852277E+04  0.15294330000E+03 0.  0.
<mgrwt>
<rscale>  0 0.10065531E+04</rscale>
<asrwt>0</asrwt>
<pdfrwt beam="1">  1        1 0.28231464E+00 0.10647244E+04</pdfrwt>
<pdfrwt beam="2">  1       -1 0.10255595E+00 0.10647244E+04</pdfrwt>
<totfact> 0.34704392E+00</totfact>
</mgrwt>
</event>
<event>
 4    1  0.2514307E-008  0.7668517E+03  0.7818608E-02  0.9787682E-01
          1   -1    0    0  501    0  0.00000000000E+00  0.00000000000E+00  0.47313044306E+03  0.47313044309E+03  0.50400000000E-02 0. -1.
         -1   -1    0    0    0  501 -0.00000000000E+00 -0.00000000000E+00 -0.18898884940E+04  0.18898884940E+04  0.50400000000E-02 0.  1.
    8880023    1    1    2    0    0  0.37520730371E+03  0.11606370984E+03 -0.16933455780E+04  0.18588923472E+04  0.65864270000E+03 0.  1.
    8880022    1    1    2    0    0 -0.37520730371E+03 -0.11606370984E+03  0.27658752710E+03  0.50412658991E+03  0.15294330000E+03 0.  0.
<mgrwt>
<rscale>  0 0.66027831E+03</rscale>
<asrwt>0</asrwt>
<pdfrwt beam="1">  1        1 0.72789300E-01 0.76685169E+03</pdfrwt>
<pdfrwt beam="2">  1       -1 0.29075207E+00 0.76685169E+03</pdfrwt>
<totfact> 0.18997231E+00</totfact>
</mgrwt>
</event>
<event>
 4    1  0.2514307E-008  0.9467242E+03  0.7818608E-02  0.9454843E-01
          1   -1    0    0  501    0  0.00000000000E+00  0.00000000000E+00  0.15184155797E+04  0.15184155797E+04  0.50400000000E-02 0. -1.
         -1   -1    0    0    0  501 -0.00000000000E+00 -0.00000000000E+00 -0.13171158732E+04  0.13171158733E+04  0.50400000000E-02 0.  1.
    8880023    1    1    2    0    0 -0.66809576212E+03  0.12698262126E+03 -0.10434349876E+04  0.14089156515E+04  0.65864270000E+03 0.  0.
    8880022    1    1    2    0    0  0.66809576212E+03 -0.12698262126E+03  0.12447346941E+04  0.14266158015E+04  0.15294330000E+03 0.  0.
<mgrwt>
<rscale>  0 0.87696533E+03</rscale>
<asrwt>0</asrwt>
<pdfrwt beam="1">  1        1 0.23360240E+00 0.94672422E+03</pdfrwt>
<pdfrwt beam="2">  1       -1 0.20263321E+00 0.94672422E+03</pdfrwt>
<totfact> 0.93168022E-01</totfact>
</mgrwt>
</event>
<event>
 4    1  0.2514307E-008  0.7041240E+03  0.7818608E-02  0.9980505E-01
         -1   -1    0    0    0  501 -0.00000000000E+00  0.00000000000E+00  0.28444957160E+03  0.28444957165E+03  0.50400000000E-02 0.  1.
          1   -1    0    0  501    0  0.00000000000E+00 -0.00000000000E+00 -0.18428710451E+04  0.18428710451E+04  0.50400000000E-02 0. -1.
    8880023    1    1    2    0    0 -0.11823235922E+03 -0.21909239543E+03 -0.19175222987E+03  0.72976673836E+03  0.65864270000E+03 0.  1.
    8880022    1    1    2    0    0  0.11823235922E+03  0.21909239543E+03 -0.13666692436E+04  0.13975538784E+04  0.15294330000E+03 0.  0.
<mgrwt>
<rscale>  0 0.56513382E+03</rscale>
<asrwt>0</asrwt>
<pdfrwt beam="1">  1        1 0.28351862E+00 0.70412398E+03</pdfrwt>
<pdfrwt beam="2">  1       -1 0.43761474E-01 0.70412398E+03</pdfrwt>
<totfact> 0.20548259E+01</totfact>
</mgrwt>
</event>
<event>
 4    1  0.2514307E-008  0.8759150E+03  0.7818608E-02  0.9565858E-01
          1   -1    0    0  501    0  0.00000000000E+00  0.00000000000E+00  0.10776820638E+04  0.10776820638E+04  0.50400000000E-02 0. -1.
         -1   -1    0    0    0  501 -0.00000000000E+00 -0.00000000000E+00 -0.68923470392E+03  0.68923470394E+03  0.50400000000E-02 0.  1.
    8880023    1    1    2    0    0  0.45510081701E+03  0.35538726874E+03 -0.23152993241E+03  0.90599844387E+03  0.65864270000E+03 0.  1.
    8880022    1    1    2    0    0 -0.45510081701E+03 -0.35538726874E+03  0.61997729226E+03  0.86091832386E+03  0.15294330000E+03 0.  0.
<mgrwt>
<rscale>  0 0.79597765E+03</rscale>
<asrwt>0</asrwt>
<pdfrwt beam="1">  1        1 0.16579724E+00 0.87591499E+03</pdfrwt>
<pdfrwt beam="2">  1       -1 0.10603611E+00 0.87591499E+03</pdfrwt>
<totfact> 0.11148120E+01</totfact>
</mgrwt>
</event>
<event>
 4    1  0.2514307E-008  0.1048107E+04  0.7818608E-02  0.9321160E-01
          1   -1    0    0  501    0  0.00000000000E+00  0.00000000000E+00  0.16611401353E+04  0.16611401353E+04  0.50400000000E-02 0. -1.
         -1   -1    0    0    0  501 -0.00000000000E+00 -0.00000000000E+00 -0.22593319221E+04  0.22593319222E+04  0.50400000000E-02 0.  1.
    8880023    1    1    2    0    0 -0.52060904440E+03 -0.62744315344E+03 -0.20192262276E+04  0.22750392200E+04  0.65864270000E+03 0.  0.
    8880022    1    1    2    0    0  0.52060904440E+03  0.62744315344E+03  0.14210344407E+04  0.16454328375E+04  0.15294330000E+03 0.  0.
<mgrwt>
<rscale>  0 0.98857942E+03</rscale>
<asrwt>0</asrwt>
<pdfrwt beam="1">  1        1 0.25556002E+00 0.10481073E+04</pdfrwt>
<pdfrwt beam="2">  1       -1 0.34758952E+00 0.10481073E+04</pdfrwt>
<totfact> 0.82905141E-02</totfact>
</mgrwt>
</event>
<event>
 4    1  0.2514307E-008  0.6925254E+03  0.7818608E-02  0.1002975E+00
          1   -1    0    0  501    0  0.00000000000E+00  0.00000000000E+00  0.49772413612E+03  0.49772413614E+03  0.50400000000E-02 0. -1.
         -1   -1    0    0    0  501 -0.00000000000E+00 -0.00000000000E+00 -0.12370327913E+04  0.12370327914E+04  0.50400000000E-02 0.  1.
    8880023    1    1    2    0    0 -0.13822426375E+03  0.16332549421E+03 -0.10930433333E+04  0.12939610114E+04  0.65864270000E+03 0.  1.
    8880022    1    1    2    0    0  0.13822426375E+03 -0.16332549421E+03  0.35373467811E+03  0.44079591612E+03  0.15294330000E+03 0.  0.
<mgrwt>
<rscale>  0 0.54364912E+03</rscale>
<asrwt>0</asrwt>
<pdfrwt beam="1">  1        1 0.76572945E-01 0.69252536E+03</pdfrwt>
<pdfrwt beam="2">  1       -1 0.19031274E+00 0.69252536E+03</pdfrwt>
<totfact> 0.81595764E+00</totfact>
</mgrwt>
</event>
<event>
 4    1  0.2514307E-008  0.7342142E+03  0.7818608E-02  0.9877133E-01
          1   -1    0    0  501    0  0.00000000000E+00  0.00000000000E+00  0.10575660940E+04  0.10575660941E+04  0.50400000000E-02 0. -1.
         -1   -1    0    0    0  501 -0.00000000000E+00 -0.00000000000E+00 -0.69115361661E+03  0.69115361663E+03  0.50400000000E-02 0.  1.
    8880023    1    1    2    0    0 -0.61254738138E+02 -0.31860334342E+03 -0.44710814631E+03  0.85963721077E+03  0.65864270000E+03 0.  1.
    8880022    1    1    2    0    0  0.61254738138E+02  0.31860334342E+03  0.81352062375E+03  0.88908249992E+03  0.15294330000E+03 0.  0.
<mgrwt>
<rscale>  0 0.61382432E+03</rscale>
<asrwt>0</asrwt>
<pdfrwt beam="1">  1        1 0.16270248E+00 0.73421416E+03</pdfrwt>
<pdfrwt beam="2">  1       -1 0.10633133E+00 0.73421416E+03</pdfrwt>
<totfact> 0.11679054E+01</totfact>
</mgrwt>
</event>
<event>
 4    1  0.2514307E-008  0.1115396E+04  0.7818608E-02  0.9244105E-01
          1   -1    0    0  501    0  0.00000000000E+00  0.00000000000E+00  0.29923495849E+04  0.29923495849E+04  0.50400000000E-02 0. -1.
         -1   -1    0    0    0  501 -0.00000000000E+00 -0.00000000000E+00 -0.78606950573E+03  0.78606950575E+03  0.50400000000E-02 0.  1.
    8880023    1    1    2    0    0 -0.57501550115E+03  0.69257166875E+03 -0.26278596213E+03  0.11459341216E+04  0.65864270000E+03 0.  0.
    8880022    1    1    2    0    0  0.57501550115E+03 -0.69257166875E+03  0.24690660413E+04  0.26324849690E+04  0.15294330000E+03 0.  0.
<mgrwt>
<rscale>  0 0.10609561E+04</rscale>
<asrwt>0</asrwt>
<pdfrwt beam="1">  1        1 0.46036148E+00 0.11153961E+04</pdfrwt>
<pdfrwt beam="2">  1       -1 0.12093377E+00 0.11153961E+04</pdfrwt>
<totfact> 0.37054405E-01</totfact>
</mgrwt>
</event>
<event>
 4    1  0.2514307E-008  0.1650732E+04  0.7818608E-02  0.8809936E-01
          1   -1    0    0  501    0  0.00000000000E+00  0.00000000000E+00  0.21689322562E+04  0.21689322563E+04  0.50400000000E-02 0. -1.
         -1   -1    0    0    0  501 -0.00000000000E+00 -0.00000000000E+00 -0.16051035640E+04  0.16051035640E+04  0.50400000000E-02 0.  1.
    8880023    1    1    2    0    0  0.46795769371E+03 -0.14394868707E+04 -0.70310448766E+03  0.17942332571E+04  0.65864270000E+03 0.  0.
    8880022    1    1    2    0    0 -0.46795769371E+03  0.14394868707E+04  0.12669331799E+04  0.19798025632E+04  0.15294330000E+03 0.  0.
<mgrwt>
<rscale>  0 0.16173894E+04</rscale>
<asrwt>0</asrwt>
<pdfrwt beam="1">  1        1 0.33368188E+00 0.16507323E+04</pdfrwt>
<pdfrwt beam="2">  1       -1 0.24693901E+00 0.16507323E+04</pdfrwt>
<totfact> 0.15476593E-01</totfact>
</mgrwt>
</event>
<event>
 4    1  0.3167310E-008  0.9761691E+03  0.7818608E-02  0.9413422E-01
         -1   -1    0    0    0  501 -0.00000000000E+00  0.00000000000E+00  0.18216116453E+04  0.18216116453E+04  0.50400000000E-02 0.  1.
          1   -1    0    0  501    0  0.00000000000E+00 -0.00000000000E+00 -0.21496590196E+04  0.21496590196E+04  0.50400000000E-02 0. -1.
    8880023    1    1    2    0    0 -0.21852380347E+03  0.68654443430E+03  0.16184691213E+04  0.18900657173E+04  0.65864270000E+03 0.  1.
    8880022    1    1    2    0    0  0.21852380347E+03 -0.68654443430E+03 -0.19465164956E+04  0.20812049475E+04  0.15294330000E+03 0.  0.
<mgrwt>
<rscale>  0 0.90979284E+03</rscale>
<asrwt>0</asrwt>
<pdfrwt beam="1">  1        1 0.33071677E+00 0.97616910E+03</pdfrwt>
<pdfrwt beam="2">  1       -1 0.28024794E+00 0.97616910E+03</pdfrwt>
<totfact> 0.10739504E-01</totfact>
</mgrwt>
</event>
<event>
 4    1  0.4257267E-008  0.1719784E+04  0.7818608E-02  0.8768257E-01
          1   -1    0    0  501    0  0.00000000000E+00  0.00000000000E+00  0.50421086426E+04  0.50421086426E+04  0.50400000000E-02 0. -1.
         -1   -1    0    0    0  501 -0.00000000000E+00 -0.00000000000E+00 -0.16251297492E+04  0.16251297492E+04  0.50400000000E-02 0.  1.
    8880023    1    1    2    0    0  0.80038561194E+03 -0.13723084737E+04 -0.98706766529E+03  0.19829171583E+04  0.65864270000E+03 0.  0.
    8880022    1    1    2    0    0 -0.80038561194E+03  0.13723084737E+04  0.44040465586E+04  0.46843212335E+04  0.15294330000E+03 0.  0.
<mgrwt>
<rscale>  0 0.16879679E+04</rscale>
<asrwt>0</asrwt>
<pdfrwt beam="1">  1        1 0.77570901E+00 0.17197843E+04</pdfrwt>
<pdfrwt beam="2">  1       -1 0.25001997E+00 0.17197843E+04</pdfrwt>
<totfact> 0.49947669E-04</totfact>
</mgrwt>
</event>
<event>
 4    1  0.2514307E-008  0.9341151E+03  0.7818608E-02  0.9473347E-01
         -1   -1    0    0    0  501 -0.00000000000E+00  0.00000000000E+00  0.65812232744E+03  0.65812232746E+03  0.50400000000E-02 0.  1.
          1   -1    0    0  501    0  0.00000000000E+00 -0.00000000000E+00 -0.31391300132E+04  0.31391300132E+04  0.50400000000E-02 0. -1.
    8880023    1    1    2    0    0  0.32788238240E+03  0.57554660948E+03  0.26288286121E+03  0.97040113425E+03  0.65864270000E+03 0.  1.
    8880022    1    1    2    0    0 -0.32788238240E+03 -0.57554660948E+03 -0.27438905470E+04  0.28268512064E+04  0.15294330000E+03 0.  0.
<mgrwt>
<rscale>  0 0.86277676E+03</rscale>
<asrwt>0</asrwt>
<pdfrwt beam="1">  1        1 0.48294307E+00 0.93411507E+03</pdfrwt>
<pdfrwt beam="2">  1       -1 0.10124959E+00 0.93411507E+03</pdfrwt>
<totfact> 0.45633243E-01</totfact>
</mgrwt>
</event>
<event>
 4    1  0.2514307E-008  0.6697424E+03  0.7818608E-02  0.1015848E+00
         -1   -1    0    0    0  501 -0.00000000000E+00  0.00000000000E+00  0.40516086702E+03  0.40516086705E+03  0.50400000000E-02 0.  1.
          1   -1    0    0  501    0  0.00000000000E+00 -0.00000000000E+00 -0.13317347444E+04  0.13317347444E+04  0.50400000000E-02 0. -1.
    8880023    1    1    2    0    0  0.90388885323E+00  0.12142443197E+03  0.11293921581E+03  0.67919819083E+03  0.65864270000E+03 0.  1.
    8880022    1    1    2    0    0 -0.90388885323E+00 -0.12142443197E+03 -0.10395130932E+04  0.10576974207E+04  0.15294330000E+03 0.  0.
<mgrwt>
<rscale>  0 0.49215088E+03</rscale>
<asrwt>0</asrwt>
<pdfrwt beam="1">  1        1 0.20488227E+00 0.66974243E+03</pdfrwt>
<pdfrwt beam="2">  1       -1 0.62332442E-01 0.66974243E+03</pdfrwt>
<totfact> 0.23373535E+01</totfact>
</mgrwt>
</event>
<event>
 4    1  0.2514307E-008  0.6709177E+03  0.7818608E-02  0.1015013E+00
          1   -1    0    0  501    0  0.00000000000E+00  0.00000000000E+00  0.20581724625E+04  0.20581724625E+04  0.50400000000E-02 0. -1.
         -1   -1    0    0    0  501 -0.00000000000E+00 -0.00000000000E+00 -0.51063082400E+03  0.51063082402E+03  0.50400000000E-02 0.  1.
    8880023    1    1    2    0    0 -0.98846390825E+02  0.80930321535E+02 -0.28248265977E+03  0.72796084047E+03  0.65864270000E+03 0.  1.
    8880022    1    1    2    0    0  0.98846390825E+02 -0.80930321535E+02  0.18300242982E+04  0.18408424460E+04  0.15294330000E+03 0.  0.
<mgrwt>
<rscale>  0 0.49529862E+03</rscale>
<asrwt>0</asrwt>
<pdfrwt beam="1">  1        1 0.31664192E+00 0.67091768E+03</pdfrwt>
<pdfrwt beam="2">  1       -1 0.78558588E-01 0.67091768E+03</pdfrwt>
<totfact> 0.47076066E+00</totfact>
</mgrwt>
</event>
<event>
 4    1  0.2514307E-008  0.1165314E+04  0.7818608E-02  0.9191600E-01
         -1   -1    0    0    0  501 -0.00000000000E+00  0.00000000000E+00  0.52923173749E+03  0.52923173751E+03  0.50400000000E-02 0.  1.
          1   -1    0    0  501    0  0.00000000000E+00 -0.00000000000E+00 -0.35867068126E+04  0.35867068126E+04  0.50400000000E-02 0. -1.
    8880023    1    1    2    0    0  0.50294860394E+03 -0.81926068227E+03 -0.31691429635E+03  0.12076382907E+04  0.65864270000E+03 0.  0.
    8880022    1    1    2    0    0 -0.50294860394E+03  0.81926068227E+03 -0.27405607788E+04  0.29083002594E+04  0.15294330000E+03 0.  0.
<mgrwt>
<rscale>  0 0.11140549E+04</rscale>
<asrwt>0</asrwt>
<pdfrwt beam="1">  1        1 0.55180103E+00 0.11653135E+04</pdfrwt>
<pdfrwt beam="2">  1       -1 0.81420270E-01 0.11653135E+04</pdfrwt>
<totfact> 0.32447672E-01</totfact>
</mgrwt>
</event>
<event>
 4    1  0.2514307E-008  0.1200302E+04  0.7818608E-02  0.9156829E-01
          1   -1    0    0  501    0  0.00000000000E+00  0.00000000000E+00  0.89693058884E+03  0.89693058885E+03  0.50400000000E-02 0. -1.
         -1   -1    0    0    0  501 -0.00000000000E+00 -0.00000000000E+00 -0.15457581313E+04  0.15457581313E+04  0.50400000000E-02 0.  1.
    8880023    1    1    2    0    0 -0.33042433560E+03  0.94748878561E+03 -0.76139662946E+03  0.14214254374E+04  0.65864270000E+03 0.  1.
    8880022    1    1    2    0    0  0.33042433560E+03 -0.94748878561E+03  0.11256908699E+03  0.10212632828E+04  0.15294330000E+03 0. -1.
<mgrwt>
<rscale>  0 0.11510357E+04</rscale>
<asrwt>0</asrwt>
<pdfrwt beam="1">  1        1 0.13798932E+00 0.12003022E+04</pdfrwt>
<pdfrwt beam="2">  1       -1 0.23780894E+00 0.12003022E+04</pdfrwt>
<totfact> 0.15070820E+00</totfact>
</mgrwt>
</event>
<event>
 4    1  0.2514307E-008  0.7831310E+03  0.7818608E-02  0.9748533E-01
          1   -1    0    0  501    0  0.00000000000E+00  0.00000000000E+00  0.16384749410E+04  0.16384749410E+04  0.50400000000E-02 0. -1.
         -1   -1    0    0    0  501 -0.00000000000E+00 -0.00000000000E+00 -0.30167152429E+03  0.30167152433E+03  0.50400000000E-02 0.  1.
    8880023    1    1    2    0    0  0.36145549166E+03 -0.22098399785E+03  0.35476164394E+03  0.85973834975E+03  0.65864270000E+03 0.  1.
    8880022    1    1    2    0    0 -0.36145549166E+03  0.22098399785E+03  0.98204177278E+03  0.10804081156E+04  0.15294330000E+03 0.  0.
<mgrwt>
<rscale>  0 0.68199245E+03</rscale>
<asrwt>0</asrwt>
<pdfrwt beam="1">  1        1 0.25207307E+00 0.78313103E+03</pdfrwt>
<pdfrwt beam="2">  1       -1 0.46411004E-01 0.78313103E+03</pdfrwt>
<totfact> 0.25007482E+01</totfact>
</mgrwt>
</event>
<event>
 4    1  0.2514307E-008  0.7887962E+03  0.7818608E-02  0.9735566E-01
          1   -1    0    0  501    0  0.00000000000E+00  0.00000000000E+00  0.77840125964E+03  0.77840125965E+03  0.50400000000E-02 0. -1.
         -1   -1    0    0    0  501 -0.00000000000E+00 -0.00000000000E+00 -0.59527606158E+03  0.59527606161E+03  0.50400000000E-02 0.  1.
    8880023    1    1    2    0    0  0.43399284137E+03  0.62832749011E+01 -0.15338626831E+03  0.80357129085E+03  0.65864270000E+03 0.  0.
    8880022    1    1    2    0    0 -0.43399284137E+03 -0.62832749011E+01  0.33651146636E+03  0.57010603041E+03  0.15294330000E+03 0.  0.
<mgrwt>
<rscale>  0 0.68938125E+03</rscale>
<asrwt>0</asrwt>
<pdfrwt beam="1">  1        1 0.11975404E+00 0.78879622E+03</pdfrwt>
<pdfrwt beam="2">  1       -1 0.91580932E-01 0.78879622E+03</pdfrwt>
<totfact> 0.27427629E+01</totfact>
</mgrwt>
</event>
<event>
 4    1  0.2514307E-008  0.7797482E+03  0.7818608E-02  0.9756429E-01
          1   -1    0    0  501    0  0.00000000000E+00  0.00000000000E+00  0.15800964573E+04  0.15800964573E+04  0.50400000000E-02 0. -1.
         -1   -1    0    0    0  501 -0.00000000000E+00 -0.00000000000E+00 -0.46582053183E+03  0.46582053186E+03  0.50400000000E-02 0.  1.
    8880023    1    1    2    0    0 -0.17503864069E+03 -0.37889111986E+03 -0.68128811027E+02  0.78271881771E+03  0.65864270000E+03 0.  1.
    8880022    1    1    2    0    0  0.17503864069E+03  0.37889111986E+03  0.11824047365E+04  0.12631981714E+04  0.15294330000E+03 0.  0.
<mgrwt>
<rscale>  0 0.67754169E+03</rscale>
<asrwt>0</asrwt>
<pdfrwt beam="1">  1        1 0.24309177E+00 0.77974817E+03</pdfrwt>
<pdfrwt beam="2">  1       -1 0.71664696E-01 0.77974817E+03</pdfrwt>
<totfact> 0.11707530E+01</totfact>
</mgrwt>
</event>
<event>
 4    1  0.2514307E-008  0.1945432E+04  0.7818608E-02  0.8646087E-01
          1   -1    0    0  501    0  0.00000000000E+00  0.00000000000E+00  0.36132447093E+04  0.36132447093E+04  0.50400000000E-02 0. -1.
         -1   -1    0    0    0  501 -0.00000000000E+00 -0.00000000000E+00 -0.16186677336E+04  0.16186677336E+04  0.50400000000E-02 0.  1.
    8880023    1    1    2    0    0 -0.17098607783E+04  0.65366146462E+03 -0.61528552194E+03  0.20404126228E+04  0.65864270000E+03 0.  0.
    8880022    1    1    2    0    0  0.17098607783E+04 -0.65366146462E+03  0.26098624976E+04  0.31914998200E+04  0.15294330000E+03 0.  0.
<mgrwt>
<rscale>  0 0.19177187E+04</rscale>
<asrwt>0</asrwt>
<pdfrwt beam="1">  1        1 0.55588380E+00 0.19454324E+04</pdfrwt>
<pdfrwt beam="2">  1       -1 0.24902581E+00 0.19454324E+04</pdfrwt>
<totfact> 0.12850221E-02</totfact>
</mgrwt>
</event>
<event>
 4    1  0.2514307E-008  0.8065805E+03  0.7818608E-02  0.9696744E-01
         -1   -1    0    0    0  501 -0.00000000000E+00  0.00000000000E+00  0.34007002086E+04  0.34007002086E+04  0.50400000000E-02 0.  1.
          1   -1    0    0  501    0  0.00000000000E+00 -0.00000000000E+00 -0.27142868037E+03  0.27142868041E+03  0.50400000000E-02 0. -1.
    8880023    1    1    2    0    0 -0.46047266958E+03  0.68752288147E+02  0.30750625378E+04  0.31790850530E+04  0.65864270000E+03 0.  1.
    8880022    1    1    2    0    0  0.46047266958E+03 -0.68752288147E+02  0.54208990414E+02  0.49304383600E+03  0.15294330000E+03 0.  0.
<mgrwt>
<rscale>  0 0.71210977E+03</rscale>
<asrwt>0</asrwt>
<pdfrwt beam="1">  1        1 0.41758258E-01 0.80658054E+03</pdfrwt>
<pdfrwt beam="2">  1       -1 0.52318465E+00 0.80658054E+03</pdfrwt>
<totfact> 0.11120766E-01</totfact>
</mgrwt>
</event>
<event>
 4    1  0.2514307E-008  0.8932473E+03  0.7818608E-02  0.9536960E-01
          1   -1    0    0  501    0  0.00000000000E+00  0.00000000000E+00  0.28252453108E+04  0.28252453108E+04  0.50400000000E-02 0. -1.
         -1   -1    0    0    0  501 -0.00000000000E+00 -0.00000000000E+00 -0.62174411614E+03  0.62174411616E+03  0.50400000000E-02 0.  1.
    8880023    1    1    2    0    0 -0.20905156966E+03  0.56601946151E+03 -0.24042377370E+03  0.92503750562E+03  0.65864270000E+03 0.  1.
    8880022    1    1    2    0    0  0.20905156966E+03 -0.56601946151E+03  0.24439249684E+04  0.25219519214E+04  0.15294330000E+03 0.  0.
<mgrwt>
<rscale>  0 0.81612911E+03</rscale>
<asrwt>0</asrwt>
<pdfrwt beam="1">  1        1 0.43465314E+00 0.89324733E+03</pdfrwt>
<pdfrwt beam="2">  1       -1 0.95652938E-01 0.89324733E+03</pdfrwt>
<totfact> 0.88000156E-01</totfact>
</mgrwt>
</event>
<event>
 4    1  0.2514307E-008  0.8688580E+03  0.7818608E-02  0.9577997E-01
         -1   -1    0    0    0  501 -0.00000000000E+00  0.00000000000E+00  0.10234385728E+04  0.10234385728E+04  0.50400000000E-02 0.  1.
          1   -1    0    0  501    0  0.00000000000E+00 -0.00000000000E+00 -0.26363555401E+04  0.26363555401E+04  0.50400000000E-02 0. -1.
    8880023    1    1    2    0    0 -0.14511984620E+03  0.54776293767E+03  0.79724112720E+03  0.11791978743E+04  0.65864270000E+03 0.  1.
    8880022    1    1    2    0    0  0.14511984620E+03 -0.54776293767E+03 -0.24101580944E+04  0.24805962386E+04  0.15294330000E+03 0.  0.
<mgrwt>
<rscale>  0 0.78769769E+03</rscale>
<asrwt>0</asrwt>
<pdfrwt beam="1">  1        1 0.40559316E+00 0.86885799E+03</pdfrwt>
<pdfrwt beam="2">  1       -1 0.15745209E+00 0.86885799E+03</pdfrwt>
<totfact> 0.34829289E-01</totfact>
</mgrwt>
</event>
<event>
 4    1  0.2514307E-008  0.9593272E+03  0.7818608E-02  0.9436819E-01
         -1   -1    0    0    0  501 -0.00000000000E+00  0.00000000000E+00  0.10214174214E+04  0.10214174214E+04  0.50400000000E-02 0.  1.
          1   -1    0    0  501    0  0.00000000000E+00 -0.00000000000E+00 -0.15418661156E+04  0.15418661156E+04  0.50400000000E-02 0. -1.
    8880023    1    1    2    0    0  0.46221683195E+03  0.52235442991E+03  0.67346940836E+03  0.11721219222E+04  0.65864270000E+03 0.  1.
    8880022    1    1    2    0    0 -0.46221683195E+03 -0.52235442991E+03 -0.11939181025E+04  0.13911616149E+04  0.15294330000E+03 0.  0.
<mgrwt>
<rscale>  0 0.89106558E+03</rscale>
<asrwt>0</asrwt>
<pdfrwt beam="1">  1        1 0.23721017E+00 0.95932724E+03</pdfrwt>
<pdfrwt beam="2">  1       -1 0.15714114E+00 0.95932724E+03</pdfrwt>
<totfact> 0.19027121E+00</totfact>
</mgrwt>
</event>
<event>
 4    1  0.2514307E-008  0.1054236E+04  0.7818608E-02  0.9313807E-01
         -1   -1    0    0    0  501 -0.00000000000E+00  0.00000000000E+00  0.48270110142E+03  0.48270110145E+03  0.50400000000E-02 0.  1.
          1   -1    0    0  501    0  0.00000000000E+00 -0.00000000000E+00 -0.31561178560E+04  0.31561178560E+04  0.50400000000E-02 0. -1.
    8880023    1    1    2    0    0  0.75644766721E+03  0.32463801050E+03 -0.26216553679E+03  0.10863442760E+04  0.65864270000E+03 0.  0.
    8880022    1    1    2    0    0 -0.75644766721E+03 -0.32463801050E+03 -0.24112512178E+04  0.25524746814E+04  0.15294330000E+03 0.  0.
<mgrwt>
<rscale>  0 0.99521669E+03</rscale>
<asrwt>0</asrwt>
<pdfrwt beam="1">  1        1 0.48555658E+00 0.10542358E+04</pdfrwt>
<pdfrwt beam="2">  1       -1 0.74261710E-01 0.10542358E+04</pdfrwt>
<totfact> 0.85561476E-01</totfact>
</mgrwt>
</event>
<event>
 4    1  0.2514307E-008  0.1973013E+04  0.7818608E-02  0.8632425E-01
         -1   -1    0    0    0  501 -0.00000000000E+00  0.00000000000E+00  0.28192093065E+04  0.28192093065E+04  0.50400000000E-02 0.  1.
          1   -1    0    0  501    0  0.00000000000E+00 -0.00000000000E+00 -0.23555596837E+04  0.23555596837E+04  0.50400000000E-02 0. -1.
    8880023    1    1    2    0    0  0.13141291553E+04 -0.13160672850E+04  0.19613106000E+04  0.27819989237E+04  0.65864270000E+03 0.  0.
    8880022    1    1    2    0    0 -0.13141291553E+04  0.13160672850E+04 -0.14976609772E+04  0.23927700665E+04  0.15294330000E+03 0.  0.
<mgrwt>
<rscale>  0 0.19457257E+04</rscale>
<asrwt>0</asrwt>
<pdfrwt beam="1">  1        1 0.36239380E+00 0.19730126E+04</pdfrwt>
<pdfrwt beam="2">  1       -1 0.43372450E+00 0.19730126E+04</pdfrwt>
<totfact> 0.63226336E-03</totfact>
</mgrwt>
</event>
<event>
 4    1  0.2514307E-008  0.6607614E+03  0.7818608E-02  0.1023390E+00
          1   -1    0    0  501    0  0.00000000000E+00  0.00000000000E+00  0.47128624627E+03  0.47128624630E+03  0.50400000000E-02 0. -1.
         -1   -1    0    0    0  501 -0.00000000000E+00 -0.00000000000E+00 -0.84771705717E+03  0.84771705718E+03  0.50400000000E-02 0.  1.
    8880023    1    1    2    0    0  0.31902383292E+02 -0.42161566426E+02 -0.69667916351E+03  0.96019134701E+03  0.65864270000E+03 0.  1.
    8880022    1    1    2    0    0 -0.31902383292E+02  0.42161566426E+02  0.32024835261E+03  0.35881195647E+03  0.15294330000E+03 0.  0.
<mgrwt>
<rscale>  0 0.46483008E+03</rscale>
<asrwt>0</asrwt>
<pdfrwt beam="1">  1        1 0.72505576E-01 0.66076135E+03</pdfrwt>
<pdfrwt beam="2">  1       -1 0.13041801E+00 0.66076135E+03</pdfrwt>
<totfact> 0.25023029E+01</totfact>
</mgrwt>
</event>
<event>
 4    1  0.2514307E-008  0.9341865E+03  0.7818608E-02  0.9473241E-01
         -1   -1    0    0    0  501 -0.00000000000E+00  0.00000000000E+00  0.16249015567E+04  0.16249015567E+04  0.50400000000E-02 0.  1.
          1   -1    0    0  501    0  0.00000000000E+00 -0.00000000000E+00 -0.87245517228E+03  0.87245517229E+03  0.50400000000E-02 0. -1.
    8880023    1    1    2    0    0 -0.57021271632E+03  0.33727094101E+03  0.13162643847E+04  0.16140806567E+04  0.65864270000E+03 0.  0.
    8880022    1    1    2    0    0  0.57021271632E+03 -0.33727094101E+03 -0.56381800028E+03  0.88327607233E+03  0.15294330000E+03 0.  0.
<mgrwt>
<rscale>  0 0.86285739E+03</rscale>
<asrwt>0</asrwt>
<pdfrwt beam="1">  1        1 0.13422387E+00 0.93418651E+03</pdfrwt>
<pdfrwt beam="2">  1       -1 0.24998485E+00 0.93418651E+03</pdfrwt>
<totfact> 0.13607792E+00</totfact>
</mgrwt>
</event>
<event>
 4    1  0.2514307E-008  0.1015398E+04  0.7818608E-02  0.9361684E-01
          1   -1    0    0  501    0  0.00000000000E+00  0.00000000000E+00  0.87107536250E+03  0.87107536252E+03  0.50400000000E-02 0. -1.
         -1   -1    0    0    0  501 -0.00000000000E+00 -0.00000000000E+00 -0.94407818961E+03  0.94407818962E+03  0.50400000000E-02 0.  1.
    8880023    1    1    2    0    0 -0.60714842789E+03 -0.47811430626E+03 -0.13778582039E+03  0.10247036849E+04  0.65864270000E+03 0.  0.
    8880022    1    1    2    0    0  0.60714842789E+03  0.47811430626E+03  0.64782993286E+02  0.79044986721E+03  0.15294330000E+03 0.  0.
<mgrwt>
<rscale>  0 0.95297142E+03</rscale>
<asrwt>0</asrwt>
<pdfrwt beam="1">  1        1 0.13401159E+00 0.10153978E+04</pdfrwt>
<pdfrwt beam="2">  1       -1 0.14524280E+00 0.10153978E+04</pdfrwt>
<totfact> 0.73192323E+00</totfact>
</mgrwt>
</event>
<event>
 4    1  0.2514307E-008  0.9602568E+03  0.7818608E-02  0.9435508E-01
         -1   -1    0    0    0  501 -0.00000000000E+00  0.00000000000E+00  0.12807729152E+04  0.12807729152E+04  0.50400000000E-02 0.  1.
          1   -1    0    0  501    0  0.00000000000E+00 -0.00000000000E+00 -0.13985636113E+04  0.13985636113E+04  0.50400000000E-02 0. -1.
    8880023    1    1    2    0    0 -0.52547640760E+03  0.46060556357E+03  0.97808083742E+03  0.13706696432E+04  0.65864270000E+03 0.  0.
    8880022    1    1    2    0    0  0.52547640760E+03 -0.46060556357E+03 -0.10958715335E+04  0.13086668832E+04  0.15294330000E+03 0.  0.
<mgrwt>
<rscale>  0 0.89210255E+03</rscale>
<asrwt>0</asrwt>
<pdfrwt beam="1">  1        1 0.21516363E+00 0.96025681E+03</pdfrwt>
<pdfrwt beam="2">  1       -1 0.19704199E+00 0.96025681E+03</pdfrwt>
<totfact> 0.12298700E+00</totfact>
</mgrwt>
</event>
<event>
 4    1  0.2514307E-008  0.7581691E+03  0.7818608E-02  0.9809871E-01
         -1   -1    0    0    0  501 -0.00000000000E+00  0.00000000000E+00  0.38903836602E+03  0.38903836606E+03  0.50400000000E-02 0.  1.
          1   -1    0    0  501    0  0.00000000000E+00 -0.00000000000E+00 -0.10109802025E+04  0.10109802025E+04  0.50400000000E-02 0. -1.
    8880023    1    1    2    0    0  0.12056206525E+01 -0.37551123038E+03 -0.14134845488E+03  0.77123260410E+03  0.65864270000E+03 0.  0.
    8880022    1    1    2    0    0 -0.12056206525E+01  0.37551123038E+03 -0.48059338157E+03  0.62878596444E+03  0.15294330000E+03 0.  0.
<mgrwt>
<rscale>  0 0.64835500E+03</rscale>
<asrwt>0</asrwt>
<pdfrwt beam="1">  1        1 0.15553541E+00 0.75816907E+03</pdfrwt>
<pdfrwt beam="2">  1       -1 0.59852057E-01 0.75816907E+03</pdfrwt>
<totfact> 0.43006235E+01</totfact>
</mgrwt>
</event>
<event>
 4    1  0.2514307E-008  0.9195575E+03  0.7818608E-02  0.9495338E-01
         -1   -1    0    0    0  501 -0.00000000000E+00  0.00000000000E+00  0.21505900027E+04  0.21505900027E+04  0.50400000000E-02 0.  1.
          1   -1    0    0  501    0  0.00000000000E+00 -0.00000000000E+00 -0.64355061829E+03  0.64355061831E+03  0.50400000000E-02 0. -1.
    8880023    1    1    2    0    0  0.15942616932E+03 -0.62157790296E+03  0.18386739527E+04  0.20557986048E+04  0.65864270000E+03 0.  1.
    8880022    1    1    2    0    0 -0.15942616932E+03  0.62157790296E+03 -0.33163456834E+03  0.73834201617E+03  0.15294330000E+03 0.  0.
<mgrwt>
<rscale>  0 0.84628417E+03</rscale>
<asrwt>0</asrwt>
<pdfrwt beam="1">  1        1 0.99007788E-01 0.91955750E+03</pdfrwt>
<pdfrwt beam="2">  1       -1 0.33086000E+00 0.91955750E+03</pdfrwt>
<totfact> 0.66212046E-01</totfact>
</mgrwt>
</event>
<event>
 4    1  0.2514307E-008  0.9598034E+03  0.7818608E-02  0.9436147E-01
          1   -1    0    0  501    0  0.00000000000E+00  0.00000000000E+00  0.10684332269E+04  0.10684332269E+04  0.50400000000E-02 0. -1.
         -1   -1    0    0    0  501 -0.00000000000E+00 -0.00000000000E+00 -0.80747401219E+03  0.80747401221E+03  0.50400000000E-02 0.  1.
    8880023    1    1    2    0    0 -0.47360051429E+03 -0.51294725494E+03 -0.25656634553E+03  0.99350331122E+03  0.65864270000E+03 0.  0.
    8880022    1    1    2    0    0  0.47360051429E+03  0.51294725494E+03  0.51752556025E+03  0.88240392792E+03  0.15294330000E+03 0. -1.
<mgrwt>
<rscale>  0 0.89159678E+03</rscale>
<asrwt>0</asrwt>
<pdfrwt beam="1">  1        1 0.16437434E+00 0.95980339E+03</pdfrwt>
<pdfrwt beam="2">  1       -1 0.12422677E+00 0.95980339E+03</pdfrwt>
<totfact> 0.76686790E+00</totfact>
</mgrwt>
</event>
<event>
 4    1  0.2514307E-008  0.8449088E+03  0.7818608E-02  0.9620993E-01
         -1   -1    0    0    0  501 -0.00000000000E+00  0.00000000000E+00  0.15649368795E+04  0.15649368795E+04  0.50400000000E-02 0.  1.
          1   -1    0    0  501    0  0.00000000000E+00 -0.00000000000E+00 -0.11286706145E+04  0.11286706145E+04  0.50400000000E-02 0. -1.
    8880023    1    1    2    0    0  0.52332223531E+03 -0.78705421063E+02  0.13699431638E+04  0.16095388109E+04  0.65864270000E+03 0.  0.
    8880022    1    1    2    0    0 -0.52332223531E+03  0.78705421063E+02 -0.93367689886E+03  0.10840686831E+04  0.15294330000E+03 0.  0.
<mgrwt>
<rscale>  0 0.75922185E+03</rscale>
<asrwt>0</asrwt>
<pdfrwt beam="1">  1        1 0.17364163E+00 0.84490882E+03</pdfrwt>
<pdfrwt beam="2">  1       -1 0.24075952E+00 0.84490882E+03</pdfrwt>
<totfact> 0.99929801E-01</totfact>
</mgrwt>
</event>
<event>
 4    1  0.2514307E-008  0.6679337E+03  0.7818608E-02  0.1017189E+00
          1   -1    0    0  501    0  0.00000000000E+00  0.00000000000E+00  0.10005320305E+04  0.10005320305E+04  0.50400000000E-02 0. -1.
         -1   -1    0    0    0  501 -0.00000000000E+00 -0.00000000000E+00 -0.43978056450E+03  0.43978056453E+03  0.50400000000E-02 0.  1.
    8880023    1    1    2    0    0 -0.98561473564E+02  0.51096838841E+02 -0.16694043595E+03  0.68847989544E+03  0.65864270000E+03 0.  1.
    8880022    1    1    2    0    0  0.98561473564E+02 -0.51096838841E+02  0.72769190196E+03  0.75183269961E+03  0.15294330000E+03 0.  0.
<mgrwt>
<rscale>  0 0.48714613E+03</rscale>
<asrwt>0</asrwt>
<pdfrwt beam="1">  1        1 0.15392800E+00 0.66793372E+03</pdfrwt>
<pdfrwt beam="2">  1       -1 0.67658549E-01 0.66793372E+03</pdfrwt>
<totfact> 0.34642551E+01</totfact>
</mgrwt>
</event>
<event>
 4    1  0.2514307E-008  0.7849975E+03  0.7818608E-02  0.9744226E-01
         -1   -1    0    0    0  501 -0.00000000000E+00  0.00000000000E+00  0.28015590737E+03  0.28015590742E+03  0.50400000000E-02 0.  1.
          1   -1    0    0  501    0  0.00000000000E+00 -0.00000000000E+00 -0.17014103542E+04  0.17014103542E+04  0.50400000000E-02 0. -1.
    8880023    1    1    2    0    0 -0.29490597364E+02  0.42607644377E+03 -0.43852530947E+03  0.89918045162E+03  0.65864270000E+03 0.  0.
    8880022    1    1    2    0    0  0.29490597364E+02 -0.42607644377E+03 -0.98272913732E+03  0.10823858100E+04  0.15294330000E+03 0.  0.
<mgrwt>
<rscale>  0 0.68443549E+03</rscale>
<asrwt>0</asrwt>
<pdfrwt beam="1">  1        1 0.26175543E+00 0.78499748E+03</pdfrwt>
<pdfrwt beam="2">  1       -1 0.43100910E-01 0.78499748E+03</pdfrwt>
<totfact> 0.26010124E+01</totfact>
</mgrwt>
</event>
<event>
 4    1  0.2514307E-008  0.1171926E+04  0.7818608E-02  0.9184908E-01
          1   -1    0    0  501    0  0.00000000000E+00  0.00000000000E+00  0.10581193806E+04  0.10581193806E+04  0.50400000000E-02 0. -1.
         -1   -1    0    0    0  501 -0.00000000000E+00 -0.00000000000E+00 -0.16141332936E+04  0.16141332936E+04  0.50400000000E-02 0.  1.
    8880023    1    1    2    0    0 -0.73673714927E+03  0.62993461636E+03 -0.10500974770E+04  0.15735673375E+04  0.65864270000E+03 0.  0.
    8880022    1    1    2    0    0  0.73673714927E+03 -0.62993461636E+03  0.49408356400E+03  0.10986853368E+04  0.15294330000E+03 0.  0.
<mgrwt>
<rscale>  0 0.11210572E+04</rscale>
<asrwt>0</asrwt>
<pdfrwt beam="1">  1        1 0.16278760E+00 0.11719255E+04</pdfrwt>
<pdfrwt beam="2">  1       -1 0.24832820E+00 0.11719255E+04</pdfrwt>
<totfact> 0.96097037E-01</totfact>
</mgrwt>
</event>
<event>
 4    1  0.2514307E-008  0.1064678E+04  0.7818608E-02  0.9301441E-01
         -1   -1    0    0    0  501 -0.00000000000E+00  0.00000000000E+00  0.89980270951E+03  0.89980270952E+03  0.50400000000E-02 0.  1.
          1   -1    0    0  501    0  0.00000000000E+00 -0.00000000000E+00 -0.11546695821E+04  0.11546695821E+04  0.50400000000E-02 0. -1.
    8880023    1    1    2    0    0 -0.80345463632E+03  0.23278539512E+03  0.21021894103E+03  0.10852329714E+04  0.65864270000E+03 0. -1.
    8880022    1    1    2    0    0  0.80345463632E+03 -0.23278539512E+03 -0.46508581361E+03  0.96923932021E+03  0.15294330000E+03 0.  0.
<mgrwt>
<rscale>  0 0.10065026E+04</rscale>
<asrwt>0</asrwt>
<pdfrwt beam="1">  1        1 0.17764147E+00 0.10646777E+04</pdfrwt>
<pdfrwt beam="2">  1       -1 0.13843119E+00 0.10646777E+04</pdfrwt>
<totfact> 0.49604572E+00</totfact>
</mgrwt>
</event>
<event>
 4    1  0.2514307E-008  0.1341514E+04  0.7818608E-02  0.9030514E-01
         -1   -1    0    0    0  501 -0.00000000000E+00  0.00000000000E+00  0.85013912135E+03  0.85013912136E+03  0.50400000000E-02 0.  1.
          1   -1    0    0  501    0  0.00000000000E+00 -0.00000000000E+00 -0.19486376897E+04  0.19486376897E+04  0.50400000000E-02 0. -1.
    8880023    1    1    2    0    0  0.11649137451E+04 -0.93949539559E+02 -0.86786175768E+03  0.15977624311E+04  0.65864270000E+03 0.  0.
    8880022    1    1    2    0    0 -0.11649137451E+04  0.93949539559E+02 -0.23063681070E+03  0.12010143800E+04  0.15294330000E+03 0.  0.
<mgrwt>
<rscale>  0 0.12988044E+04</rscale>
<asrwt>0</asrwt>
<pdfrwt beam="1">  1        1 0.29979041E+00 0.13415144E+04</pdfrwt>
<pdfrwt beam="2">  1       -1 0.13079063E+00 0.13415144E+04</pdfrwt>
<totfact> 0.15607741E+00</totfact>
</mgrwt>
</event>
<event>
 4    1  0.2514307E-008  0.1150037E+04  0.7818608E-02  0.9207289E-01
         -1   -1    0    0    0  501 -0.00000000000E+00  0.00000000000E+00  0.66647945674E+03  0.66647945676E+03  0.50400000000E-02 0.  1.
          1   -1    0    0  501    0  0.00000000000E+00 -0.00000000000E+00 -0.34248793277E+04  0.34248793277E+04  0.50400000000E-02 0. -1.
    8880023    1    1    2    0    0  0.70431772418E+03  0.62666742246E+03  0.23293422575E+02  0.11502731435E+04  0.65864270000E+03 0.  0.
    8880022    1    1    2    0    0 -0.70431772418E+03 -0.62666742246E+03 -0.27816932935E+04  0.29410856409E+04  0.15294330000E+03 0.  0.
<mgrwt>
<rscale>  0 0.10978506E+04</rscale>
<asrwt>0</asrwt>
<pdfrwt beam="1">  1        1 0.52690450E+00 0.11500373E+04</pdfrwt>
<pdfrwt beam="2">  1       -1 0.10253530E+00 0.11500373E+04</pdfrwt>
<totfact> 0.26022645E-01</totfact>
</mgrwt>
</event>
<event>
 4    1  0.2514307E-008  0.7721176E+03  0.7818608E-02  0.9774690E-01
          1   -1    0    0  501    0  0.00000000000E+00  0.00000000000E+00  0.14541363265E+04  0.14541363265E+04  0.50400000000E-02 0. -1.
         -1   -1    0    0    0  501 -0.00000000000E+00 -0.00000000000E+00 -0.41006434224E+03  0.41006434227E+03  0.50400000000E-02 0.  1.
    8880023    1    1    2    0    0  0.28133829182E+03  0.28845129006E+03  0.41863052022E+02  0.77325164246E+03  0.65864270000E+03 0.  1.
    8880022    1    1    2    0    0 -0.28133829182E+03 -0.28845129006E+03  0.10022089323E+04  0.10909490264E+04  0.15294330000E+03 0.  0.
<mgrwt>
<rscale>  0 0.66738713E+03</rscale>
<asrwt>0</asrwt>
<pdfrwt beam="1">  1        1 0.22371328E+00 0.77211760E+03</pdfrwt>
<pdfrwt beam="2">  1       -1 0.63086822E-01 0.77211760E+03</pdfrwt>
<totfact> 0.18507192E+01</totfact>
</mgrwt>
</event>
<event>
 4    1  0.2514307E-008  0.7801804E+03  0.7818608E-02  0.9755413E-01
         -1   -1    0    0    0  501 -0.00000000000E+00  0.00000000000E+00  0.15327771705E+04  0.15327771705E+04  0.50400000000E-02 0.  1.
          1   -1    0    0  501    0  0.00000000000E+00 -0.00000000000E+00 -0.67294891153E+03  0.67294891155E+03  0.50400000000E-02 0. -1.
    8880023    1    1    2    0    0  0.19973649968E+03  0.36739161743E+03  0.13401890742E+04  0.15507379633E+04  0.65864270000E+03 0.  1.
    8880022    1    1    2    0    0 -0.19973649968E+03 -0.36739161743E+03 -0.48036081526E+03  0.65498811876E+03  0.15294330000E+03 0.  0.
<mgrwt>
<rscale>  0 0.67811206E+03</rscale>
<asrwt>0</asrwt>
<pdfrwt beam="1">  1        1 0.10353060E+00 0.78018041E+03</pdfrwt>
<pdfrwt beam="2">  1       -1 0.23581187E+00 0.78018041E+03</pdfrwt>
<totfact> 0.25930555E+00</totfact>
</mgrwt>
</event>
<event>
 4    1  0.2514307E-008  0.6658378E+03  0.7818608E-02  0.1018841E+00
         -1   -1    0    0    0  501 -0.00000000000E+00  0.00000000000E+00  0.58471585429E+03  0.58471585431E+03  0.50400000000E-02 0.  1.
          1   -1    0    0  501    0  0.00000000000E+00 -0.00000000000E+00 -0.15897890549E+04  0.15897890549E+04  0.50400000000E-02 0. -1.
    8880023    1    1    2    0    0 -0.89443255720E+02 -0.39111789972E+02  0.38734876683E+03  0.77031104207E+03  0.65864270000E+03 0.  1.
    8880022    1    1    2    0    0  0.89443255720E+02  0.39111789972E+02 -0.13924219674E+04  0.14041938672E+04  0.15294330000E+03 0.  0.
<mgrwt>
<rscale>  0 0.48107333E+03</rscale>
<asrwt>0</asrwt>
<pdfrwt beam="1">  1        1 0.24458293E+00 0.66583784E+03</pdfrwt>
<pdfrwt beam="2">  1       -1 0.89956286E-01 0.66583784E+03</pdfrwt>
<totfact> 0.72446614E+00</totfact>
</mgrwt>
</event>
<event>
 4    1  0.2514307E-008  0.1308236E+04  0.7818608E-02  0.9058480E-01
         -1   -1    0    0    0  501 -0.00000000000E+00  0.00000000000E+00  0.94437049063E+03  0.94437049065E+03  0.50400000000E-02 0.  1.
          1   -1    0    0  501    0  0.00000000000E+00 -0.00000000000E+00 -0.32261029214E+04  0.32261029214E+04  0.50400000000E-02 0. -1.
    8880023    1    1    2    0    0  0.61423563281E+03 -0.94888649163E+03  0.30508582552E+03  0.13433385849E+04  0.65864270000E+03 0.  0.
    8880022    1    1    2    0    0 -0.61423563281E+03  0.94888649163E+03 -0.25868182563E+04  0.28271348271E+04  0.15294330000E+03 0.  0.
<mgrwt>
<rscale>  0 0.12641594E+04</rscale>
<asrwt>0</asrwt>
<pdfrwt beam="1">  1        1 0.49632352E+00 0.13082359E+04</pdfrwt>
<pdfrwt beam="2">  1       -1 0.14528777E+00 0.13082359E+04</pdfrwt>
<totfact> 0.15128692E-01</totfact>
</mgrwt>
</event>
<event>
 4    1  0.2514307E-008  0.6701482E+03  0.7818608E-02  0.1015557E+00
          1   -1    0    0  501    0  0.00000000000E+00  0.00000000000E+00  0.40966005864E+03  0.40966005867E+03  0.50400000000E-02 0. -1.
         -1   -1    0    0    0  501 -0.00000000000E+00 -0.00000000000E+00 -0.11049819552E+04  0.11049819553E+04  0.50400000000E-02 0.  1.
    8880023    1    1    2    0    0 -0.17052570096E+02 -0.12246462384E+03 -0.96867368033E+03  0.11778910304E+04  0.65864270000E+03 0.  1.
    8880022    1    1    2    0    0  0.17052570096E+02  0.12246462384E+03  0.27335178372E+03  0.33675098354E+03  0.15294330000E+03 0.  0.
<mgrwt>
<rscale>  0 0.49324646E+03</rscale>
<asrwt>0</asrwt>
<pdfrwt beam="1">  1        1 0.63024625E-01 0.67014818E+03</pdfrwt>
<pdfrwt beam="2">  1       -1 0.16999722E+00 0.67014818E+03</pdfrwt>
<totfact> 0.14840675E+01</totfact>
</mgrwt>
</event>
<event>
 4    1  0.2514307E-008  0.7963051E+03  0.7818608E-02  0.9718843E-01
          1   -1    0    0  501    0  0.00000000000E+00  0.00000000000E+00  0.17480501112E+04  0.17480501112E+04  0.50400000000E-02 0. -1.
         -1   -1    0    0    0  501 -0.00000000000E+00 -0.00000000000E+00 -0.27603254578E+03  0.27603254583E+03  0.50400000000E-02 0.  1.
    8880023    1    1    2    0    0  0.41066009719E+03 -0.17790417356E+03  0.49233710598E+03  0.93621452808E+03  0.65864270000E+03 0.  1.
    8880022    1    1    2    0    0 -0.41066009719E+03  0.17790417356E+03  0.97968045943E+03  0.10878681290E+04  0.15294330000E+03 0.  0.
<mgrwt>
<rscale>  0 0.69905897E+03</rscale>
<asrwt>0</asrwt>
<pdfrwt beam="1">  1        1 0.26893079E+00 0.79630510E+03</pdfrwt>
<pdfrwt beam="2">  1       -1 0.42466545E-01 0.79630510E+03</pdfrwt>
<totfact> 0.24831823E+01</totfact>
</mgrwt>
</event>
<event>
 4    1  0.2514307E-008  0.1007948E+04  0.7818608E-02  0.9371232E-01
         -1   -1    0    0    0  501 -0.00000000000E+00  0.00000000000E+00  0.53491840369E+03  0.53491840371E+03  0.50400000000E-02 0.  1.
          1   -1    0    0  501    0  0.00000000000E+00 -0.00000000000E+00 -0.22159426093E+04  0.22159426093E+04  0.50400000000E-02 0. -1.
    8880023    1    1    2    0    0  0.49913420850E+02  0.76135267458E+03 -0.13094300910E+03  0.10164179861E+04  0.65864270000E+03 0.  0.
    8880022    1    1    2    0    0 -0.49913420850E+02 -0.76135267458E+03 -0.15500811965E+04  0.17344430269E+04  0.15294330000E+03 0.  0.
<mgrwt>
<rscale>  0 0.94481456E+03</rscale>
<asrwt>0</asrwt>
<pdfrwt beam="1">  1        1 0.34091424E+00 0.10079481E+04</pdfrwt>
<pdfrwt beam="2">  1       -1 0.82295140E-01 0.10079481E+04</pdfrwt>
<totfact> 0.31606799E+00</totfact>
</mgrwt>
</event>
<event>
 4    1  0.2514307E-008  0.7148853E+03  0.7818608E-02  0.9940288E-01
         -1   -1    0    0    0  501 -0.00000000000E+00  0.00000000000E+00  0.15449135597E+03  0.15449135605E+03  0.50400000000E-02 0.  1.
          1   -1    0    0  501    0  0.00000000000E+00 -0.00000000000E+00 -0.24177753913E+04  0.24177753913E+04  0.50400000000E-02 0. -1.
    8880023    1    1    2    0    0 -0.14297403001E+02 -0.27757223340E+03 -0.79095559158E+03  0.10661480735E+04  0.65864270000E+03 0.  1.
    8880022    1    1    2    0    0  0.14297403001E+02  0.27757223340E+03 -0.14723284437E+04  0.15061186738E+04  0.15294330000E+03 0.  0.
<mgrwt>
<rscale>  0 0.58347855E+03</rscale>
<asrwt>0</asrwt>
<pdfrwt beam="1">  1        1 0.37196542E+00 0.71488528E+03</pdfrwt>
<pdfrwt beam="2">  1       -1 0.23767903E-01 0.71488528E+03</pdfrwt>
<totfact> 0.24769615E+01</totfact>
</mgrwt>
</event>
<event>
 4    1  0.2514307E-008  0.7207213E+03  0.7818608E-02  0.9920153E-01
          1   -1    0    0  501    0  0.00000000000E+00  0.00000000000E+00  0.46695330528E+03  0.46695330531E+03  0.50400000000E-02 0. -1.
         -1   -1    0    0    0  501 -0.00000000000E+00 -0.00000000000E+00 -0.14593368956E+04  0.14593368956E+04  0.50400000000E-02 0.  1.
    8880023    1    1    2    0    0 -0.17904049505E+03 -0.23145933840E+03 -0.12926496592E+04  0.14799940108E+04  0.65864270000E+03 0.  1.
    8880022    1    1    2    0    0  0.17904049505E+03  0.23145933840E+03  0.30026606889E+03  0.44629619015E+03  0.15294330000E+03 0.  0.
<mgrwt>
<rscale>  0 0.59294452E+03</rscale>
<asrwt>0</asrwt>
<pdfrwt beam="1">  1        1 0.71838971E-01 0.72072126E+03</pdfrwt>
<pdfrwt beam="2">  1       -1 0.22451337E+00 0.72072126E+03</pdfrwt>
<totfact> 0.52069520E+00</totfact>
</mgrwt>
</event>
<event>
 4    1  0.2514307E-008  0.9264423E+03  0.7818608E-02  0.9484851E-01
         -1   -1    0    0    0  501 -0.00000000000E+00  0.00000000000E+00  0.87047076609E+03  0.87047076610E+03  0.50400000000E-02 0.  1.
          1   -1    0    0  501    0  0.00000000000E+00 -0.00000000000E+00 -0.14363055509E+04  0.14363055509E+04  0.50400000000E-02 0. -1.
    8880023    1    1    2    0    0  0.60320551532E+03 -0.24622801395E+03  0.49658920535E+03  0.10511404158E+04  0.65864270000E+03 0.  1.
    8880022    1    1    2    0    0 -0.60320551532E+03  0.24622801395E+03 -0.10624239902E+04  0.12556359012E+04  0.15294330000E+03 0.  0.
<mgrwt>
<rscale>  0 0.85409976E+03</rscale>
<asrwt>0</asrwt>
<pdfrwt beam="1">  1        1 0.22097008E+00 0.92644230E+03</pdfrwt>
<pdfrwt beam="2">  1       -1 0.13391858E+00 0.92644230E+03</pdfrwt>
<totfact> 0.34574252E+00</totfact>
</mgrwt>
</event>
<event>
 4    1  0.2514307E-008  0.1201320E+04  0.7818608E-02  0.9155840E-01
          1   -1    0    0  501    0  0.00000000000E+00  0.00000000000E+00  0.17795533421E+04  0.17795533421E+04  0.50400000000E-02 0. -1.
         -1   -1    0    0    0  501 -0.00000000000E+00 -0.00000000000E+00 -0.10253833323E+04  0.10253833323E+04  0.50400000000E-02 0.  1.
    8880023    1    1    2    0    0 -0.18143615324E+03 -0.98815048406E+03  0.11974794114E+04  0.16962097759E+04  0.65864270000E+03 0.  0.
    8880022    1    1    2    0    0  0.18143615324E+03  0.98815048406E+03 -0.44330940156E+03  0.11087268985E+04  0.15294330000E+03 0.  0.
<mgrwt>
<rscale>  0 0.11521092E+04</rscale>
<asrwt>0</asrwt>
<pdfrwt beam="1">  1        1 0.27377744E+00 0.12013204E+04</pdfrwt>
<pdfrwt beam="2">  1       -1 0.15775128E+00 0.12013204E+04</pdfrwt>
<totfact> 0.12548012E+00</totfact>
</mgrwt>
</event>
<event>
 4    1  0.2514307E-008  0.8722200E+03  0.7818608E-02  0.9572186E-01
         -1   -1    0    0    0  501 -0.00000000000E+00  0.00000000000E+00  0.54750326386E+03  0.54750326388E+03  0.50400000000E-02 0.  1.
          1   -1    0    0  501    0  0.00000000000E+00 -0.00000000000E+00 -0.18851180369E+04  0.18851180369E+04  0.50400000000E-02 0. -1.
    8880023    1    1    2    0    0  0.56341155571E+03 -0.97595390546E+02  0.99990118526E+02  0.87793261212E+03  0.65864270000E+03 0.  1.
    8880022    1    1    2    0    0 -0.56341155571E+03  0.97595390546E+02 -0.14376048916E+04  0.15546886887E+04  0.15294330000E+03 0.  0.
<mgrwt>
<rscale>  0 0.79164804E+03</rscale>
<asrwt>0</asrwt>
<pdfrwt beam="1">  1        1 0.29001816E+00 0.87221995E+03</pdfrwt>
<pdfrwt beam="2">  1       -1 0.84231272E-01 0.87221995E+03</pdfrwt>
<totfact> 0.51165893E+00</totfact>
</mgrwt>
</event>
<event>
 4    1  0.2514307E-008  0.6811973E+03  0.7818608E-02  0.1008654E+00
         -1   -1    0    0    0  501 -0.00000000000E+00  0.00000000000E+00  0.77857642727E+03  0.77857642729E+03  0.50400000000E-02 0.  1.
          1   -1    0    0  501    0  0.00000000000E+00 -0.00000000000E+00 -0.46988443685E+03  0.46988443688E+03  0.50400000000E-02 0. -1.
    8880023    1    1    2    0    0  0.13686441587E+03  0.10718063048E+03  0.57794989876E+03  0.89333971569E+03  0.65864270000E+03 0.  1.
    8880022    1    1    2    0    0 -0.13686441587E+03 -0.10718063048E+03 -0.26925790834E+03  0.35512114848E+03  0.15294330000E+03 0.  0.
<mgrwt>
<rscale>  0 0.52012968E+03</rscale>
<asrwt>0</asrwt>
<pdfrwt beam="1">  1        1 0.72289914E-01 0.68119730E+03</pdfrwt>
<pdfrwt beam="2">  1       -1 0.11978099E+00 0.68119730E+03</pdfrwt>
<totfact> 0.30941116E+01</totfact>
</mgrwt>
</event>
<event>
 4    1  0.2514307E-008  0.1226051E+04  0.7818608E-02  0.9132206E-01
          1   -1    0    0  501    0  0.00000000000E+00  0.00000000000E+00  0.29797902982E+04  0.29797902982E+04  0.50400000000E-02 0. -1.
         -1   -1    0    0    0  501 -0.00000000000E+00 -0.00000000000E+00 -0.49390529169E+03  0.49390529172E+03  0.50400000000E-02 0.  1.
    8880023    1    1    2    0    0  0.98502690929E+03  0.31482156653E+03  0.19385181950E+04  0.22936986789E+04  0.65864270000E+03 0.  0.
    8880022    1    1    2    0    0 -0.98502690929E+03 -0.31482156653E+03  0.54736681150E+03  0.11799969111E+04  0.15294330000E+03 0.  0.
<mgrwt>
<rscale>  0 0.11781432E+04</rscale>
<asrwt>0</asrwt>
<pdfrwt beam="1">  1        1 0.45842927E+00 0.12260509E+04</pdfrwt>
<pdfrwt beam="2">  1       -1 0.75985430E-01 0.12260509E+04</pdfrwt>
<totfact> 0.10699118E+00</totfact>
</mgrwt>
</event>
<event>
 4    1  0.2514307E-008  0.1497766E+04  0.7818608E-02  0.8911215E-01
         -1   -1    0    0    0  501 -0.00000000000E+00  0.00000000000E+00  0.17524854407E+04  0.17524854408E+04  0.50400000000E-02 0.  1.
          1   -1    0    0  501    0  0.00000000000E+00 -0.00000000000E+00 -0.12170099775E+04  0.12170099775E+04  0.50400000000E-02 0. -1.
    8880023    1    1    2    0    0  0.12932287323E+03  0.13389430856E+04  0.60152803658E+03  0.16140443541E+04  0.65864270000E+03 0.  0.
    8880022    1    1    2    0    0 -0.12932287323E+03 -0.13389430856E+04 -0.66052573349E+02  0.13554510642E+04  0.15294330000E+03 0.  0.
<mgrwt>
<rscale>  0 0.14604103E+04</rscale>
<asrwt>0</asrwt>
<pdfrwt beam="1">  1        1 0.18723231E+00 0.14977661E+04</pdfrwt>
<pdfrwt beam="2">  1       -1 0.26961314E+00 0.14977661E+04</pdfrwt>
<totfact> 0.51190099E-01</totfact>
</mgrwt>
</event>
<event>
 4    1  0.2514307E-008  0.1029848E+04  0.7818608E-02  0.9343509E-01
         -1   -1    0    0    0  501 -0.00000000000E+00  0.00000000000E+00  0.64102404840E+03  0.64102404842E+03  0.50400000000E-02 0.  1.
          1   -1    0    0  501    0  0.00000000000E+00 -0.00000000000E+00 -0.44316293139E+04  0.44316293139E+04  0.50400000000E-02 0. -1.
    8880023    1    1    2    0    0 -0.12043156978E+03 -0.78247828245E+03  0.15858561316E+03  0.10419863859E+04  0.65864270000E+03 0.  0.
    8880022    1    1    2    0    0  0.12043156978E+03  0.78247828245E+03 -0.39491908787E+04  0.40306669764E+04  0.15294330000E+03 0.  0.
<mgrwt>
<rscale>  0 0.96874153E+03</rscale>
<asrwt>0</asrwt>
<pdfrwt beam="1">  1        1 0.68178911E+00 0.10298477E+04</pdfrwt>
<pdfrwt beam="2">  1       -1 0.98619087E-01 0.10298477E+04</pdfrwt>
<totfact> 0.39534268E-02</totfact>
</mgrwt>
</event>
<event>
 4    1  0.2514307E-008  0.6959905E+03  0.7818608E-02  0.1001426E+00
         -1   -1    0    0    0  501 -0.00000000000E+00  0.00000000000E+00  0.40597770460E+03  0.40597770463E+03  0.50400000000E-02 0.  1.
          1   -1    0    0  501    0  0.00000000000E+00 -0.00000000000E+00 -0.61221021253E+03  0.61221021255E+03  0.50400000000E-02 0. -1.
    8880023    1    1    2    0    0  0.45730148166E+02 -0.22023018368E+03 -0.35192302964E+02  0.69687967735E+03  0.65864270000E+03 0.  1.
    8880022    1    1    2    0    0 -0.45730148166E+02  0.22023018368E+03 -0.17104020496E+03  0.32130823983E+03  0.15294330000E+03 0. -1.
<mgrwt>
<rscale>  0 0.55029414E+03</rscale>
<asrwt>0</asrwt>
<pdfrwt beam="1">  1        1 0.94186187E-01 0.69599051E+03</pdfrwt>
<pdfrwt beam="2">  1       -1 0.62458108E-01 0.69599051E+03</pdfrwt>
<totfact> 0.88470770E+01</totfact>
</mgrwt>
</event>
<event>
 4    1  0.2514307E-008  0.8950231E+03  0.7818608E-02  0.9534069E-01
         -1   -1    0    0    0  501 -0.00000000000E+00  0.00000000000E+00  0.17557265979E+04  0.17557265979E+04  0.50400000000E-02 0.  1.
          1   -1    0    0  501    0  0.00000000000E+00 -0.00000000000E+00 -0.74874310807E+03  0.74874310808E+03  0.50400000000E-02 0. -1.
    8880023    1    1    2    0    0  0.10681191231E+03  0.59652940345E+03  0.14738553376E+04  0.17243305588E+04  0.65864270000E+03 0.  1.
    8880022    1    1    2    0    0 -0.10681191231E+03 -0.59652940345E+03 -0.46687184770E+03  0.78013914719E+03  0.15294330000E+03 0.  0.
<mgrwt>
<rscale>  0 0.81817997E+03</rscale>
<asrwt>0</asrwt>
<pdfrwt beam="1">  1        1 0.11519125E+00 0.89502308E+03</pdfrwt>
<pdfrwt beam="2">  1       -1 0.27011178E+00 0.89502308E+03</pdfrwt>
<totfact> 0.12992224E+00</totfact>
</mgrwt>
</event>
<event>
 4    1  0.2514307E-008  0.7385559E+03  0.7818608E-02  0.9864174E-01
         -1   -1    0    0    0  501 -0.00000000000E+00  0.00000000000E+00  0.79969678150E+03  0.79969678152E+03  0.50400000000E-02 0.  1.
          1   -1    0    0  501    0  0.00000000000E+00 -0.00000000000E+00 -0.89632311882E+03  0.89632311883E+03  0.50400000000E-02 0. -1.
    8880023    1    1    2    0    0  0.35494931346E+02  0.33225696777E+03  0.57126328365E+03  0.93370580393E+03  0.65864270000E+03 0.  1.
    8880022    1    1    2    0    0 -0.35494931346E+02 -0.33225696777E+03 -0.66788962097E+03  0.76231409642E+03  0.15294330000E+03 0.  0.
<mgrwt>
<rscale>  0 0.62029436E+03</rscale>
<asrwt>0</asrwt>
<pdfrwt beam="1">  1        1 0.13789586E+00 0.73855588E+03</pdfrwt>
<pdfrwt beam="2">  1       -1 0.12303027E+00 0.73855588E+03</pdfrwt>
<totfact> 0.11017465E+01</totfact>
</mgrwt>
</event>
<event>
 4    1  0.2514307E-008  0.1308515E+04  0.7818608E-02  0.9058241E-01
          1   -1    0    0  501    0  0.00000000000E+00  0.00000000000E+00  0.12901275826E+04  0.12901275826E+04  0.50400000000E-02 0. -1.
         -1   -1    0    0    0  501 -0.00000000000E+00 -0.00000000000E+00 -0.12615560364E+04  0.12615560364E+04  0.50400000000E-02 0.  1.
    8880023    1    1    2    0    0 -0.92202056333E+01  0.11306267739E+04  0.37162668112E+03  0.13602641326E+04  0.65864270000E+03 0.  0.
    8880022    1    1    2    0    0  0.92202056333E+01 -0.11306267739E+04 -0.34305513491E+03  0.11914194864E+04  0.15294330000E+03 0.  0.
<mgrwt>
<rscale>  0 0.12644506E+04</rscale>
<asrwt>0</asrwt>
<pdfrwt beam="1">  1        1 0.19848117E+00 0.13085152E+04</pdfrwt>
<pdfrwt beam="2">  1       -1 0.19408555E+00 0.13085152E+04</pdfrwt>
<totfact> 0.14726710E+00</totfact>
</mgrwt>
</event>
<event>
 4    1  0.2514307E-008  0.1186444E+04  0.7818608E-02  0.9170413E-01
          1   -1    0    0  501    0  0.00000000000E+00  0.00000000000E+00  0.10666312991E+04  0.10666312991E+04  0.50400000000E-02 0. -1.
         -1   -1    0    0    0  501 -0.00000000000E+00 -0.00000000000E+00 -0.15348789699E+04  0.15348789699E+04  0.50400000000E-02 0.  1.
    8880023    1    1    2    0    0 -0.98580368484E+03  0.45065057023E+02 -0.92400788106E+03  0.15038086763E+04  0.65864270000E+03 0.  0.
    8880022    1    1    2    0    0  0.98580368484E+03 -0.45065057023E+02  0.45576021027E+03  0.10977015927E+04  0.15294330000E+03 0.  0.
<mgrwt>
<rscale>  0 0.11364099E+04</rscale>
<asrwt>0</asrwt>
<pdfrwt beam="1">  1        1 0.16409712E+00 0.11864443E+04</pdfrwt>
<pdfrwt beam="2">  1       -1 0.23613522E+00 0.11864443E+04</pdfrwt>
<totfact> 0.11356293E+00</totfact>
</mgrwt>
</event>
<event>
 4    1  0.2514307E-008  0.1580732E+04  0.7818608E-02  0.8854636E-01
          1   -1    0    0  501    0  0.00000000000E+00  0.00000000000E+00  0.19411999851E+04  0.19411999851E+04  0.50400000000E-02 0. -1.
         -1   -1    0    0    0  501 -0.00000000000E+00 -0.00000000000E+00 -0.17305719341E+04  0.17305719342E+04  0.50400000000E-02 0.  1.
    8880023    1    1    2    0    0 -0.13530447178E+04 -0.48391433056E+03 -0.92710707156E+03  0.18325503584E+04  0.65864270000E+03 0.  1.
    8880022    1    1    2    0    0  0.13530447178E+04  0.48391433056E+03  0.11377351225E+04  0.18392215608E+04  0.15294330000E+03 0.  0.
<mgrwt>
<rscale>  0 0.15456730E+04</rscale>
<asrwt>0</asrwt>
<pdfrwt beam="1">  1        1 0.29864615E+00 0.15807319E+04</pdfrwt>
<pdfrwt beam="2">  1       -1 0.26624184E+00 0.15807319E+04</pdfrwt>
<totfact> 0.16682462E-01</totfact>
</mgrwt>
</event>
<event>
 4    1  0.2514307E-008  0.1318208E+04  0.7818608E-02  0.9049994E-01
         -1   -1    0    0    0  501 -0.00000000000E+00  0.00000000000E+00  0.20563112689E+04  0.20563112689E+04  0.50400000000E-02 0.  1.
          1   -1    0    0  501    0  0.00000000000E+00 -0.00000000000E+00 -0.15720173970E+04  0.15720173970E+04  0.50400000000E-02 0. -1.
    8880023    1    1    2    0    0 -0.11366725188E+04  0.10879819130E+03  0.15667415977E+04  0.20475231138E+04  0.65864270000E+03 0.  1.
    8880022    1    1    2    0    0  0.11366725188E+04 -0.10879819130E+03 -0.10824477257E+04  0.15808055521E+04  0.15294330000E+03 0.  0.
<mgrwt>
<rscale>  0 0.12745507E+04</rscale>
<asrwt>0</asrwt>
<pdfrwt beam="1">  1        1 0.24184883E+00 0.13182077E+04</pdfrwt>
<pdfrwt beam="2">  1       -1 0.31635558E+00 0.13182077E+04</pdfrwt>
<totfact> 0.14601542E-01</totfact>
</mgrwt>
</event>
<event>
 4    1  0.2514307E-008  0.9870174E+03  0.7818608E-02  0.9398743E-01
          1   -1    0    0  501    0  0.00000000000E+00  0.00000000000E+00  0.94959342108E+03  0.94959342110E+03  0.50400000000E-02 0. -1.
         -1   -1    0    0    0  501 -0.00000000000E+00 -0.00000000000E+00 -0.14132616829E+04  0.14132616829E+04  0.50400000000E-02 0.  1.
    8880023    1    1    2    0    0 -0.60439197755E+03 -0.41845374430E+03 -0.10268222631E+04  0.14242778398E+04  0.65864270000E+03 0.  1.
    8880022    1    1    2    0    0  0.60439197755E+03  0.41845374430E+03  0.56315400132E+03  0.93857726420E+03  0.15294330000E+03 0.  0.
<mgrwt>
<rscale>  0 0.92179170E+03</rscale>
<asrwt>0</asrwt>
<pdfrwt beam="1">  1        1 0.14609130E+00 0.98701743E+03</pdfrwt>
<pdfrwt beam="2">  1       -1 0.21742487E+00 0.98701743E+03</pdfrwt>
<totfact> 0.19129605E+00</totfact>
</mgrwt>
</event>
<event>
 4    1  0.2514307E-008  0.1230162E+04  0.7818608E-02  0.9128346E-01
          1   -1    0    0  501    0  0.00000000000E+00  0.00000000000E+00  0.34680788131E+04  0.34680788131E+04  0.50400000000E-02 0. -1.
         -1   -1    0    0    0  501 -0.00000000000E+00 -0.00000000000E+00 -0.98790487830E+03  0.98790487831E+03  0.50400000000E-02 0.  1.
    8880023    1    1    2    0    0 -0.27856980142E+03 -0.10009432540E+04 -0.47582285242E+03  0.13189791981E+04  0.65864270000E+03 0.  1.
    8880022    1    1    2    0    0  0.27856980142E+03  0.10009432540E+04  0.29559967873E+04  0.31370044933E+04  0.15294330000E+03 0.  0.
<mgrwt>
<rscale>  0 0.11824636E+04</rscale>
<asrwt>0</asrwt>
<pdfrwt beam="1">  1        1 0.53355058E+00 0.12301621E+04</pdfrwt>
<pdfrwt beam="2">  1       -1 0.15198537E+00 0.12301621E+04</pdfrwt>
<totfact> 0.88705236E-02</totfact>
</mgrwt>
</event>
<event>
 4    1  0.2514307E-008  0.7145776E+03  0.7818608E-02  0.9941379E-01
          1   -1    0    0  501    0  0.00000000000E+00  0.00000000000E+00  0.28956167829E+03  0.28956167834E+03  0.50400000000E-02 0. -1.
         -1   -1    0    0    0  501 -0.00000000000E+00 -0.00000000000E+00 -0.12226563285E+04  0.12226563286E+04  0.50400000000E-02 0.  1.
    8880023    1    1    2    0    0 -0.13874302423E+03  0.23991950164E+03 -0.95747793801E+03  0.11947322721E+04  0.65864270000E+03 0.  1.
    8880022    1    1    2    0    0  0.13874302423E+03 -0.23991950164E+03  0.24383287761E+02  0.31748573476E+03  0.15294330000E+03 0.  0.
<mgrwt>
<rscale>  0 0.58297102E+03</rscale>
<asrwt>0</asrwt>
<pdfrwt beam="1">  1        1 0.44547951E-01 0.71457764E+03</pdfrwt>
<pdfrwt beam="2">  1       -1 0.18810097E+00 0.71457764E+03</pdfrwt>
<totfact> 0.17252263E+01</totfact>
</mgrwt>
</event>
<event>
 4    1  0.2514307E-008  0.9026540E+03  0.7818608E-02  0.9521785E-01
          1   -1    0    0  501    0  0.00000000000E+00  0.00000000000E+00  0.10128206444E+04  0.10128206444E+04  0.50400000000E-02 0. -1.
         -1   -1    0    0    0  501 -0.00000000000E+00 -0.00000000000E+00 -0.10606560700E+04  0.10606560701E+04  0.50400000000E-02 0.  1.
    8880023    1    1    2    0    0  0.61298765401E+03  0.72250262860E+02 -0.71521024703E+03  0.11516552732E+04  0.65864270000E+03 0.  1.
    8880022    1    1    2    0    0 -0.61298765401E+03 -0.72250262860E+02  0.66737482138E+03  0.92182144133E+03  0.15294330000E+03 0.  0.
<mgrwt>
<rscale>  0 0.82696618E+03</rscale>
<asrwt>0</asrwt>
<pdfrwt beam="1">  1        1 0.15581856E+00 0.90265396E+03</pdfrwt>
<pdfrwt beam="2">  1       -1 0.16317786E+00 0.90265396E+03</pdfrwt>
<totfact> 0.41507711E+00</totfact>
</mgrwt>
</event>
<event>
 4    1  0.2514307E-008  0.1509750E+04  0.7818608E-02  0.8902782E-01
          1   -1    0    0  501    0  0.00000000000E+00  0.00000000000E+00  0.37625060107E+04  0.37625060107E+04  0.50400000000E-02 0. -1.
         -1   -1    0    0    0  501 -0.00000000000E+00 -0.00000000000E+00 -0.11011098894E+04  0.11011098894E+04  0.50400000000E-02 0.  1.
    8880023    1    1    2    0    0  0.53246583243E+03 -0.12498059944E+04 -0.35584022112E+03  0.15511180985E+04  0.65864270000E+03 0.  1.
    8880022    1    1    2    0    0 -0.53246583243E+03  0.12498059944E+04  0.30172363424E+04  0.33124978015E+04  0.15294330000E+03 0.  0.
<mgrwt>
<rscale>  0 0.14727459E+04</rscale>
<asrwt>0</asrwt>
<pdfrwt beam="1">  1        1 0.57884708E+00 0.15097500E+04</pdfrwt>
<pdfrwt beam="2">  1       -1 0.16940152E+00 0.15097500E+04</pdfrwt>
<totfact> 0.36391142E-02</totfact>
</mgrwt>
</event>
<event>
 4    1  0.2514307E-008  0.1866735E+04  0.7818608E-02  0.8686493E-01
         -1   -1    0    0    0  501 -0.00000000000E+00  0.00000000000E+00  0.23624096389E+04  0.23624096389E+04  0.50400000000E-02 0.  1.
          1   -1    0    0  501    0  0.00000000000E+00 -0.00000000000E+00 -0.19164698993E+04  0.19164698993E+04  0.50400000000E-02 0. -1.
    8880023    1    1    2    0    0 -0.10450676887E+04 -0.13995431490E+04  0.13523242478E+04  0.23050983878E+04  0.65864270000E+03 0.  0.
    8880022    1    1    2    0    0  0.10450676887E+04  0.13995431490E+04 -0.90638450825E+03  0.19737811504E+04  0.15294330000E+03 0.  0.
<mgrwt>
<rscale>  0 0.18377221E+04</rscale>
<asrwt>0</asrwt>
<pdfrwt beam="1">  1        1 0.29484152E+00 0.18667345E+04</pdfrwt>
<pdfrwt beam="2">  1       -1 0.36344764E+00 0.18667345E+04</pdfrwt>
<totfact> 0.38748125E-02</totfact>
</mgrwt>
</event>
<event>
 4    1  0.2514307E-008  0.7907849E+03  0.7818608E-02  0.9731087E-01
         -1   -1    0    0    0  501 -0.00000000000E+00  0.00000000000E+00  0.30381778244E+04  0.30381778244E+04  0.50400000000E-02 0.  1.
          1   -1    0    0  501    0  0.00000000000E+00 -0.00000000000E+00 -0.48964261323E+03  0.48964261326E+03  0.50400000000E-02 0. -1.
    8880023    1    1    2    0    0 -0.13364034596E+03 -0.41673825581E+03  0.28613132745E+04  0.29685778375E+04  0.65864270000E+03 0.  1.
    8880022    1    1    2    0    0  0.13364034596E+03  0.41673825581E+03 -0.31277806336E+03  0.55924260018E+03  0.15294330000E+03 0.  0.
<mgrwt>
<rscale>  0 0.69195670E+03</rscale>
<asrwt>0</asrwt>
<pdfrwt beam="1">  1        1 0.75329632E-01 0.79078488E+03</pdfrwt>
<pdfrwt beam="2">  1       -1 0.46741197E+00 0.79078488E+03</pdfrwt>
<totfact> 0.11950862E-01</totfact>
</mgrwt>
</event>
<event>
 4    1  0.2514307E-008  0.6892736E+03  0.7818608E-02  0.1004500E+00
          1   -1    0    0  501    0  0.00000000000E+00  0.00000000000E+00  0.23351912995E+04  0.23351912995E+04  0.50400000000E-02 0. -1.
         -1   -1    0    0    0  501 -0.00000000000E+00 -0.00000000000E+00 -0.41815542169E+03  0.41815542172E+03  0.50400000000E-02 0.  1.
    8880023    1    1    2    0    0  0.18951211649E+03 -0.73300878735E+02 -0.12073429398E+03  0.69976770226E+03  0.65864270000E+03 0.  1.
    8880022    1    1    2    0    0 -0.18951211649E+03  0.73300878735E+02  0.20377701718E+04  0.20535790190E+04  0.15294330000E+03 0.  0.
<mgrwt>
<rscale>  0 0.53720441E+03</rscale>
<asrwt>0</asrwt>
<pdfrwt beam="1">  1        1 0.35926019E+00 0.68927358E+03</pdfrwt>
<pdfrwt beam="2">  1       -1 0.64331605E-01 0.68927358E+03</pdfrwt>
<totfact> 0.46094689E+00</totfact>
</mgrwt>
</event>
<event>
 4    1  0.2514307E-008  0.9323491E+03  0.7818608E-02  0.9475978E-01
         -1   -1    0    0    0  501 -0.00000000000E+00  0.00000000000E+00  0.53323779021E+03  0.53323779023E+03  0.50400000000E-02 0.  1.
          1   -1    0    0  501    0  0.00000000000E+00 -0.00000000000E+00 -0.18393190704E+04  0.18393190704E+04  0.50400000000E-02 0. -1.
    8880023    1    1    2    0    0  0.34552010260E+03  0.56221039145E+03 -0.35903322836E+02  0.93304014941E+03  0.65864270000E+03 0.  1.
    8880022    1    1    2    0    0 -0.34552010260E+03 -0.56221039145E+03 -0.12701779574E+04  0.14395167113E+04  0.15294330000E+03 0.  0.
<mgrwt>
<rscale>  0 0.86078266E+03</rscale>
<asrwt>0</asrwt>
<pdfrwt beam="1">  1        1 0.28297216E+00 0.93234911E+03</pdfrwt>
<pdfrwt beam="2">  1       -1 0.82036584E-01 0.93234911E+03</pdfrwt>
<totfact> 0.57655610E+00</totfact>
</mgrwt>
</event>
<event>
 4    1  0.2514307E-008  0.1019557E+04  0.7818608E-02  0.9356407E-01
         -1   -1    0    0    0  501 -0.00000000000E+00  0.00000000000E+00  0.94694596521E+03  0.94694596522E+03  0.50400000000E-02 0.  1.
          1   -1    0    0  501    0  0.00000000000E+00 -0.00000000000E+00 -0.18715240054E+04  0.18715240054E+04  0.50400000000E-02 0. -1.
    8880023    1    1    2    0    0 -0.20480915091E+02  0.77798896228E+03  0.53939532442E+03  0.11534486619E+04  0.65864270000E+03 0.  1.
    8880022    1    1    2    0    0  0.20480915091E+02 -0.77798896228E+03 -0.14639733646E+04  0.16650213087E+04  0.15294330000E+03 0.  0.
<mgrwt>
<rscale>  0 0.95751744E+03</rscale>
<asrwt>0</asrwt>
<pdfrwt beam="1">  1        1 0.28792677E+00 0.10195570E+04</pdfrwt>
<pdfrwt beam="2">  1       -1 0.14568399E+00 0.10195570E+04</pdfrwt>
<totfact> 0.13833376E+00</totfact>
</mgrwt>
</event>
<event>
 4    1  0.2514307E-008  0.9449357E+03  0.7818608E-02  0.9457438E-01
         -1   -1    0    0    0  501 -0.00000000000E+00  0.00000000000E+00  0.23662707491E+03  0.23662707496E+03  0.50400000000E-02 0.  1.
          1   -1    0    0  501    0  0.00000000000E+00 -0.00000000000E+00 -0.30934224303E+04  0.30934224304E+04  0.50400000000E-02 0. -1.
    8880023    1    1    2    0    0  0.44930559367E+03 -0.50716648169E+03 -0.11572113233E+04  0.14940018774E+04  0.65864270000E+03 0.  0.
    8880022    1    1    2    0    0 -0.44930559367E+03  0.50716648169E+03 -0.16995840321E+04  0.18360476279E+04  0.15294330000E+03 0.  0.
<mgrwt>
<rscale>  0 0.87495796E+03</rscale>
<asrwt>0</asrwt>
<pdfrwt beam="1">  1        1 0.47591112E+00 0.94493575E+03</pdfrwt>
<pdfrwt beam="2">  1       -1 0.36404167E-01 0.94493575E+03</pdfrwt>
<totfact> 0.38254003E+00</totfact>
</mgrwt>
</event>
<event>
 4    1  0.2514307E-008  0.1640812E+04  0.7818608E-02  0.8816114E-01
          1   -1    0    0  501    0  0.00000000000E+00  0.00000000000E+00  0.16510777074E+04  0.16510777074E+04  0.50400000000E-02 0. -1.
         -1   -1    0    0    0  501 -0.00000000000E+00 -0.00000000000E+00 -0.17324203142E+04  0.17324203142E+04  0.50400000000E-02 0.  1.
    8880023    1    1    2    0    0 -0.13453015965E+04 -0.66978935636E+03 -0.65629961486E+03  0.17671993544E+04  0.65864270000E+03 0. -1.
    8880022    1    1    2    0    0  0.13453015965E+04  0.66978935636E+03  0.57495700804E+03  0.16162986672E+04  0.15294330000E+03 0.  0.
<mgrwt>
<rscale>  0 0.16072370E+04</rscale>
<asrwt>0</asrwt>
<pdfrwt beam="1">  1        1 0.25401195E+00 0.16408121E+04</pdfrwt>
<pdfrwt beam="2">  1       -1 0.26652620E+00 0.16408121E+04</pdfrwt>
<totfact> 0.26056264E-01</totfact>
</mgrwt>
</event>
<event>
 4    1  0.2514307E-008  0.6842844E+03  0.7818608E-02  0.1006997E+00
         -1   -1    0    0    0  501 -0.00000000000E+00  0.00000000000E+00  0.12927618342E+04  0.12927618342E+04  0.50400000000E-02 0.  1.
          1   -1    0    0  501    0  0.00000000000E+00 -0.00000000000E+00 -0.20966389354E+03  0.20966389360E+03  0.50400000000E-02 0. -1.
    8880023    1    1    2    0    0  0.62801052967E+01  0.18546011108E+03  0.10588734847E+04  0.12607371476E+04  0.65864270000E+03 0.  1.
    8880022    1    1    2    0    0 -0.62801052967E+01 -0.18546011108E+03  0.24224455989E+02  0.24168858021E+03  0.15294330000E+03 0.  0.
<mgrwt>
<rscale>  0 0.52685775E+03</rscale>
<asrwt>0</asrwt>
<pdfrwt beam="1">  1        1 0.32255983E-01 0.68428437E+03</pdfrwt>
<pdfrwt beam="2">  1       -1 0.19888644E+00 0.68428437E+03</pdfrwt>
<totfact> 0.22128933E+01</totfact>
</mgrwt>
</event>
<event>
 4    1  0.2514307E-008  0.7910807E+03  0.7818608E-02  0.9730424E-01
          1   -1    0    0  501    0  0.00000000000E+00  0.00000000000E+00  0.12193643474E+04  0.12193643474E+04  0.50400000000E-02 0. -1.
         -1   -1    0    0    0  501 -0.00000000000E+00 -0.00000000000E+00 -0.64960631954E+03  0.64960631956E+03  0.50400000000E-02 0.  1.
    8880023    1    1    2    0    0 -0.26289637290E+03  0.35054812567E+03 -0.32954354550E+03  0.85697587244E+03  0.65864270000E+03 0.  1.
    8880022    1    1    2    0    0  0.26289637290E+03 -0.35054812567E+03  0.89930157337E+03  0.10119947945E+04  0.15294330000E+03 0.  0.
<mgrwt>
<rscale>  0 0.69233905E+03</rscale>
<asrwt>0</asrwt>
<pdfrwt beam="1">  1        1 0.18759451E+00 0.79108071E+03</pdfrwt>
<pdfrwt beam="2">  1       -1 0.99939435E-01 0.79108071E+03</pdfrwt>
<totfact> 0.10157230E+01</totfact>
</mgrwt>
</event>
<event>
 4    1  0.2514307E-008  0.7403624E+03  0.7818608E-02  0.9858893E-01
         -1   -1    0    0    0  501 -0.00000000000E+00  0.00000000000E+00  0.45030819328E+03  0.45030819331E+03  0.50400000000E-02 0.  1.
          1   -1    0    0  501    0  0.00000000000E+00 -0.00000000000E+00 -0.70833602144E+03  0.70833602146E+03  0.50400000000E-02 0. -1.
    8880023    1    1    2    0    0  0.33068935279E+03  0.70504610385E+02 -0.72945315460E+02  0.74394729211E+03  0.65864270000E+03 0.  0.
    8880022    1    1    2    0    0 -0.33068935279E+03 -0.70504610385E+02 -0.18508251271E+03  0.41469692265E+03  0.15294330000E+03 0. -1.
<mgrwt>
<rscale>  0 0.62295565E+03</rscale>
<asrwt>0</asrwt>
<pdfrwt beam="1">  1        1 0.10897477E+00 0.74036245E+03</pdfrwt>
<pdfrwt beam="2">  1       -1 0.69278183E-01 0.74036245E+03</pdfrwt>
<totfact> 0.57659508E+01</totfact>
</mgrwt>
</event>
<event>
 4    1  0.2514307E-008  0.1175263E+04  0.7818608E-02  0.9181552E-01
          1   -1    0    0  501    0  0.00000000000E+00  0.00000000000E+00  0.13460407817E+04  0.13460407818E+04  0.50400000000E-02 0. -1.
         -1   -1    0    0    0  501 -0.00000000000E+00 -0.00000000000E+00 -0.12040145497E+04  0.12040145498E+04  0.50400000000E-02 0.  1.
    8880023    1    1    2    0    0 -0.46575044441E+03  0.85469813620E+03 -0.59718635486E+03  0.13182845403E+04  0.65864270000E+03 0. -1.
    8880022    1    1    2    0    0  0.46575044441E+03 -0.85469813620E+03  0.73921258687E+03  0.12317707912E+04  0.15294330000E+03 0.  0.
<mgrwt>
<rscale>  0 0.11245889E+04</rscale>
<asrwt>0</asrwt>
<pdfrwt beam="1">  1        1 0.20708320E+00 0.11752628E+04</pdfrwt>
<pdfrwt beam="2">  1       -1 0.18523301E+00 0.11752628E+04</pdfrwt>
<totfact> 0.15740382E+00</totfact>
</mgrwt>
</event>
<event>
 4    1  0.2987761E-008  0.9462904E+03  0.7818608E-02  0.9455472E-01
         -1   -1    0    0    0  501 -0.00000000000E+00  0.00000000000E+00  0.11183431472E+04  0.11183431472E+04  0.50400000000E-02 0.  1.
          1   -1    0    0  501    0  0.00000000000E+00 -0.00000000000E+00 -0.25979094192E+04  0.25979094192E+04  0.50400000000E-02 0. -1.
    8880023    1    1    2    0    0 -0.24714152107E+03  0.63291110323E+03  0.85787046738E+03  0.12772655719E+04  0.65864270000E+03 0.  0.
    8880022    1    1    2    0    0  0.24714152107E+03 -0.63291110323E+03 -0.23374367394E+04  0.24389869945E+04  0.15294330000E+03 0.  0.
<mgrwt>
<rscale>  0 0.87647861E+03</rscale>
<asrwt>0</asrwt>
<pdfrwt beam="1">  1        1 0.39967837E+00 0.94629044E+03</pdfrwt>
<pdfrwt beam="2">  1       -1 0.17205279E+00 0.94629044E+03</pdfrwt>
<totfact> 0.28376138E-01</totfact>
</mgrwt>
</event>
<event>
 4    1  0.2514307E-008  0.1012365E+04  0.7818608E-02  0.9365557E-01
          1   -1    0    0  501    0  0.00000000000E+00  0.00000000000E+00  0.10789926961E+04  0.10789926961E+04  0.50400000000E-02 0. -1.
         -1   -1    0    0    0  501 -0.00000000000E+00 -0.00000000000E+00 -0.11347888490E+04  0.11347888490E+04  0.50400000000E-02 0.  1.
    8880023    1    1    2    0    0  0.39952080249E+03 -0.65685256694E+03 -0.67336618329E+03  0.12158554147E+04  0.65864270000E+03 0.  0.
    8880022    1    1    2    0    0 -0.39952080249E+03  0.65685256694E+03  0.61757003043E+03  0.99792613044E+03  0.15294330000E+03 0.  0.
<mgrwt>
<rscale>  0 0.94965268E+03</rscale>
<asrwt>0</asrwt>
<pdfrwt beam="1">  1        1 0.16599888E+00 0.10123647E+04</pdfrwt>
<pdfrwt beam="2">  1       -1 0.17458290E+00 0.10123647E+04</pdfrwt>
<totfact> 0.30011997E+00</totfact>
</mgrwt>
</event>
<event>
 4    1  0.2514307E-008  0.8331325E+03  0.7818608E-02  0.9643268E-01
          1   -1    0    0  501    0  0.00000000000E+00  0.00000000000E+00  0.15981803980E+04  0.15981803980E+04  0.50400000000E-02 0. -1.
         -1   -1    0    0    0  501 -0.00000000000E+00 -0.00000000000E+00 -0.13515187226E+04  0.13515187226E+04  0.50400000000E-02 0.  1.
    8880023    1    1    2    0    0 -0.48436708033E+03  0.16027490182E+03 -0.11699434986E+04  0.14362720874E+04  0.65864270000E+03 0.  1.
    8880022    1    1    2    0    0  0.48436708033E+03 -0.16027490182E+03  0.14166051741E+04  0.15134270332E+04  0.15294330000E+03 0.  0.
<mgrwt>
<rscale>  0 0.74497427E+03</rscale>
<asrwt>0</asrwt>
<pdfrwt beam="1">  1        1 0.24587391E+00 0.83313247E+03</pdfrwt>
<pdfrwt beam="2">  1       -1 0.20792596E+00 0.83313247E+03</pdfrwt>
<totfact> 0.77175570E-01</totfact>
</mgrwt>
</event>
<event>
 4    1  0.2514307E-008  0.1415152E+04  0.7818608E-02  0.8971998E-01
          1   -1    0    0  501    0  0.00000000000E+00  0.00000000000E+00  0.24696630968E+04  0.24696630968E+04  0.50400000000E-02 0. -1.
         -1   -1    0    0    0  501 -0.00000000000E+00 -0.00000000000E+00 -0.78322023181E+03  0.78322023183E+03  0.50400000000E-02 0.  1.
    8880023    1    1    2    0    0 -0.12120846628E+04 -0.31574588177E+03  0.13290740564E+04  0.19414151399E+04  0.65864270000E+03 0.  0.
    8880022    1    1    2    0    0  0.12120846628E+04  0.31574588177E+03  0.35736880855E+03  0.13114681887E+04  0.15294330000E+03 0. -1.
<mgrwt>
<rscale>  0 0.13751600E+04</rscale>
<asrwt>0</asrwt>
<pdfrwt beam="1">  1        1 0.37994816E+00 0.14151519E+04</pdfrwt>
<pdfrwt beam="2">  1       -1 0.12049542E+00 0.14151519E+04</pdfrwt>
<totfact> 0.83885784E-01</totfact>
</mgrwt>
</event>
<event>
 4    1  0.2514307E-008  0.7784208E+03  0.7818608E-02  0.9759560E-01
         -1   -1    0    0    0  501 -0.00000000000E+00  0.00000000000E+00  0.73409783903E+03  0.73409783905E+03  0.50400000000E-02 0.  1.
          1   -1    0    0  501    0  0.00000000000E+00 -0.00000000000E+00 -0.17766872100E+04  0.17766872100E+04  0.50400000000E-02 0. -1.
    8880023    1    1    2    0    0  0.38420202942E+03 -0.15658058256E+03  0.48723884961E+03  0.91833576707E+03  0.65864270000E+03 0.  1.
    8880022    1    1    2    0    0 -0.38420202942E+03  0.15658058256E+03 -0.15298282206E+04  0.15924492820E+04  0.15294330000E+03 0.  0.
<mgrwt>
<rscale>  0 0.67578695E+03</rscale>
<asrwt>0</asrwt>
<pdfrwt beam="1">  1        1 0.27333649E+00 0.77842076E+03</pdfrwt>
<pdfrwt beam="2">  1       -1 0.11293813E+00 0.77842076E+03</pdfrwt>
<totfact> 0.31595543E+00</totfact>
</mgrwt>
</event>
<event>
 4    1  0.2514307E-008  0.1084674E+04  0.7818608E-02  0.9278314E-01
          1   -1    0    0  501    0  0.00000000000E+00  0.00000000000E+00  0.31703101128E+04  0.31703101128E+04  0.50400000000E-02 0. -1.
         -1   -1    0    0    0  501 -0.00000000000E+00 -0.00000000000E+00 -0.69982023710E+03  0.69982023712E+03  0.50400000000E-02 0.  1.
    8880023    1    1    2    0    0 -0.14760005904E+03 -0.84907153075E+03 -0.16130677333E+03  0.10966030837E+04  0.65864270000E+03 0.  1.
    8880022    1    1    2    0    0  0.14760005904E+03  0.84907153075E+03  0.26317966491E+04  0.27735272663E+04  0.15294330000E+03 0.  0.
<mgrwt>
<rscale>  0 0.10280405E+04</rscale>
<asrwt>0</asrwt>
<pdfrwt beam="1">  1        1 0.48774001E+00 0.10846744E+04</pdfrwt>
<pdfrwt beam="2">  1       -1 0.10766465E+00 0.10846744E+04</pdfrwt>
<totfact> 0.36508560E-01</totfact>
</mgrwt>
</event>
<event>
 4    1  0.2514307E-008  0.1413786E+04  0.7818608E-02  0.8973044E-01
          1   -1    0    0  501    0  0.00000000000E+00  0.00000000000E+00  0.12983859231E+04  0.12983859231E+04  0.50400000000E-02 0. -1.
         -1   -1    0    0    0  501 -0.00000000000E+00 -0.00000000000E+00 -0.16145585484E+04  0.16145585484E+04  0.50400000000E-02 0.  1.
    8880023    1    1    2    0    0 -0.61337242027E+03  0.10903002096E+04  0.39223514220E+03  0.14671874066E+04  0.65864270000E+03 0.  1.
    8880022    1    1    2    0    0  0.61337242027E+03 -0.10903002096E+04 -0.70840776751E+03  0.14457570650E+04  0.15294330000E+03 0.  0.
<mgrwt>
<rscale>  0 0.13737470E+04</rscale>
<asrwt>0</asrwt>
<pdfrwt beam="1">  1        1 0.19975168E+00 0.14137859E+04</pdfrwt>
<pdfrwt beam="2">  1       -1 0.24839362E+00 0.14137859E+04</pdfrwt>
<totfact> 0.61957899E-01</totfact>
</mgrwt>
</event>
<event>
 4    1  0.2514307E-008  0.7897411E+03  0.7818608E-02  0.9733433E-01
         -1   -1    0    0    0  501 -0.00000000000E+00  0.00000000000E+00  0.37293280481E+03  0.37293280485E+03  0.50400000000E-02 0.  1.
          1   -1    0    0  501    0  0.00000000000E+00 -0.00000000000E+00 -0.12031872052E+04  0.12031872052E+04  0.50400000000E-02 0. -1.
    8880023    1    1    2    0    0  0.40792310685E+03  0.15323036435E+03 -0.23745788142E+03  0.82466796796E+03  0.65864270000E+03 0. -1.
    8880022    1    1    2    0    0 -0.40792310685E+03 -0.15323036435E+03 -0.59279651894E+03  0.75145204208E+03  0.15294330000E+03 0.  1.
<mgrwt>
<rscale>  0 0.69060609E+03</rscale>
<asrwt>0</asrwt>
<pdfrwt beam="1">  1        1 0.18510572E+00 0.78974110E+03</pdfrwt>
<pdfrwt beam="2">  1       -1 0.57374278E-01 0.78974110E+03</pdfrwt>
<totfact> 0.33473735E+01</totfact>
</mgrwt>
</event>
<event>
 4    1  0.2514307E-008  0.7887193E+03  0.7818608E-02  0.9735740E-01
          1   -1    0    0  501    0  0.00000000000E+00  0.00000000000E+00  0.13440686042E+04  0.13440686042E+04  0.50400000000E-02 0. -1.
         -1   -1    0    0    0  501 -0.00000000000E+00 -0.00000000000E+00 -0.37552205359E+03  0.37552205362E+03  0.50400000000E-02 0.  1.
    8880023    1    1    2    0    0 -0.39200746900E+03 -0.18600555947E+03  0.18368126342E+03  0.80982525072E+03  0.65864270000E+03 0.  0.
    8880022    1    1    2    0    0  0.39200746900E+03  0.18600555947E+03  0.78486528717E+03  0.90976540708E+03  0.15294330000E+03 0.  0.
<mgrwt>
<rscale>  0 0.68928145E+03</rscale>
<asrwt>0</asrwt>
<pdfrwt beam="1">  1        1 0.20677979E+00 0.78871930E+03</pdfrwt>
<pdfrwt beam="2">  1       -1 0.57772624E-01 0.78871930E+03</pdfrwt>
<totfact> 0.26211553E+01</totfact>
</mgrwt>
</event>
<event>
 4    1  0.2514307E-008  0.7987058E+03  0.7818608E-02  0.9713601E-01
         -1   -1    0    0    0  501 -0.00000000000E+00  0.00000000000E+00  0.61538880481E+03  0.61538880483E+03  0.50400000000E-02 0.  1.
          1   -1    0    0  501    0  0.00000000000E+00 -0.00000000000E+00 -0.19749990970E+04  0.19749990970E+04  0.50400000000E-02 0. -1.
    8880023    1    1    2    0    0  0.44645708907E+03  0.69259387543E+02  0.30790078910E+03  0.85599877180E+03  0.65864270000E+03 0.  1.
    8880022    1    1    2    0    0 -0.44645708907E+03 -0.69259387543E+02 -0.16675110813E+04  0.17343891301E+04  0.15294330000E+03 0.  0.
<mgrwt>
<rscale>  0 0.70212718E+03</rscale>
<asrwt>0</asrwt>
<pdfrwt beam="1">  1        1 0.30384601E+00 0.79870583E+03</pdfrwt>
<pdfrwt beam="2">  1       -1 0.94675201E-01 0.79870583E+03</pdfrwt>
<totfact> 0.34848900E+00</totfact>
</mgrwt>
</event>
<event>
 4    1  0.2514307E-008  0.1120382E+04  0.7818608E-02  0.9238696E-01
          1   -1    0    0  501    0  0.00000000000E+00  0.00000000000E+00  0.24177431471E+04  0.24177431471E+04  0.50400000000E-02 0. -1.
         -1   -1    0    0    0  501 -0.00000000000E+00 -0.00000000000E+00 -0.87112761787E+03  0.87112761789E+03  0.50400000000E-02 0.  1.
    8880023    1    1    2    0    0  0.47445585660E+03  0.77222817508E+03 -0.35623811410E+03  0.11756532288E+04  0.65864270000E+03 0.  0.
    8880022    1    1    2    0    0 -0.47445585660E+03 -0.77222817508E+03  0.19028536433E+04  0.21132175362E+04  0.15294330000E+03 0.  0.
<mgrwt>
<rscale>  0 0.10662795E+04</rscale>
<asrwt>0</asrwt>
<pdfrwt beam="1">  1        1 0.37196048E+00 0.11203816E+04</pdfrwt>
<pdfrwt beam="2">  1       -1 0.13401964E+00 0.11203816E+04</pdfrwt>
<totfact> 0.72354309E-01</totfact>
</mgrwt>
</event>
<event>
 4    1  0.2514307E-008  0.7092172E+03  0.7818608E-02  0.9960919E-01
         -1   -1    0    0    0  501 -0.00000000000E+00  0.00000000000E+00  0.34544331184E+03  0.34544331188E+03  0.50400000000E-02 0.  1.
          1   -1    0    0  501    0  0.00000000000E+00 -0.00000000000E+00 -0.18303235651E+04  0.18303235651E+04  0.50400000000E-02 0. -1.
    8880023    1    1    2    0    0 -0.30064691188E+02  0.26129467883E+03 -0.52199387777E+02  0.71113555472E+03  0.65864270000E+03 0.  1.
    8880022    1    1    2    0    0  0.30064691188E+02 -0.26129467883E+03 -0.14326808655E+04  0.14646313223E+04  0.15294330000E+03 0.  0.
<mgrwt>
<rscale>  0 0.57397566E+03</rscale>
<asrwt>0</asrwt>
<pdfrwt beam="1">  1        1 0.28158824E+00 0.70921717E+03</pdfrwt>
<pdfrwt beam="2">  1       -1 0.53145126E-01 0.70921717E+03</pdfrwt>
<totfact> 0.14529331E+01</totfact>
</mgrwt>
</event>
<event>
 4    1  0.2514307E-008  0.9619056E+03  0.7818608E-02  0.9433187E-01
          1   -1    0    0  501    0  0.00000000000E+00  0.00000000000E+00  0.16997578255E+04  0.16997578255E+04  0.50400000000E-02 0. -1.
         -1   -1    0    0    0  501 -0.00000000000E+00 -0.00000000000E+00 -0.43201162363E+03  0.43201162366E+03  0.50400000000E-02 0.  1.
    8880023    1    1    2    0    0 -0.22727381662E+03 -0.66317330160E+03  0.51209306675E+03  0.10897255301E+04  0.65864270000E+03 0.  0.
    8880022    1    1    2    0    0  0.22727381662E+03  0.66317330160E+03  0.75565313515E+03  0.10420439191E+04  0.15294330000E+03 0.  0.
<mgrwt>
<rscale>  0 0.89394086E+03</rscale>
<asrwt>0</asrwt>
<pdfrwt beam="1">  1        1 0.26150121E+00 0.96190562E+03</pdfrwt>
<pdfrwt beam="2">  1       -1 0.66463325E-01 0.96190562E+03</pdfrwt>
<totfact> 0.11069791E+01</totfact>
</mgrwt>
</event>
<event>
 4    1  0.2514307E-008  0.7986516E+03  0.7818608E-02  0.9713719E-01
         -1   -1    0    0    0  501 -0.00000000000E+00  0.00000000000E+00  0.53508187813E+03  0.53508187816E+03  0.50400000000E-02 0.  1.
          1   -1    0    0  501    0  0.00000000000E+00 -0.00000000000E+00 -0.14210483616E+04  0.14210483616E+04  0.50400000000E-02 0. -1.
    8880023    1    1    2    0    0 -0.44010146469E+03  0.10170989636E+03  0.15278852298E+03  0.81313513099E+03  0.65864270000E+03 0.  1.
    8880022    1    1    2    0    0  0.44010146469E+03 -0.10170989636E+03 -0.10387550064E+04  0.11429951087E+04  0.15294330000E+03 0.  0.
<mgrwt>
<rscale>  0 0.70205803E+03</rscale>
<asrwt>0</asrwt>
<pdfrwt beam="1">  1        1 0.21862282E+00 0.79865162E+03</pdfrwt>
<pdfrwt beam="2">  1       -1 0.82320290E-01 0.79865162E+03</pdfrwt>
<totfact> 0.11219562E+01</totfact>
</mgrwt>
</event>
<event>
 4    1  0.2514307E-008  0.8210842E+03  0.7818608E-02  0.9666935E-01
         -1   -1    0    0    0  501 -0.00000000000E+00  0.00000000000E+00  0.47262959946E+03  0.47262959948E+03  0.50400000000E-02 0.  1.
          1   -1    0    0  501    0  0.00000000000E+00 -0.00000000000E+00 -0.22441634791E+04  0.22441634791E+04  0.50400000000E-02 0. -1.
    8880023    1    1    2    0    0  0.25232785100E+01  0.49026796399E+03  0.51598903296E+02  0.82270389360E+03  0.65864270000E+03 0.  0.
    8880022    1    1    2    0    0 -0.25232785100E+01 -0.49026796399E+03 -0.18231327829E+04  0.18940891849E+04  0.15294330000E+03 0.  0.
<mgrwt>
<rscale>  0 0.73020034E+03</rscale>
<asrwt>0</asrwt>
<pdfrwt beam="1">  1        1 0.34525591E+00 0.82108419E+03</pdfrwt>
<pdfrwt beam="2">  1       -1 0.72712247E-01 0.82108419E+03</pdfrwt>
<totfact> 0.40403124E+00</totfact>
</mgrwt>
</event>
<event>
 4    1  0.2514307E-008  0.8629842E+03  0.7818608E-02  0.9588277E-01
         -1   -1    0    0    0  501 -0.00000000000E+00  0.00000000000E+00  0.12872896528E+04  0.12872896528E+04  0.50400000000E-02 0.  1.
          1   -1    0    0  501    0  0.00000000000E+00 -0.00000000000E+00 -0.76903596415E+03  0.76903596417E+03  0.50400000000E-02 0. -1.
    8880023    1    1    2    0    0  0.50401632868E+03  0.23853527222E+03  0.98765830338E+03  0.13115680181E+04  0.65864270000E+03 0.  1.
    8880022    1    1    2    0    0 -0.50401632868E+03 -0.23853527222E+03 -0.46940461475E+03  0.74475759884E+03  0.15294330000E+03 0.  0.
<mgrwt>
<rscale>  0 0.78076970E+03</rscale>
<asrwt>0</asrwt>
<pdfrwt beam="1">  1        1 0.11831322E+00 0.86298421E+03</pdfrwt>
<pdfrwt beam="2">  1       -1 0.19804456E+00 0.86298421E+03</pdfrwt>
<totfact> 0.37337022E+00</totfact>
</mgrwt>
</event>
<event>
 4    1  0.2514307E-008  0.9253934E+03  0.7818608E-02  0.9486438E-01
          1   -1    0    0  501    0  0.00000000000E+00  0.00000000000E+00  0.76080797032E+03  0.76080797034E+03  0.50400000000E-02 0. -1.
         -1   -1    0    0    0  501 -0.00000000000E+00 -0.00000000000E+00 -0.12337358540E+04  0.12337358540E+04  0.50400000000E-02 0.  1.
    8880023    1    1    2    0    0 -0.59500330069E+03  0.26175129799E+03 -0.82489813448E+03  0.12396813334E+04  0.65864270000E+03 0.  0.
    8880022    1    1    2    0    0  0.59500330069E+03 -0.26175129799E+03  0.35197025078E+03  0.75486249098E+03  0.15294330000E+03 0. -1.
<mgrwt>
<rscale>  0 0.85291087E+03</rscale>
<asrwt>0</asrwt>
<pdfrwt beam="1">  1        1 0.11704738E+00 0.92539336E+03</pdfrwt>
<pdfrwt beam="2">  1       -1 0.18980552E+00 0.92539336E+03</pdfrwt>
<totfact> 0.42976450E+00</totfact>
</mgrwt>
</event>
<event>
 4    1  0.2514307E-008  0.1026216E+04  0.7818608E-02  0.9348035E-01
          1   -1    0    0  501    0  0.00000000000E+00  0.00000000000E+00  0.34725388571E+04  0.34725388571E+04  0.50400000000E-02 0. -1.
         -1   -1    0    0    0  501 -0.00000000000E+00 -0.00000000000E+00 -0.37777409347E+03  0.37777409350E+03  0.50400000000E-02 0.  1.
    8880023    1    1    2    0    0 -0.37162196067E+03  0.69369044029E+03  0.51369616665E+03  0.11476076274E+04  0.65864270000E+03 0.  0.
    8880022    1    1    2    0    0  0.37162196067E+03 -0.69369044029E+03  0.25810685970E+04  0.27027053232E+04  0.15294330000E+03 0.  0.
<mgrwt>
<rscale>  0 0.96478433E+03</rscale>
<asrwt>0</asrwt>
<pdfrwt beam="1">  1        1 0.53423674E+00 0.10262161E+04</pdfrwt>
<pdfrwt beam="2">  1       -1 0.58119092E-01 0.10262161E+04</pdfrwt>
<totfact> 0.81494613E-01</totfact>
</mgrwt>
</event>
<event>
 4    1  0.2514307E-008  0.7209248E+03  0.7818608E-02  0.9919469E-01
         -1   -1    0    0    0  501 -0.00000000000E+00  0.00000000000E+00  0.34780055847E+03  0.34780055851E+03  0.50400000000E-02 0.  1.
          1   -1    0    0  501    0  0.00000000000E+00 -0.00000000000E+00 -0.93503520989E+03  0.93503520991E+03  0.50400000000E-02 0. -1.
    8880023    1    1    2    0    0 -0.25459276362E+03 -0.14527537017E+03 -0.15287045288E+03  0.73695453733E+03  0.65864270000E+03 0.  1.
    8880022    1    1    2    0    0  0.25459276362E+03  0.14527537017E+03 -0.43436419854E+03  0.54588123109E+03  0.15294330000E+03 0. -1.
<mgrwt>
<rscale>  0 0.59326946E+03</rscale>
<asrwt>0</asrwt>
<pdfrwt beam="1">  1        1 0.14385157E+00 0.72092483E+03</pdfrwt>
<pdfrwt beam="2">  1       -1 0.53507779E-01 0.72092483E+03</pdfrwt>
<totfact> 0.61559044E+01</totfact>
</mgrwt>
</event>
<event>
 4    1  0.2514307E-008  0.7210936E+03  0.7818608E-02  0.9918903E-01
         -1   -1    0    0    0  501 -0.00000000000E+00  0.00000000000E+00  0.42394158069E+03  0.42394158072E+03  0.50400000000E-02 0.  1.
          1   -1    0    0  501    0  0.00000000000E+00 -0.00000000000E+00 -0.12346325417E+04  0.12346325417E+04  0.50400000000E-02 0. -1.
    8880023    1    1    2    0    0  0.27600730606E+03  0.99928363210E+02  0.63436339951E+02  0.72387850242E+03  0.65864270000E+03 0.  1.
    8880022    1    1    2    0    0 -0.27600730606E+03 -0.99928363210E+02 -0.87412730092E+03  0.93469561997E+03  0.15294330000E+03 0.  0.
<mgrwt>
<rscale>  0 0.59353852E+03</rscale>
<asrwt>0</asrwt>
<pdfrwt beam="1">  1        1 0.18994347E+00 0.72109356E+03</pdfrwt>
<pdfrwt beam="2">  1       -1 0.65221782E-01 0.72109356E+03</pdfrwt>
<totfact> 0.24844341E+01</totfact>
</mgrwt>
</event>
<event>
 4    1  0.2514307E-008  0.8208944E+03  0.7818608E-02  0.9667316E-01
         -1   -1    0    0    0  501 -0.00000000000E+00  0.00000000000E+00  0.96742699211E+03  0.96742699213E+03  0.50400000000E-02 0.  1.
          1   -1    0    0  501    0  0.00000000000E+00 -0.00000000000E+00 -0.84491275843E+03  0.84491275844E+03  0.50400000000E-02 0. -1.
    8880023    1    1    2    0    0  0.12268808646E+02  0.48980282476E+03  0.67166775200E+03  0.10606625788E+04  0.65864270000E+03 0.  1.
    8880022    1    1    2    0    0 -0.12268808646E+02 -0.48980282476E+03 -0.54915351832E+03  0.75167717173E+03  0.15294330000E+03 0.  0.
<mgrwt>
<rscale>  0 0.72996581E+03</rscale>
<asrwt>0</asrwt>
<pdfrwt beam="1">  1        1 0.12998658E+00 0.82089435E+03</pdfrwt>
<pdfrwt beam="2">  1       -1 0.14883492E+00 0.82089435E+03</pdfrwt>
<totfact> 0.73755209E+00</totfact>
</mgrwt>
</event>
<event>
 4    1  0.2514307E-008  0.8556111E+03  0.7818608E-02  0.9601419E-01
          1   -1    0    0  501    0  0.00000000000E+00  0.00000000000E+00  0.46940648485E+03  0.46940648488E+03  0.50400000000E-02 0. -1.
         -1   -1    0    0    0  501 -0.00000000000E+00 -0.00000000000E+00 -0.16742871268E+04  0.16742871268E+04  0.50400000000E-02 0.  1.
    8880023    1    1    2    0    0  0.51829494185E+03 -0.17213525380E+03 -0.13121804637E+04  0.15664890577E+04  0.65864270000E+03 0.  1.
    8880022    1    1    2    0    0 -0.51829494185E+03  0.17213525380E+03  0.10729982177E+03  0.57720455396E+03  0.15294330000E+03 0.  0.
<mgrwt>
<rscale>  0 0.77202359E+03</rscale>
<asrwt>0</asrwt>
<pdfrwt beam="1">  1        1 0.72216383E-01 0.85561113E+03</pdfrwt>
<pdfrwt beam="2">  1       -1 0.25758263E+00 0.85561113E+03</pdfrwt>
<totfact> 0.30908943E+00</totfact>
</mgrwt>
</event>
<event>
 4    1  0.2514307E-008  0.7485786E+03  0.7818608E-02  0.9835628E-01
         -1   -1    0    0    0  501 -0.00000000000E+00  0.00000000000E+00  0.14277561703E+03  0.14277561712E+03  0.50400000000E-02 0.  1.
          1   -1    0    0  501    0  0.00000000000E+00 -0.00000000000E+00 -0.29008437393E+04  0.29008437393E+04  0.50400000000E-02 0. -1.
    8880023    1    1    2    0    0  0.29041232145E+03 -0.20547602891E+03 -0.10335790493E+04  0.12761879063E+04  0.65864270000E+03 0.  1.
    8880022    1    1    2    0    0 -0.29041232145E+03  0.20547602891E+03 -0.17244890729E+04  0.17674314501E+04  0.15294330000E+03 0.  0.
<mgrwt>
<rscale>  0 0.63485108E+03</rscale>
<asrwt>0</asrwt>
<pdfrwt beam="1">  1        1 0.44628361E+00 0.74857860E+03</pdfrwt>
<pdfrwt beam="2">  1       -1 0.21965482E-01 0.74857860E+03</pdfrwt>
<totfact> 0.13039576E+01</totfact>
</mgrwt>
</event>
<event>
 4    1  0.2514307E-008  0.6703453E+03  0.7818608E-02  0.1015417E+00
          1   -1    0    0  501    0  0.00000000000E+00  0.00000000000E+00  0.10449393464E+04  0.10449393464E+04  0.50400000000E-02 0. -1.
         -1   -1    0    0    0  501 -0.00000000000E+00 -0.00000000000E+00 -0.52637448876E+03  0.52637448878E+03  0.50400000000E-02 0.  1.
    8880023    1    1    2    0    0  0.53482277332E+02  0.11265982358E+03 -0.29628815984E+03  0.73290481631E+03  0.65864270000E+03 0.  0.
    8880022    1    1    2    0    0 -0.53482277332E+02 -0.11265982358E+03  0.81485301745E+03  0.83840901886E+03  0.15294330000E+03 0.  0.
<mgrwt>
<rscale>  0 0.49377526E+03</rscale>
<asrwt>0</asrwt>
<pdfrwt beam="1">  1        1 0.16075990E+00 0.67034528E+03</pdfrwt>
<pdfrwt beam="2">  1       -1 0.80980691E-01 0.67034528E+03</pdfrwt>
<totfact> 0.22061913E+01</totfact>
</mgrwt>
</event>
<event>
 4    1  0.2965110E-008  0.9660955E+03  0.7818608E-02  0.9427325E-01
         -1   -1    0    0    0  501 -0.00000000000E+00  0.00000000000E+00  0.14763745997E+04  0.14763745997E+04  0.50400000000E-02 0.  1.
          1   -1    0    0  501    0  0.00000000000E+00 -0.00000000000E+00 -0.17719489982E+04  0.17719489982E+04  0.50400000000E-02 0. -1.
    8880023    1    1    2    0    0 -0.57789386663E+03  0.40690178725E+03  0.12276293210E+04  0.15621825571E+04  0.65864270000E+03 0.  0.
    8880022    1    1    2    0    0  0.57789386663E+03 -0.40690178725E+03 -0.15232037195E+04  0.16861410409E+04  0.15294330000E+03 0.  0.
<mgrwt>
<rscale>  0 0.89860675E+03</rscale>
<asrwt>0</asrwt>
<pdfrwt beam="1">  1        1 0.27260754E+00 0.96609554E+03</pdfrwt>
<pdfrwt beam="2">  1       -1 0.22713455E+00 0.96609554E+03</pdfrwt>
<totfact> 0.42734428E-01</totfact>
</mgrwt>
</event>
<event>
 4    1  0.2514307E-008  0.1081745E+04  0.7818608E-02  0.9281658E-01
         -1   -1    0    0    0  501 -0.00000000000E+00  0.00000000000E+00  0.86078014751E+03  0.86078014752E+03  0.50400000000E-02 0.  1.
          1   -1    0    0  501    0  0.00000000000E+00 -0.00000000000E+00 -0.22153047483E+04  0.22153047483E+04  0.50400000000E-02 0. -1.
    8880023    1    1    2    0    0 -0.82519584716E+03  0.23540354340E+03  0.37043009770E+03  0.11434122957E+04  0.65864270000E+03 0.  0.
    8880022    1    1    2    0    0  0.82519584716E+03 -0.23540354340E+03 -0.17249546985E+04  0.19326726001E+04  0.15294330000E+03 0.  0.
<mgrwt>
<rscale>  0 0.10248917E+04</rscale>
<asrwt>0</asrwt>
<pdfrwt beam="1">  1        1 0.34081611E+00 0.10817455E+04</pdfrwt>
<pdfrwt beam="2">  1       -1 0.13242772E+00 0.10817455E+04</pdfrwt>
<totfact> 0.10305450E+00</totfact>
</mgrwt>
</event>
<event>
 4    1  0.2514307E-008  0.1295531E+04  0.7818608E-02  0.9069429E-01
          1   -1    0    0  501    0  0.00000000000E+00  0.00000000000E+00  0.28557885703E+04  0.28557885703E+04  0.50400000000E-02 0. -1.
         -1   -1    0    0    0  501 -0.00000000000E+00 -0.00000000000E+00 -0.97609082992E+03  0.97609082993E+03  0.50400000000E-02 0.  1.
    8880023    1    1    2    0    0  0.93683451957E+03  0.60574905703E+03 -0.34304516456E+03  0.13401794762E+04  0.65864270000E+03 0.  0.
    8880022    1    1    2    0    0 -0.93683451957E+03 -0.60574905703E+03  0.22227429050E+04  0.24916999241E+04  0.15294330000E+03 0.  0.
<mgrwt>
<rscale>  0 0.12509071E+04</rscale>
<asrwt>0</asrwt>
<pdfrwt beam="1">  1        1 0.43935208E+00 0.12955312E+04</pdfrwt>
<pdfrwt beam="2">  1       -1 0.15016782E+00 0.12955312E+04</pdfrwt>
<totfact> 0.25833720E-01</totfact>
</mgrwt>
</event>
<event>
 4    1  0.2514307E-008  0.1031673E+04  0.7818608E-02  0.9341244E-01
         -1   -1    0    0    0  501 -0.00000000000E+00  0.00000000000E+00  0.10046032601E+04  0.10046032601E+04  0.50400000000E-02 0.  1.
          1   -1    0    0  501    0  0.00000000000E+00 -0.00000000000E+00 -0.17086621536E+04  0.17086621536E+04  0.50400000000E-02 0. -1.
    8880023    1    1    2    0    0 -0.78806107510E+03  0.97464445451E+02  0.58914541996E+03  0.11880412907E+04  0.65864270000E+03 0.  0.
    8880022    1    1    2    0    0  0.78806107510E+03 -0.97464445451E+02 -0.12932043135E+04  0.15252241231E+04  0.15294330000E+03 0.  0.
<mgrwt>
<rscale>  0 0.97072933E+03</rscale>
<asrwt>0</asrwt>
<pdfrwt beam="1">  1        1 0.26287110E+00 0.10316733E+04</pdfrwt>
<pdfrwt beam="2">  1       -1 0.15455435E+00 0.10316733E+04</pdfrwt>
<totfact> 0.15168311E+00</totfact>
</mgrwt>
</event>
<event>
 4    1  0.2514307E-008  0.1131476E+04  0.7818608E-02  0.9226795E-01
          1   -1    0    0  501    0  0.00000000000E+00  0.00000000000E+00  0.16932373473E+04  0.16932373473E+04  0.50400000000E-02 0. -1.
         -1   -1    0    0    0  501 -0.00000000000E+00 -0.00000000000E+00 -0.13905297034E+04  0.13905297034E+04  0.50400000000E-02 0.  1.
    8880023    1    1    2    0    0 -0.43923325823E+03  0.80839417192E+03 -0.98066025367E+03  0.14973081619E+04  0.65864270000E+03 0.  1.
    8880022    1    1    2    0    0  0.43923325823E+03 -0.80839417192E+03  0.12833678976E+04  0.15864588888E+04  0.15294330000E+03 0.  0.
<mgrwt>
<rscale>  0 0.10781086E+04</rscale>
<asrwt>0</asrwt>
<pdfrwt beam="1">  1        1 0.26049805E+00 0.11314757E+04</pdfrwt>
<pdfrwt beam="2">  1       -1 0.21392765E+00 0.11314757E+04</pdfrwt>
<totfact> 0.57649371E-01</totfact>
</mgrwt>
</event>
<event>
 4    1  0.2514307E-008  0.6611481E+03  0.7818608E-02  0.1023010E+00
          1   -1    0    0  501    0  0.00000000000E+00  0.00000000000E+00  0.75068831429E+03  0.75068831431E+03  0.50400000000E-02 0. -1.
         -1   -1    0    0    0  501 -0.00000000000E+00 -0.00000000000E+00 -0.10090166534E+04  0.10090166534E+04  0.50400000000E-02 0.  1.
    8880023    1    1    2    0    0  0.51878136153E+02  0.24804284867E+02 -0.88917657184E+03  0.11080396093E+04  0.65864270000E+03 0.  1.
    8880022    1    1    2    0    0 -0.51878136153E+02 -0.24804284867E+02  0.63084823277E+03  0.65166535841E+03  0.15294330000E+03 0.  0.
<mgrwt>
<rscale>  0 0.46615936E+03</rscale>
<asrwt>0</asrwt>
<pdfrwt beam="1">  1        1 0.11549051E+00 0.66114809E+03</pdfrwt>
<pdfrwt beam="2">  1       -1 0.15523333E+00 0.66114809E+03</pdfrwt>
<totfact> 0.81290978E+00</totfact>
</mgrwt>
</event>
<event>
 4    1  0.2514307E-008  0.7495041E+03  0.7818608E-02  0.9833080E-01
         -1   -1    0    0    0  501 -0.00000000000E+00  0.00000000000E+00  0.35486253068E+03  0.35486253072E+03  0.50400000000E-02 0.  1.
          1   -1    0    0  501    0  0.00000000000E+00 -0.00000000000E+00 -0.16027783929E+04  0.16027783930E+04  0.50400000000E-02 0. -1.
    8880023    1    1    2    0    0  0.25244095565E+03 -0.25341604598E+03 -0.11309009599E+03  0.75798793165E+03  0.65864270000E+03 0.  1.
    8880022    1    1    2    0    0 -0.25244095565E+03  0.25341604598E+03 -0.11348257663E+04  0.11996529920E+04  0.15294330000E+03 0.  0.
<mgrwt>
<rscale>  0 0.63617107E+03</rscale>
<asrwt>0</asrwt>
<pdfrwt beam="1">  1        1 0.24658129E+00 0.74950406E+03</pdfrwt>
<pdfrwt beam="2">  1       -1 0.54594236E-01 0.74950406E+03</pdfrwt>
<totfact> 0.19510002E+01</totfact>
</mgrwt>
</event>
<event>
 4    1  0.2514307E-008  0.7520583E+03  0.7818608E-02  0.9826119E-01
          1   -1    0    0  501    0  0.00000000000E+00  0.00000000000E+00  0.22189135270E+04  0.22189135270E+04  0.50400000000E-02 0. -1.
         -1   -1    0    0    0  501 -0.00000000000E+00 -0.00000000000E+00 -0.18761214719E+03  0.18761214726E+03  0.50400000000E-02 0.  1.
    8880023    1    1    2    0    0  0.35964649062E+03  0.49354740944E+02  0.73455329222E+03  0.10512660149E+04  0.65864270000E+03 0.  0.
    8880022    1    1    2    0    0 -0.35964649062E+03 -0.49354740944E+02  0.12967480876E+04  0.13552596594E+04  0.15294330000E+03 0.  0.
<mgrwt>
<rscale>  0 0.63979480E+03</rscale>
<asrwt>0</asrwt>
<pdfrwt beam="1">  1        1 0.34137131E+00 0.75205831E+03</pdfrwt>
<pdfrwt beam="2">  1       -1 0.28863407E-01 0.75205831E+03</pdfrwt>
<totfact> 0.24056245E+01</totfact>
</mgrwt>
</event>
<event>
 4    1  0.2514307E-008  0.1900248E+04  0.7818608E-02  0.8669020E-01
          1   -1    0    0  501    0  0.00000000000E+00  0.00000000000E+00  0.23092125596E+04  0.23092125596E+04  0.50400000000E-02 0. -1.
         -1   -1    0    0    0  501 -0.00000000000E+00 -0.00000000000E+00 -0.17565639978E+04  0.17565639978E+04  0.50400000000E-02 0.  1.
    8880023    1    1    2    0    0 -0.48922989453E+03 -0.17139972396E+04  0.10990568206E+04  0.21951921393E+04  0.65864270000E+03 0.  0.
    8880022    1    1    2    0    0  0.48922989453E+03  0.17139972396E+04 -0.54640825878E+03  0.18705844181E+04  0.15294330000E+03 0.  0.
<mgrwt>
<rscale>  0 0.18718039E+04</rscale>
<asrwt>0</asrwt>
<pdfrwt beam="1">  1        1 0.35526347E+00 0.19002480E+04</pdfrwt>
<pdfrwt beam="2">  1       -1 0.27024062E+00 0.19002480E+04</pdfrwt>
<totfact> 0.85011041E-02</totfact>
</mgrwt>
</event>
<event>
 4    1  0.2514307E-008  0.6677615E+03  0.7818608E-02  0.1017321E+00
          1   -1    0    0  501    0  0.00000000000E+00  0.00000000000E+00  0.16584024244E+04  0.16584024244E+04  0.50400000000E-02 0. -1.
         -1   -1    0    0    0  501 -0.00000000000E+00 -0.00000000000E+00 -0.10118327670E+04  0.10118327670E+04  0.50400000000E-02 0.  1.
    8880023    1    1    2    0    0 -0.90992902380E+02 -0.61769747796E+02 -0.89529976249E+03  0.11169006585E+04  0.65864270000E+03 0.  1.
    8880022    1    1    2    0    0  0.90992902380E+02  0.61769747796E+02  0.15418694199E+04  0.15533345329E+04  0.15294330000E+03 0.  0.
<mgrwt>
<rscale>  0 0.48665869E+03</rscale>
<asrwt>0</asrwt>
<pdfrwt beam="1">  1        1 0.25513883E+00 0.66776150E+03</pdfrwt>
<pdfrwt beam="2">  1       -1 0.15566658E+00 0.66776150E+03</pdfrwt>
<totfact> 0.17148994E+00</totfact>
</mgrwt>
</event>
<event>
 4    1  0.2514307E-008  0.7629799E+03  0.7818608E-02  0.9797453E-01
          1   -1    0    0  501    0  0.00000000000E+00  0.00000000000E+00  0.95408560418E+03  0.95408560419E+03  0.50400000000E-02 0. -1.
         -1   -1    0    0    0  501 -0.00000000000E+00 -0.00000000000E+00 -0.65663290268E+03  0.65663290270E+03  0.50400000000E-02 0.  1.
    8880023    1    1    2    0    0  0.38237024354E+03 -0.46056407768E+02 -0.35204760920E+03  0.84028323871E+03  0.65864270000E+03 0.  1.
    8880022    1    1    2    0    0 -0.38237024354E+03  0.46056407768E+02  0.64950031070E+03  0.77043526818E+03  0.15294330000E+03 0.  0.
<mgrwt>
<rscale>  0 0.65499413E+03</rscale>
<asrwt>0</asrwt>
<pdfrwt beam="1">  1        1 0.14678240E+00 0.76297995E+03</pdfrwt>
<pdfrwt beam="2">  1       -1 0.10102045E+00 0.76297995E+03</pdfrwt>
<totfact> 0.15750339E+01</totfact>
</mgrwt>
</event>
<event>
 4    1  0.2553150E-008  0.1092810E+04  0.7818608E-02  0.9269104E-01
         -1   -1    0    0    0  501 -0.00000000000E+00  0.00000000000E+00  0.17633178796E+04  0.17633178796E+04  0.50400000000E-02 0.  1.
          1   -1    0    0  501    0  0.00000000000E+00 -0.00000000000E+00 -0.17675270603E+04  0.17675270603E+04  0.50400000000E-02 0. -1.
    8880023    1    1    2    0    0 -0.73462367635E+02 -0.86892230246E+03  0.14576443691E+04  0.18218013064E+04  0.65864270000E+03 0.  1.
    8880022    1    1    2    0    0  0.73462367635E+02  0.86892230246E+03 -0.14618535497E+04  0.17090436335E+04  0.15294330000E+03 0.  0.
<mgrwt>
<rscale>  0 0.10367762E+04</rscale>
<asrwt>0</asrwt>
<pdfrwt beam="1">  1        1 0.27192724E+00 0.10928096E+04</pdfrwt>
<pdfrwt beam="2">  1       -1 0.27127967E+00 0.10928096E+04</pdfrwt>
<totfact> 0.21723983E-01</totfact>
</mgrwt>
</event>
<event>
 4    1  0.2514307E-008  0.9946605E+03  0.7818608E-02  0.9388577E-01
          1   -1    0    0  501    0  0.00000000000E+00  0.00000000000E+00  0.23932406658E+04  0.23932406658E+04  0.50400000000E-02 0. -1.
         -1   -1    0    0    0  501 -0.00000000000E+00 -0.00000000000E+00 -0.40536583667E+03  0.40536583670E+03  0.50400000000E-02 0.  1.
    8880023    1    1    2    0    0 -0.72660325645E+03  0.16609316011E+03  0.46873729256E+03  0.10995745022E+04  0.65864270000E+03 0.  0.
    8880022    1    1    2    0    0  0.72660325645E+03 -0.16609316011E+03  0.15191375365E+04  0.16990320003E+04  0.15294330000E+03 0.  0.
<mgrwt>
<rscale>  0 0.93021745E+03</rscale>
<asrwt>0</asrwt>
<pdfrwt beam="1">  1        1 0.36819088E+00 0.99466046E+03</pdfrwt>
<pdfrwt beam="2">  1       -1 0.62363974E-01 0.99466046E+03</pdfrwt>
<totfact> 0.42624842E+00</totfact>
</mgrwt>
</event>
<event>
 4    1  0.2514307E-008  0.1088019E+04  0.7818608E-02  0.9274514E-01
          1   -1    0    0  501    0  0.00000000000E+00  0.00000000000E+00  0.17698446673E+04  0.17698446673E+04  0.50400000000E-02 0. -1.
         -1   -1    0    0    0  501 -0.00000000000E+00 -0.00000000000E+00 -0.13564129908E+04  0.13564129908E+04  0.50400000000E-02 0.  1.
    8880023    1    1    2    0    0 -0.49276878216E+03 -0.71214738075E+03 -0.98937250487E+03  0.14705927799E+04  0.65864270000E+03 0.  0.
    8880022    1    1    2    0    0  0.49276878216E+03  0.71214738075E+03  0.14028041814E+04  0.16556648782E+04  0.15294330000E+03 0.  0.
<mgrwt>
<rscale>  0 0.10316337E+04</rscale>
<asrwt>0</asrwt>
<pdfrwt beam="1">  1        1 0.27228379E+00 0.10880189E+04</pdfrwt>
<pdfrwt beam="2">  1       -1 0.20867892E+00 0.10880189E+04</pdfrwt>
<totfact> 0.55857659E-01</totfact>
</mgrwt>
</event>
<event>
 4    1  0.2514307E-008  0.1067262E+04  0.7818608E-02  0.9298412E-01
          1   -1    0    0  501    0  0.00000000000E+00  0.00000000000E+00  0.21359553987E+04  0.21359553987E+04  0.50400000000E-02 0. -1.
         -1   -1    0    0    0  501 -0.00000000000E+00 -0.00000000000E+00 -0.98773524485E+03  0.98773524486E+03  0.50400000000E-02 0.  1.
    8880023    1    1    2    0    0  0.60881221726E+03  0.57843468210E+03 -0.56647188772E+03  0.12082796047E+04  0.65864270000E+03 0.  1.
    8880022    1    1    2    0    0 -0.60881221726E+03 -0.57843468210E+03  0.17146920416E+04  0.19154110389E+04  0.15294330000E+03 0.  0.
<mgrwt>
<rscale>  0 0.10092921E+04</rscale>
<asrwt>0</asrwt>
<pdfrwt beam="1">  1        1 0.32860852E+00 0.10672625E+04</pdfrwt>
<pdfrwt beam="2">  1       -1 0.15195927E+00 0.10672625E+04</pdfrwt>
<totfact> 0.81329818E-01</totfact>
</mgrwt>
</event>
<event>
 4    1  0.2514307E-008  0.6853187E+03  0.7818608E-02  0.1006462E+00
         -1   -1    0    0    0  501 -0.00000000000E+00  0.00000000000E+00  0.15708537496E+04  0.15708537496E+04  0.50400000000E-02 0.  1.
          1   -1    0    0  501    0  0.00000000000E+00 -0.00000000000E+00 -0.31303922216E+03  0.31303922220E+03  0.50400000000E-02 0. -1.
    8880023    1    1    2    0    0  0.17282558693E+03 -0.77349036438E+02  0.14300067448E+04  0.15857430603E+04  0.65864270000E+03 0.  0.
    8880022    1    1    2    0    0 -0.17282558693E+03  0.77349036438E+02 -0.17219221741E+03  0.29814991143E+03  0.15294330000E+03 0.  0.
<mgrwt>
<rscale>  0 0.52905311E+03</rscale>
<asrwt>0</asrwt>
<pdfrwt beam="1">  1        1 0.48159881E-01 0.68531873E+03</pdfrwt>
<pdfrwt beam="2">  1       -1 0.24166981E+00 0.68531873E+03</pdfrwt>
<totfact> 0.68567380E+00</totfact>
</mgrwt>
</event>
<event>
 4    1  0.2514307E-008  0.7942948E+03  0.7818608E-02  0.9723270E-01
         -1   -1    0    0    0  501 -0.00000000000E+00  0.00000000000E+00  0.24114699627E+03  0.24114699633E+03  0.50400000000E-02 0.  1.
          1   -1    0    0  501    0  0.00000000000E+00 -0.00000000000E+00 -0.30747579683E+04  0.30747579683E+04  0.50400000000E-02 0. -1.
    8880023    1    1    2    0    0 -0.43750460508E+03 -0.75390915475E+02 -0.50684006729E+03  0.94222668699E+03  0.65864270000E+03 0.  1.
    8880022    1    1    2    0    0  0.43750460508E+03  0.75390915475E+02 -0.23267709048E+04  0.23736782777E+04  0.15294330000E+03 0.  0.
<mgrwt>
<rscale>  0 0.69648034E+03</rscale>
<asrwt>0</asrwt>
<pdfrwt beam="1">  1        1 0.47303966E+00 0.79429483E+03</pdfrwt>
<pdfrwt beam="2">  1       -1 0.37099540E-01 0.79429483E+03</pdfrwt>
<totfact> 0.39099938E+00</totfact>
</mgrwt>
</event>
<event>
 4    1  0.2514307E-008  0.7301856E+03  0.7818608E-02  0.9889517E-01
         -1   -1    0    0    0  501 -0.00000000000E+00  0.00000000000E+00  0.23802393975E+03  0.23802393981E+03  0.50400000000E-02 0.  1.
          1   -1    0    0  501    0  0.00000000000E+00 -0.00000000000E+00 -0.22731541472E+04  0.22731541472E+04  0.50400000000E-02 0. -1.
    8880023    1    1    2    0    0 -0.26684073483E+03 -0.16780016913E+03 -0.38735800883E+03  0.82656960251E+03  0.65864270000E+03 0.  1.
    8880022    1    1    2    0    0  0.26684073483E+03  0.16780016913E+03 -0.16477721987E+04  0.16846084845E+04  0.15294330000E+03 0.  0.
<mgrwt>
<rscale>  0 0.60772034E+03</rscale>
<asrwt>0</asrwt>
<pdfrwt beam="1">  1        1 0.34971601E+00 0.73018565E+03</pdfrwt>
<pdfrwt beam="2">  1       -1 0.36619069E-01 0.73018565E+03</pdfrwt>
<totfact> 0.14586127E+01</totfact>
</mgrwt>
</event>
<event>
 4    1  0.2514307E-008  0.6674838E+03  0.7818608E-02  0.1017535E+00
          1   -1    0    0  501    0  0.00000000000E+00  0.00000000000E+00  0.25112247530E+04  0.25112247530E+04  0.50400000000E-02 0. -1.
         -1   -1    0    0    0  501 -0.00000000000E+00 -0.00000000000E+00 -0.23683284077E+03  0.23683284082E+03  0.50400000000E-02 0.  1.
    8880023    1    1    2    0    0  0.29007642911E+02 -0.10432129303E+03  0.24653011744E+03  0.71155581692E+03  0.65864270000E+03 0.  1.
    8880022    1    1    2    0    0 -0.29007642911E+02  0.10432129303E+03  0.20278617948E+04  0.20365017769E+04  0.15294330000E+03 0.  0.
<mgrwt>
<rscale>  0 0.48586846E+03</rscale>
<asrwt>0</asrwt>
<pdfrwt beam="1">  1        1 0.38634230E+00 0.66748377E+03</pdfrwt>
<pdfrwt beam="2">  1       -1 0.36435819E-01 0.66748377E+03</pdfrwt>
<totfact> 0.10265055E+01</totfact>
</mgrwt>
</event>
<event>
 4    1  0.2514307E-008  0.1165437E+04  0.7818608E-02  0.9191474E-01
         -1   -1    0    0    0  501 -0.00000000000E+00  0.00000000000E+00  0.14970419664E+04  0.14970419664E+04  0.50400000000E-02 0.  1.
          1   -1    0    0  501    0  0.00000000000E+00 -0.00000000000E+00 -0.11708577603E+04  0.11708577603E+04  0.50400000000E-02 0. -1.
    8880023    1    1    2    0    0 -0.78984443218E+03 -0.54825138467E+03  0.95685039427E+03  0.15079146830E+04  0.65864270000E+03 0.  0.
    8880022    1    1    2    0    0  0.78984443218E+03  0.54825138467E+03 -0.63066618819E+03  0.11599850438E+04  0.15294330000E+03 0.  0.
<mgrwt>
<rscale>  0 0.11141861E+04</rscale>
<asrwt>0</asrwt>
<pdfrwt beam="1">  1        1 0.18013196E+00 0.11654373E+04</pdfrwt>
<pdfrwt beam="2">  1       -1 0.23031415E+00 0.11654373E+04</pdfrwt>
<totfact> 0.10386213E+00</totfact>
</mgrwt>
</event>
<event>
 4    1  0.2514307E-008  0.8122091E+03  0.7818608E-02  0.9684994E-01
         -1   -1    0    0    0  501 -0.00000000000E+00  0.00000000000E+00  0.70115427580E+03  0.70115427582E+03  0.50400000000E-02 0.  1.
          1   -1    0    0  501    0  0.00000000000E+00 -0.00000000000E+00 -0.98134157872E+03  0.98134157873E+03  0.50400000000E-02 0. -1.
    8880023    1    1    2    0    0  0.38034857692E+03 -0.28497085915E+03  0.34497740475E+03  0.88243585976E+03  0.65864270000E+03 0.  1.
    8880022    1    1    2    0    0 -0.38034857692E+03  0.28497085915E+03 -0.62516470767E+03  0.80005999479E+03  0.15294330000E+03 0.  0.
<mgrwt>
<rscale>  0 0.71917333E+03</rscale>
<asrwt>0</asrwt>
<pdfrwt beam="1">  1        1 0.15097563E+00 0.81220911E+03</pdfrwt>
<pdfrwt beam="2">  1       -1 0.10786989E+00 0.81220911E+03</pdfrwt>
<totfact> 0.12797917E+01</totfact>
</mgrwt>
</event>
<event>
 4    1  0.2514307E-008  0.6833312E+03  0.7818608E-02  0.1007499E+00
          1   -1    0    0  501    0  0.00000000000E+00  0.00000000000E+00  0.22108257514E+04  0.22108257514E+04  0.50400000000E-02 0. -1.
         -1   -1    0    0    0  501 -0.00000000000E+00 -0.00000000000E+00 -0.10723006497E+04  0.10723006497E+04  0.50400000000E-02 0.  1.
    8880023    1    1    2    0    0  0.13408074969E+03 -0.12310037623E+03 -0.95602433744E+03  0.11751272655E+04  0.65864270000E+03 0.  1.
    8880022    1    1    2    0    0 -0.13408074969E+03  0.12310037623E+03  0.20945494391E+04  0.21079991357E+04  0.15294330000E+03 0.  0.
<mgrwt>
<rscale>  0 0.52480939E+03</rscale>
<asrwt>0</asrwt>
<pdfrwt beam="1">  1        1 0.34012704E+00 0.68333122E+03</pdfrwt>
<pdfrwt beam="2">  1       -1 0.16496933E+00 0.68333122E+03</pdfrwt>
<totfact> 0.62177887E-01</totfact>
</mgrwt>
</event>
<event>
 4    1  0.2514307E-008  0.9116088E+03  0.7818608E-02  0.9507647E-01
         -1   -1    0    0    0  501 -0.00000000000E+00  0.00000000000E+00  0.13965113169E+04  0.13965113169E+04  0.50400000000E-02 0.  1.
          1   -1    0    0  501    0  0.00000000000E+00 -0.00000000000E+00 -0.48862662955E+03  0.48862662957E+03  0.50400000000E-02 0. -1.
    8880023    1    1    2    0    0 -0.40289419342E+03  0.48466145710E+03  0.82832941423E+03  0.12317306052E+04  0.65864270000E+03 0.  0.
    8880022    1    1    2    0    0  0.40289419342E+03 -0.48466145710E+03  0.79555273105E+02  0.65340734124E+03  0.15294330000E+03 0.  0.
<mgrwt>
<rscale>  0 0.83722390E+03</rscale>
<asrwt>0</asrwt>
<pdfrwt beam="1">  1        1 0.75173327E-01 0.91160883E+03</pdfrwt>
<pdfrwt beam="2">  1       -1 0.21484790E+00 0.91160883E+03</pdfrwt>
<totfact> 0.55364481E+00</totfact>
</mgrwt>
</event>
<event>
 4    1  0.2514307E-008  0.1313003E+04  0.7818608E-02  0.9054412E-01
          1   -1    0    0  501    0  0.00000000000E+00  0.00000000000E+00  0.30756711678E+04  0.30756711678E+04  0.50400000000E-02 0. -1.
         -1   -1    0    0    0  501 -0.00000000000E+00 -0.00000000000E+00 -0.79383173909E+03  0.79383173911E+03  0.50400000000E-02 0.  1.
    8880023    1    1    2    0    0  0.28350242686E+03 -0.10999056465E+04 -0.33549492680E+01  0.13130070522E+04  0.65864270000E+03 0.  1.
    8880022    1    1    2    0    0 -0.28350242686E+03  0.10999056465E+04  0.22851943780E+04  0.25564958548E+04  0.15294330000E+03 0.  0.
<mgrwt>
<rscale>  0 0.12691279E+04</rscale>
<asrwt>0</asrwt>
<pdfrwt beam="1">  1        1 0.47318017E+00 0.13130028E+04</pdfrwt>
<pdfrwt beam="2">  1       -1 0.12212796E+00 0.13130028E+04</pdfrwt>
<totfact> 0.30538747E-01</totfact>
</mgrwt>
</event>
<event>
 4    1  0.2514307E-008  0.1240765E+04  0.7818608E-02  0.9118479E-01
         -1   -1    0    0    0  501 -0.00000000000E+00  0.00000000000E+00  0.19410136621E+04  0.19410136621E+04  0.50400000000E-02 0.  1.
          1   -1    0    0  501    0  0.00000000000E+00 -0.00000000000E+00 -0.16164068263E+04  0.16164068263E+04  0.50400000000E-02 0. -1.
    8880023    1    1    2    0    0  0.37228682747E+03 -0.98340781807E+03  0.15173155110E+04  0.19600369855E+04  0.65864270000E+03 0.  0.
    8880022    1    1    2    0    0 -0.37228682747E+03  0.98340781807E+03 -0.11927086752E+04  0.15973835029E+04  0.15294330000E+03 0.  0.
<mgrwt>
<rscale>  0 0.11935973E+04</rscale>
<asrwt>0</asrwt>
<pdfrwt beam="1">  1        1 0.24867797E+00 0.12407653E+04</pdfrwt>
<pdfrwt beam="2">  1       -1 0.29861749E+00 0.12407653E+04</pdfrwt>
<totfact> 0.17929207E-01</totfact>
</mgrwt>
</event>
<event>
 4    1  0.2514307E-008  0.7714679E+03  0.7818608E-02  0.9776275E-01
          1   -1    0    0  501    0  0.00000000000E+00  0.00000000000E+00  0.68158225638E+03  0.68158225640E+03  0.50400000000E-02 0. -1.
         -1   -1    0    0    0  501 -0.00000000000E+00 -0.00000000000E+00 -0.10828233055E+04  0.10828233055E+04  0.50400000000E-02 0.  1.
    8880023    1    1    2    0    0 -0.61416676041E+02 -0.39696419683E+03 -0.84665778705E+03  0.11454222786E+04  0.65864270000E+03 0.  1.
    8880022    1    1    2    0    0  0.61416676041E+02  0.39696419683E+03  0.44541673789E+03  0.61898328335E+03  0.15294330000E+03 0.  0.
<mgrwt>
<rscale>  0 0.66651477E+03</rscale>
<asrwt>0</asrwt>
<pdfrwt beam="1">  1        1 0.10485881E+00 0.77146794E+03</pdfrwt>
<pdfrwt beam="2">  1       -1 0.16658820E+00 0.77146794E+03</pdfrwt>
<totfact> 0.76167565E+00</totfact>
</mgrwt>
</event>
<event>
 4    1  0.2514307E-008  0.7025532E+03  0.7818608E-02  0.9986770E-01
          1   -1    0    0  501    0  0.00000000000E+00  0.00000000000E+00  0.16827092411E+04  0.16827092411E+04  0.50400000000E-02 0. -1.
         -1   -1    0    0    0  501 -0.00000000000E+00 -0.00000000000E+00 -0.51191836050E+03  0.51191836052E+03  0.50400000000E-02 0.  1.
    8880023    1    1    2    0    0 -0.23046314646E+03 -0.81594088190E+02 -0.24935916876E+03  0.74549383526E+03  0.65864270000E+03 0.  1.
    8880022    1    1    2    0    0  0.23046314646E+03  0.81594088190E+02  0.14201500493E+04  0.14491337663E+04  0.15294330000E+03 0.  0.
<mgrwt>
<rscale>  0 0.56234182E+03</rscale>
<asrwt>0</asrwt>
<pdfrwt beam="1">  1        1 0.25887834E+00 0.70255325E+03</pdfrwt>
<pdfrwt beam="2">  1       -1 0.78756671E-01 0.70255325E+03</pdfrwt>
<totfact> 0.82947585E+00</totfact>
</mgrwt>
</event>
<event>
 4    1  0.2514307E-008  0.1218874E+04  0.7818608E-02  0.9138991E-01
         -1   -1    0    0    0  501 -0.00000000000E+00  0.00000000000E+00  0.99239876352E+03  0.99239876353E+03  0.50400000000E-02 0.  1.
          1   -1    0    0  501    0  0.00000000000E+00 -0.00000000000E+00 -0.15448502970E+04  0.15448502970E+04  0.50400000000E-02 0. -1.
    8880023    1    1    2    0    0 -0.63451572808E+03 -0.80574993626E+03 -0.81667680562E+03  0.14671790552E+04  0.65864270000E+03 0. -1.
    8880022    1    1    2    0    0  0.63451572808E+03  0.80574993626E+03  0.26422527210E+03  0.10700700054E+04  0.15294330000E+03 0.  0.
<mgrwt>
<rscale>  0 0.11705958E+04</rscale>
<asrwt>0</asrwt>
<pdfrwt beam="1">  1        1 0.23766928E+00 0.12188738E+04</pdfrwt>
<pdfrwt beam="2">  1       -1 0.15267673E+00 0.12188738E+04</pdfrwt>
<totfact> 0.19826312E+00</totfact>
</mgrwt>
</event>
<event>
 4    1  0.2514307E-008  0.1158245E+04  0.7818608E-02  0.9198820E-01
          1   -1    0    0  501    0  0.00000000000E+00  0.00000000000E+00  0.32332998772E+04  0.32332998772E+04  0.50400000000E-02 0. -1.
         -1   -1    0    0    0  501 -0.00000000000E+00 -0.00000000000E+00 -0.39497172550E+03  0.39497172553E+03  0.50400000000E-02 0.  1.
    8880023    1    1    2    0    0 -0.78933756244E+03 -0.53354201921E+03  0.91355427981E+03  0.14751652457E+04  0.65864270000E+03 0.  1.
    8880022    1    1    2    0    0  0.78933756244E+03  0.53354201921E+03  0.19247738719E+04  0.21531063571E+04  0.15294330000E+03 0.  0.
<mgrwt>
<rscale>  0 0.11065615E+04</rscale>
<asrwt>0</asrwt>
<pdfrwt beam="1">  1        1 0.49743077E+00 0.11582448E+04</pdfrwt>
<pdfrwt beam="2">  1       -1 0.60764879E-01 0.11582448E+04</pdfrwt>
<totfact> 0.11119703E+00</totfact>
</mgrwt>
</event>
<event>
 4    1  0.2514307E-008  0.7941134E+03  0.7818608E-02  0.9723672E-01
         -1   -1    0    0    0  501 -0.00000000000E+00  0.00000000000E+00  0.94244175807E+03  0.94244175808E+03  0.50400000000E-02 0.  1.
          1   -1    0    0  501    0  0.00000000000E+00 -0.00000000000E+00 -0.13071881020E+04  0.13071881020E+04  0.50400000000E-02 0. -1.
    8880023    1    1    2    0    0 -0.43372708601E+03  0.93202271697E+02  0.71736551491E+03  0.10701538847E+04  0.65864270000E+03 0.  1.
    8880022    1    1    2    0    0  0.43372708601E+03 -0.93202271697E+02 -0.10821118588E+04  0.11794759755E+04  0.15294330000E+03 0.  0.
<mgrwt>
<rscale>  0 0.69624715E+03</rscale>
<asrwt>0</asrwt>
<pdfrwt beam="1">  1        1 0.20110586E+00 0.79411338E+03</pdfrwt>
<pdfrwt beam="2">  1       -1 0.14499104E+00 0.79411338E+03</pdfrwt>
<totfact> 0.35316318E+00</totfact>
</mgrwt>
</event>
<event>
 4    1  0.2514307E-008  0.1676599E+04  0.7818608E-02  0.8794056E-01
          1   -1    0    0  501    0  0.00000000000E+00  0.00000000000E+00  0.88706384489E+03  0.88706384491E+03  0.50400000000E-02 0. -1.
         -1   -1    0    0    0  501 -0.00000000000E+00 -0.00000000000E+00 -0.32002232752E+04  0.32002232752E+04  0.50400000000E-02 0.  1.
    8880023    1    1    2    0    0 -0.60742588976E+03 -0.14171121099E+04 -0.17885438884E+04  0.24515041078E+04  0.65864270000E+03 0.  0.
    8880022    1    1    2    0    0  0.60742588976E+03  0.14171121099E+04 -0.52461554189E+03  0.16357830123E+04  0.15294330000E+03 0.  0.
<mgrwt>
<rscale>  0 0.16438456E+04</rscale>
<asrwt>0</asrwt>
<pdfrwt beam="1">  1        1 0.13647136E+00 0.16765987E+04</pdfrwt>
<pdfrwt beam="2">  1       -1 0.49234204E+00 0.16765987E+04</pdfrwt>
<totfact> 0.28966228E-02</totfact>
</mgrwt>
</event>
<event>
 4    1  0.2514307E-008  0.1087315E+04  0.7818608E-02  0.9275313E-01
         -1   -1    0    0    0  501 -0.00000000000E+00  0.00000000000E+00  0.89171698715E+03  0.89171698717E+03  0.50400000000E-02 0.  1.
          1   -1    0    0  501    0  0.00000000000E+00 -0.00000000000E+00 -0.17342548819E+04  0.17342548819E+04  0.50400000000E-02 0. -1.
    8880023    1    1    2    0    0  0.71515338189E+03 -0.48682531054E+03  0.35225072666E+03  0.11429497029E+04  0.65864270000E+03 0.  1.
    8880022    1    1    2    0    0 -0.71515338189E+03  0.48682531054E+03 -0.11947886214E+04  0.14830221662E+04  0.15294330000E+03 0.  0.
<mgrwt>
<rscale>  0 0.10308774E+04</rscale>
<asrwt>0</asrwt>
<pdfrwt beam="1">  1        1 0.26680844E+00 0.10873148E+04</pdfrwt>
<pdfrwt beam="2">  1       -1 0.13718723E+00 0.10873148E+04</pdfrwt>
<totfact> 0.19877580E+00</totfact>
</mgrwt>
</event>
<event>
 4    1  0.2514307E-008  0.1047195E+04  0.7818608E-02  0.9322261E-01
          1   -1    0    0  501    0  0.00000000000E+00  0.00000000000E+00  0.23232548414E+04  0.23232548414E+04  0.50400000000E-02 0. -1.
         -1   -1    0    0    0  501 -0.00000000000E+00 -0.00000000000E+00 -0.71083222158E+03  0.71083222160E+03  0.50400000000E-02 0.  1.
    8880023    1    1    2    0    0 -0.71023669479E+03 -0.39795878836E+03 -0.17716631281E+03  0.10620760182E+04  0.65864270000E+03 0.  1.
    8880022    1    1    2    0    0  0.71023669479E+03  0.39795878836E+03  0.17895889327E+04  0.19720110448E+04  0.15294330000E+03 0.  0.
<mgrwt>
<rscale>  0 0.98759063E+03</rscale>
<asrwt>0</asrwt>
<pdfrwt beam="1">  1        1 0.35742383E+00 0.10471951E+04</pdfrwt>
<pdfrwt beam="2">  1       -1 0.10935880E+00 0.10471951E+04</pdfrwt>
<totfact> 0.13999671E+00</totfact>
</mgrwt>
</event>
<event>
 4    1  0.2514307E-008  0.6961131E+03  0.7818608E-02  0.1001372E+00
          1   -1    0    0  501    0  0.00000000000E+00  0.00000000000E+00  0.43818756290E+03  0.43818756293E+03  0.50400000000E-02 0. -1.
         -1   -1    0    0    0  501 -0.00000000000E+00 -0.00000000000E+00 -0.64239278927E+03  0.64239278929E+03  0.50400000000E-02 0.  1.
    8880023    1    1    2    0    0  0.22356807545E+03 -0.27939051331E+02 -0.34177534637E+03  0.77548943810E+03  0.65864270000E+03 0.  1.
    8880022    1    1    2    0    0 -0.22356807545E+03  0.27939051331E+02  0.13757012000E+03  0.30509091413E+03  0.15294330000E+03 0.  0.
<mgrwt>
<rscale>  0 0.55052541E+03</rscale>
<asrwt>0</asrwt>
<pdfrwt beam="1">  1        1 0.67413471E-01 0.69611312E+03</pdfrwt>
<pdfrwt beam="2">  1       -1 0.98829660E-01 0.69611312E+03</pdfrwt>
<totfact> 0.53289841E+01</totfact>
</mgrwt>
</event>
<event>
 4    1  0.2514307E-008  0.1228414E+04  0.7818608E-02  0.9129985E-01
          1   -1    0    0  501    0  0.00000000000E+00  0.00000000000E+00  0.10265070461E+04  0.10265070461E+04  0.50400000000E-02 0. -1.
         -1   -1    0    0    0  501 -0.00000000000E+00 -0.00000000000E+00 -0.16773127712E+04  0.16773127713E+04  0.50400000000E-02 0.  1.
    8880023    1    1    2    0    0 -0.46815359034E+03  0.92521501514E+03 -0.10157472497E+04  0.15939709188E+04  0.65864270000E+03 0.  1.
    8880022    1    1    2    0    0  0.46815359034E+03 -0.92521501514E+03  0.36494152452E+03  0.11098488986E+04  0.15294330000E+03 0.  0.
<mgrwt>
<rscale>  0 0.11806268E+04</rscale>
<asrwt>0</asrwt>
<pdfrwt beam="1">  1        1 0.15792416E+00 0.12284139E+04</pdfrwt>
<pdfrwt beam="2">  1       -1 0.25804812E+00 0.12284139E+04</pdfrwt>
<totfact> 0.87279040E-01</totfact>
</mgrwt>
</event>
<event>
 4    1  0.2514307E-008  0.8687698E+03  0.7818608E-02  0.9578150E-01
         -1   -1    0    0    0  501 -0.00000000000E+00  0.00000000000E+00  0.19953980733E+04  0.19953980733E+04  0.50400000000E-02 0.  1.
          1   -1    0    0  501    0  0.00000000000E+00 -0.00000000000E+00 -0.67660652514E+03  0.67660652516E+03  0.50400000000E-02 0. -1.
    8880023    1    1    2    0    0  0.11401872661E+03 -0.55493281094E+03  0.17432758554E+04  0.19477606652E+04  0.65864270000E+03 0.  1.
    8880022    1    1    2    0    0 -0.11401872661E+03  0.55493281094E+03 -0.42448430727E+03  0.72424393322E+03  0.15294330000E+03 0.  0.
<mgrwt>
<rscale>  0 0.78759387E+03</rscale>
<asrwt>0</asrwt>
<pdfrwt beam="1">  1        1 0.10409331E+00 0.86876976E+03</pdfrwt>
<pdfrwt beam="2">  1       -1 0.30698431E+00 0.86876976E+03</pdfrwt>
<totfact> 0.88368421E-01</totfact>
</mgrwt>
</event>
<event>
 4    1  0.2514307E-008  0.6775359E+03  0.7818608E-02  0.1010753E+00
         -1   -1    0    0    0  501 -0.00000000000E+00  0.00000000000E+00  0.62600789756E+03  0.62600789758E+03  0.50400000000E-02 0.  1.
          1   -1    0    0  501    0  0.00000000000E+00 -0.00000000000E+00 -0.20825833258E+04  0.20825833258E+04  0.50400000000E-02 0. -1.
    8880023    1    1    2    0    0  0.10815060645E+03  0.11639653978E+03  0.43437703175E+03  0.80482191827E+03  0.65864270000E+03 0.  1.
    8880022    1    1    2    0    0 -0.10815060645E+03 -0.11639653978E+03 -0.18909524600E+04  0.19037693051E+04  0.15294330000E+03 0.  0.
<mgrwt>
<rscale>  0 0.51176358E+03</rscale>
<asrwt>0</asrwt>
<pdfrwt beam="1">  1        1 0.32039743E+00 0.67753591E+03</pdfrwt>
<pdfrwt beam="2">  1       -1 0.96308908E-01 0.67753591E+03</pdfrwt>
<totfact> 0.29083143E+00</totfact>
</mgrwt>
</event>
<event>
 4    1  0.2514307E-008  0.6785891E+03  0.7818608E-02  0.1010133E+00
         -1   -1    0    0    0  501 -0.00000000000E+00  0.00000000000E+00  0.10130492360E+04  0.10130492360E+04  0.50400000000E-02 0.  1.
          1   -1    0    0  501    0  0.00000000000E+00 -0.00000000000E+00 -0.33344785192E+03  0.33344785196E+03  0.50400000000E-02 0. -1.
    8880023    1    1    2    0    0 -0.74137835490E+02 -0.14552179010E+03  0.83359218587E+03  0.10748763411E+04  0.65864270000E+03 0.  1.
    8880022    1    1    2    0    0  0.74137835490E+02  0.14552179010E+03 -0.15399080184E+03  0.27162074683E+03  0.15294330000E+03 0.  0.
<mgrwt>
<rscale>  0 0.51421719E+03</rscale>
<asrwt>0</asrwt>
<pdfrwt beam="1">  1        1 0.51299670E-01 0.67858914E+03</pdfrwt>
<pdfrwt beam="2">  1       -1 0.15585373E+00 0.67858914E+03</pdfrwt>
<totfact> 0.24759352E+01</totfact>
</mgrwt>
</event>
<event>
 4    1  0.2514307E-008  0.7842245E+03  0.7818608E-02  0.9746006E-01
          1   -1    0    0  501    0  0.00000000000E+00  0.00000000000E+00  0.88832773536E+03  0.88832773537E+03  0.50400000000E-02 0. -1.
         -1   -1    0    0    0  501 -0.00000000000E+00 -0.00000000000E+00 -0.19079937120E+04  0.19079937120E+04  0.50400000000E-02 0.  1.
    8880023    1    1    2    0    0  0.30772974498E+03  0.29410923226E+03 -0.17610950428E+04  0.19278132151E+04  0.65864270000E+03 0.  1.
    8880022    1    1    2    0    0 -0.30772974498E+03 -0.29410923226E+03  0.74142906611E+03  0.86850823228E+03  0.15294330000E+03 0.  0.
<mgrwt>
<rscale>  0 0.68342477E+03</rscale>
<asrwt>0</asrwt>
<pdfrwt beam="1">  1        1 0.13666581E+00 0.78422448E+03</pdfrwt>
<pdfrwt beam="2">  1       -1 0.29353749E+00 0.78422448E+03</pdfrwt>
<totfact> 0.71140408E-01</totfact>
</mgrwt>
</event>
<event>
 4    1  0.2514307E-008  0.7631159E+03  0.7818608E-02  0.9797107E-01
          1   -1    0    0  501    0  0.00000000000E+00  0.00000000000E+00  0.50698945209E+03  0.50698945212E+03  0.50400000000E-02 0. -1.
         -1   -1    0    0    0  501 -0.00000000000E+00 -0.00000000000E+00 -0.13831927448E+04  0.13831927448E+04  0.50400000000E-02 0.  1.
    8880023    1    1    2    0    0 -0.32716944987E+03  0.20370509257E+03 -0.11594395874E+04  0.13880367346E+04  0.65864270000E+03 0.  1.
    8880022    1    1    2    0    0  0.32716944987E+03 -0.20370509257E+03  0.28323629466E+03  0.50214546229E+03  0.15294330000E+03 0.  0.
<mgrwt>
<rscale>  0 0.65518049E+03</rscale>
<asrwt>0</asrwt>
<pdfrwt beam="1">  1        1 0.77998378E-01 0.76311586E+03</pdfrwt>
<pdfrwt beam="2">  1       -1 0.21279888E+00 0.76311586E+03</pdfrwt>
<totfact> 0.55333299E+00</totfact>
</mgrwt>
</event>
<event>
 4    1  0.2514307E-008  0.9993151E+03  0.7818608E-02  0.9382454E-01
          1   -1    0    0  501    0  0.00000000000E+00  0.00000000000E+00  0.18098438648E+04  0.18098438648E+04  0.50400000000E-02 0. -1.
         -1   -1    0    0    0  501 -0.00000000000E+00 -0.00000000000E+00 -0.11606322175E+04  0.11606322175E+04  0.50400000000E-02 0.  1.
    8880023    1    1    2    0    0  0.73629728920E+03 -0.15062120972E+03 -0.83340982627E+03  0.13012311830E+04  0.65864270000E+03 0.  0.
    8880022    1    1    2    0    0 -0.73629728920E+03  0.15062120972E+03  0.14826214736E+04  0.16692448993E+04  0.15294330000E+03 0.  0.
<mgrwt>
<rscale>  0 0.93533800E+03</rscale>
<asrwt>0</asrwt>
<pdfrwt beam="1">  1        1 0.27843752E+00 0.99931509E+03</pdfrwt>
<pdfrwt beam="2">  1       -1 0.17855880E+00 0.99931509E+03</pdfrwt>
<totfact> 0.86321737E-01</totfact>
</mgrwt>
</event>
<event>
 4    1  0.2514307E-008  0.7311632E+03  0.7818608E-02  0.9886479E-01
         -1   -1    0    0    0  501 -0.00000000000E+00  0.00000000000E+00  0.81989965077E+03  0.81989965078E+03  0.50400000000E-02 0.  1.
          1   -1    0    0  501    0  0.00000000000E+00 -0.00000000000E+00 -0.60307010387E+03  0.60307010389E+03  0.50400000000E-02 0. -1.
    8880023    1    1    2    0    0  0.28268772247E+03 -0.14448881939E+03  0.56770482315E+03  0.92568263452E+03  0.65864270000E+03 0.  0.
    8880022    1    1    2    0    0 -0.28268772247E+03  0.14448881939E+03 -0.35087527625E+03  0.49728712015E+03  0.15294330000E+03 0.  0.
<mgrwt>
<rscale>  0 0.60921085E+03</rscale>
<asrwt>0</asrwt>
<pdfrwt beam="1">  1        1 0.92780016E-01 0.73116316E+03</pdfrwt>
<pdfrwt beam="2">  1       -1 0.12613841E+00 0.73116316E+03</pdfrwt>
<totfact> 0.19135623E+01</totfact>
</mgrwt>
</event>
<event>
 4    1  0.2514307E-008  0.6613486E+03  0.7818608E-02  0.1022815E+00
          1   -1    0    0  501    0  0.00000000000E+00  0.00000000000E+00  0.11879892261E+04  0.11879892261E+04  0.50400000000E-02 0. -1.
         -1   -1    0    0    0  501 -0.00000000000E+00 -0.00000000000E+00 -0.46681846673E+03  0.46681846675E+03  0.50400000000E-02 0.  1.
    8880023    1    1    2    0    0 -0.58006072414E+02 -0.14388682094E+02 -0.22187352061E+03  0.69757422832E+03  0.65864270000E+03 0.  1.
    8880022    1    1    2    0    0  0.58006072414E+02  0.14388682094E+02  0.94304427998E+03  0.95723346453E+03  0.15294330000E+03 0.  0.
<mgrwt>
<rscale>  0 0.46684169E+03</rscale>
<asrwt>0</asrwt>
<pdfrwt beam="1">  1        1 0.18276757E+00 0.66134858E+03</pdfrwt>
<pdfrwt beam="2">  1       -1 0.71818227E-01 0.66134858E+03</pdfrwt>
<totfact> 0.22247061E+01</totfact>
</mgrwt>
</event>
<event>
 4    1  0.2514307E-008  0.7047680E+03  0.7818608E-02  0.9977968E-01
         -1   -1    0    0    0  501 -0.00000000000E+00  0.00000000000E+00  0.21472200379E+04  0.21472200380E+04  0.50400000000E-02 0.  1.
          1   -1    0    0  501    0  0.00000000000E+00 -0.00000000000E+00 -0.58598237056E+03  0.58598237058E+03  0.50400000000E-02 0. -1.
    8880023    1    1    2    0    0  0.23408622119E+03 -0.89952014750E+02  0.20473386943E+04  0.21652467894E+04  0.65864270000E+03 0.  1.
    8880022    1    1    2    0    0 -0.23408622119E+03  0.89952014750E+02 -0.48610102688E+03  0.56795561909E+03  0.15294330000E+03 0.  0.
<mgrwt>
<rscale>  0 0.56626929E+03</rscale>
<asrwt>0</asrwt>
<pdfrwt beam="1">  1        1 0.90151135E-01 0.70476800E+03</pdfrwt>
<pdfrwt beam="2">  1       -1 0.33034154E+00 0.70476800E+03</pdfrwt>
<totfact> 0.79521866E-01</totfact>
</mgrwt>
</event>
<event>
 4    1  0.2514307E-008  0.1179040E+04  0.7818608E-02  0.9177771E-01
          1   -1    0    0  501    0  0.00000000000E+00  0.00000000000E+00  0.24724244498E+04  0.24724244498E+04  0.50400000000E-02 0. -1.
         -1   -1    0    0    0  501 -0.00000000000E+00 -0.00000000000E+00 -0.11870442015E+04  0.11870442015E+04  0.50400000000E-02 0.  1.
    8880023    1    1    2    0    0 -0.76965956057E+03 -0.60328273408E+03 -0.74917060417E+03  0.13969225808E+04  0.65864270000E+03 0.  0.
    8880022    1    1    2    0    0  0.76965956057E+03  0.60328273408E+03  0.20345508525E+04  0.22625460704E+04  0.15294330000E+03 0.  0.
<mgrwt>
<rscale>  0 0.11285846E+04</rscale>
<asrwt>0</asrwt>
<pdfrwt beam="1">  1        1 0.38037299E+00 0.11790403E+04</pdfrwt>
<pdfrwt beam="2">  1       -1 0.18262219E+00 0.11790403E+04</pdfrwt>
<totfact> 0.27897294E-01</totfact>
</mgrwt>
</event>
<event>
 4    1  0.2553490E-008  0.1423460E+04  0.7818608E-02  0.8965665E-01
          1   -1    0    0  501    0  0.00000000000E+00  0.00000000000E+00  0.20862553849E+04  0.20862553849E+04  0.50400000000E-02 0. -1.
         -1   -1    0    0    0  501 -0.00000000000E+00 -0.00000000000E+00 -0.18393659049E+04  0.18393659049E+04  0.50400000000E-02 0.  1.
    8880023    1    1    2    0    0  0.19273806376E+03 -0.12471088510E+04 -0.12970239162E+04  0.19257491251E+04  0.65864270000E+03 0.  0.
    8880022    1    1    2    0    0 -0.19273806376E+03  0.12471088510E+04  0.15439133962E+04  0.19998721647E+04  0.15294330000E+03 0.  0.
<mgrwt>
<rscale>  0 0.13837515E+04</rscale>
<asrwt>0</asrwt>
<pdfrwt beam="1">  1        1 0.32096237E+00 0.14234601E+04</pdfrwt>
<pdfrwt beam="2">  1       -1 0.28297937E+00 0.14234601E+04</pdfrwt>
<totfact> 0.10562515E-01</totfact>
</mgrwt>
</event>
<event>
 4    1  0.2514307E-008  0.1086555E+04  0.7818608E-02  0.9276175E-01
          1   -1    0    0  501    0  0.00000000000E+00  0.00000000000E+00  0.14598951879E+04  0.14598951879E+04  0.50400000000E-02 0. -1.
         -1   -1    0    0    0  501 -0.00000000000E+00 -0.00000000000E+00 -0.73616455622E+03  0.73616455624E+03  0.50400000000E-02 0.  1.
    8880023    1    1    2    0    0  0.81832850363E+03 -0.27772190145E+03  0.46522658590E+02  0.10875502556E+04  0.65864270000E+03 0.  0.
    8880022    1    1    2    0    0 -0.81832850363E+03  0.27772190145E+03  0.67720797311E+03  0.11085094886E+04  0.15294330000E+03 0.  0.
<mgrwt>
<rscale>  0 0.10300610E+04</rscale>
<asrwt>0</asrwt>
<pdfrwt beam="1">  1        1 0.22459926E+00 0.10865547E+04</pdfrwt>
<pdfrwt beam="2">  1       -1 0.11325609E+00 0.10865547E+04</pdfrwt>
<totfact> 0.49423752E+00</totfact>
</mgrwt>
</event>
<event>
 4    1  0.2514307E-008  0.1215874E+04  0.7818608E-02  0.9141844E-01
          1   -1    0    0  501    0  0.00000000000E+00  0.00000000000E+00  0.19266219680E+04  0.19266219680E+04  0.50400000000E-02 0. -1.
         -1   -1    0    0    0  501 -0.00000000000E+00 -0.00000000000E+00 -0.12894637193E+04  0.12894637193E+04  0.50400000000E-02 0.  1.
    8880023    1    1    2    0    0 -0.92986147025E+01 -0.10219843595E+04 -0.79301252051E+03  0.14516258331E+04  0.65864270000E+03 0.  0.
    8880022    1    1    2    0    0  0.92986147025E+01  0.10219843595E+04  0.14301707692E+04  0.17644598543E+04  0.15294330000E+03 0.  0.
<mgrwt>
<rscale>  0 0.11674390E+04</rscale>
<asrwt>0</asrwt>
<pdfrwt beam="1">  1        1 0.29640338E+00 0.12158736E+04</pdfrwt>
<pdfrwt beam="2">  1       -1 0.19837904E+00 0.12158736E+04</pdfrwt>
<totfact> 0.50537484E-01</totfact>
</mgrwt>
</event>
<event>
 4    1  0.2711275E-008  0.9459978E+03  0.7818608E-02  0.9455896E-01
          1   -1    0    0  501    0  0.00000000000E+00  0.00000000000E+00  0.18724833526E+04  0.18724833526E+04  0.50400000000E-02 0. -1.
         -1   -1    0    0    0  501 -0.00000000000E+00 -0.00000000000E+00 -0.19338076788E+04  0.19338076788E+04  0.50400000000E-02 0.  1.
    8880023    1    1    2    0    0 -0.60365836925E+03  0.31096343782E+03 -0.17447120486E+04  0.19846742870E+04  0.65864270000E+03 0.  1.
    8880022    1    1    2    0    0  0.60365836925E+03 -0.31096343782E+03  0.16833877225E+04  0.18216167444E+04  0.15294330000E+03 0.  0.
<mgrwt>
<rscale>  0 0.87615023E+03</rscale>
<asrwt>0</asrwt>
<pdfrwt beam="1">  1        1 0.28807436E+00 0.94599783E+03</pdfrwt>
<pdfrwt beam="2">  1       -1 0.29750887E+00 0.94599783E+03</pdfrwt>
<totfact> 0.12865853E-01</totfact>
</mgrwt>
</event>
<event>
 4    1  0.2514307E-008  0.8229916E+03  0.7818608E-02  0.9663126E-01
         -1   -1    0    0    0  501 -0.00000000000E+00  0.00000000000E+00  0.70702164083E+03  0.70702164085E+03  0.50400000000E-02 0.  1.
          1   -1    0    0  501    0  0.00000000000E+00 -0.00000000000E+00 -0.16787476764E+04  0.16787476764E+04  0.50400000000E-02 0. -1.
    8880023    1    1    2    0    0  0.46672532227E+03 -0.16022623601E+03  0.40358909051E+03  0.91662387783E+03  0.65864270000E+03 0.  0.
    8880022    1    1    2    0    0 -0.46672532227E+03  0.16022623601E+03 -0.13753151261E+04  0.14691454394E+04  0.15294330000E+03 0. -1.
<mgrwt>
<rscale>  0 0.73255365E+03</rscale>
<asrwt>0</asrwt>
<pdfrwt beam="1">  1        1 0.25826887E+00 0.82299160E+03</pdfrwt>
<pdfrwt beam="2">  1       -1 0.10877256E+00 0.82299160E+03</pdfrwt>
<totfact> 0.39896861E+00</totfact>
</mgrwt>
</event>
<event>
 4    1  0.2514307E-008  0.1287898E+04  0.7818608E-02  0.9076082E-01
         -1   -1    0    0    0  501 -0.00000000000E+00  0.00000000000E+00  0.18972584195E+04  0.18972584195E+04  0.50400000000E-02 0.  1.
          1   -1    0    0  501    0  0.00000000000E+00 -0.00000000000E+00 -0.16211783565E+04  0.16211783565E+04  0.50400000000E-02 0. -1.
    8880023    1    1    2    0    0 -0.11047495313E+04  0.66331824642E+02 -0.11363455234E+04  0.17175455722E+04  0.65864270000E+03 0.  0.
    8880022    1    1    2    0    0  0.11047495313E+04 -0.66331824642E+02  0.14124255864E+04  0.18008912038E+04  0.15294330000E+03 0.  0.
<mgrwt>
<rscale>  0 0.12429378E+04</rscale>
<asrwt>0</asrwt>
<pdfrwt beam="1">  1        1 0.24941205E+00 0.12878981E+04</pdfrwt>
<pdfrwt beam="2">  1       -1 0.29188591E+00 0.12878981E+04</pdfrwt>
<totfact> 0.19533997E-01</totfact>
</mgrwt>
</event>
<event>
 4    1  0.2514307E-008  0.1636317E+04  0.7818608E-02  0.8818931E-01
          1   -1    0    0  501    0  0.00000000000E+00  0.00000000000E+00  0.21203763581E+04  0.21203763581E+04  0.50400000000E-02 0. -1.
         -1   -1    0    0    0  501 -0.00000000000E+00 -0.00000000000E+00 -0.15494777361E+04  0.15494777361E+04  0.50400000000E-02 0.  1.
    8880023    1    1    2    0    0  0.64035375420E+03 -0.13541306506E+04 -0.62029601083E+03  0.17499428838E+04  0.65864270000E+03 0.  0.
    8880022    1    1    2    0    0 -0.64035375420E+03  0.13541306506E+04  0.11911946329E+04  0.19199112104E+04  0.15294330000E+03 0.  0.
<mgrwt>
<rscale>  0 0.16026354E+04</rscale>
<asrwt>0</asrwt>
<pdfrwt beam="1">  1        1 0.32621175E+00 0.16363169E+04</pdfrwt>
<pdfrwt beam="2">  1       -1 0.23838119E+00 0.16363169E+04</pdfrwt>
<totfact> 0.19048784E-01</totfact>
</mgrwt>
</event>
<event>
 4    1  0.2514307E-008  0.9743193E+03  0.7818608E-02  0.9415955E-01
          1   -1    0    0  501    0  0.00000000000E+00  0.00000000000E+00  0.30724651159E+04  0.30724651159E+04  0.50400000000E-02 0. -1.
         -1   -1    0    0    0  501 -0.00000000000E+00 -0.00000000000E+00 -0.42761492244E+03  0.42761492247E+03  0.50400000000E-02 0.  1.
    8880023    1    1    2    0    0 -0.68295863969E+03  0.22148469671E+03  0.26518702311E+03  0.10097635059E+04  0.65864270000E+03 0.  0.
    8880022    1    1    2    0    0  0.68295863969E+03 -0.22148469671E+03  0.23796631704E+04  0.24903165325E+04  0.15294330000E+03 0.  0.
<mgrwt>
<rscale>  0 0.90774207E+03</rscale>
<asrwt>0</asrwt>
<pdfrwt beam="1">  1        1 0.47268695E+00 0.97431934E+03</pdfrwt>
<pdfrwt beam="2">  1       -1 0.65786910E-01 0.97431934E+03</pdfrwt>
<totfact> 0.12808003E+00</totfact>
</mgrwt>
</event>
<event>
 4    1  0.2514307E-008  0.7701105E+03  0.7818608E-02  0.9779602E-01
          1   -1    0    0  501    0  0.00000000000E+00  0.00000000000E+00  0.21380949672E+04  0.21380949672E+04  0.50400000000E-02 0. -1.
         -1   -1    0    0    0  501 -0.00000000000E+00 -0.00000000000E+00 -0.58648485476E+03  0.58648485478E+03  0.50400000000E-02 0.  1.
    8880023    1    1    2    0    0 -0.37557385765E+03 -0.13492289475E+03 -0.29835894961E+03  0.82588629917E+03  0.65864270000E+03 0.  1.
    8880022    1    1    2    0    0  0.37557385765E+03  0.13492289475E+03  0.18499690621E+04  0.18986935229E+04  0.15294330000E+03 0.  0.
<mgrwt>
<rscale>  0 0.66468777E+03</rscale>
<asrwt>0</asrwt>
<pdfrwt beam="1">  1        1 0.32893769E+00 0.77011046E+03</pdfrwt>
<pdfrwt beam="2">  1       -1 0.90228440E-01 0.77011046E+03</pdfrwt>
<totfact> 0.30308109E+00</totfact>
</mgrwt>
</event>
<event>
 4    1  0.2514307E-008  0.6763453E+03  0.7818608E-02  0.1011471E+00
         -1   -1    0    0    0  501 -0.00000000000E+00  0.00000000000E+00  0.24031798972E+03  0.24031798977E+03  0.50400000000E-02 0.  1.
          1   -1    0    0  501    0  0.00000000000E+00 -0.00000000000E+00 -0.12645068223E+04  0.12645068223E+04  0.50400000000E-02 0. -1.
    8880023    1    1    2    0    0 -0.87977174138E+02 -0.12606641197E+03 -0.28404817966E+03  0.73357092229E+03  0.65864270000E+03 0.  1.
    8880022    1    1    2    0    0  0.87977174138E+02  0.12606641197E+03 -0.74014065287E+03  0.77125388974E+03  0.15294330000E+03 0.  0.
<mgrwt>
<rscale>  0 0.50894016E+03</rscale>
<asrwt>0</asrwt>
<pdfrwt beam="1">  1        1 0.19453951E+00 0.67634527E+03</pdfrwt>
<pdfrwt beam="2">  1       -1 0.36971999E-01 0.67634527E+03</pdfrwt>
<totfact> 0.69535321E+01</totfact>
</mgrwt>
</event>
<event>
 4    1  0.2514307E-008  0.1506566E+04  0.7818608E-02  0.8905013E-01
          1   -1    0    0  501    0  0.00000000000E+00  0.00000000000E+00  0.15342288028E+04  0.15342288028E+04  0.50400000000E-02 0. -1.
         -1   -1    0    0    0  501 -0.00000000000E+00 -0.00000000000E+00 -0.19647800205E+04  0.19647800205E+04  0.50400000000E-02 0.  1.
    8880023    1    1    2    0    0 -0.94917962467E+02  0.13516368529E+04  0.76128672375E+03  0.16879867546E+04  0.65864270000E+03 0.  0.
    8880022    1    1    2    0    0  0.94917962467E+02 -0.13516368529E+04 -0.11918379414E+04  0.18110220687E+04  0.15294330000E+03 0.  0.
<mgrwt>
<rscale>  0 0.14694694E+04</rscale>
<asrwt>0</asrwt>
<pdfrwt beam="1">  1        1 0.23603520E+00 0.15065662E+04</pdfrwt>
<pdfrwt beam="2">  1       -1 0.30227385E+00 0.15065662E+04</pdfrwt>
<totfact> 0.18679467E-01</totfact>
</mgrwt>
</event>
<event>
 4    1  0.2514307E-008  0.1634184E+04  0.7818608E-02  0.8820271E-01
         -1   -1    0    0    0  501 -0.00000000000E+00  0.00000000000E+00  0.22176662322E+04  0.22176662322E+04  0.50400000000E-02 0.  1.
          1   -1    0    0  501    0  0.00000000000E+00 -0.00000000000E+00 -0.32467409662E+04  0.32467409662E+04  0.50400000000E-02 0. -1.
    8880023    1    1    2    0    0  0.10976968140E+04  0.10157792328E+04 -0.27378244694E+04  0.31884539791E+04  0.65864270000E+03 0. -1.
    8880022    1    1    2    0    0 -0.10976968140E+04 -0.10157792328E+04  0.17087497354E+04  0.22759532193E+04  0.15294330000E+03 0.  0.
<mgrwt>
<rscale>  0 0.16004514E+04</rscale>
<asrwt>0</asrwt>
<pdfrwt beam="1">  1        1 0.49949861E+00 0.16341836E+04</pdfrwt>
<pdfrwt beam="2">  1       -1 0.34117942E+00 0.16341836E+04</pdfrwt>
<totfact> 0.64650635E-03</totfact>
</mgrwt>
</event>
<event>
 4    1  0.2514307E-008  0.6711392E+03  0.7818608E-02  0.1014859E+00
          1   -1    0    0  501    0  0.00000000000E+00  0.00000000000E+00  0.20192157208E+04  0.20192157208E+04  0.50400000000E-02 0. -1.
         -1   -1    0    0    0  501 -0.00000000000E+00 -0.00000000000E+00 -0.11721855579E+04  0.11721855580E+04  0.50400000000E-02 0.  1.
    8880023    1    1    2    0    0  0.28834001392E+02 -0.12564329462E+03 -0.10704893329E+04  0.12634774455E+04  0.65864270000E+03 0.  1.
    8880022    1    1    2    0    0 -0.28834001392E+02  0.12564329462E+03  0.19175194958E+04  0.19279238333E+04  0.15294330000E+03 0.  0.
<mgrwt>
<rscale>  0 0.49588340E+03</rscale>
<asrwt>0</asrwt>
<pdfrwt beam="1">  1        1 0.31064857E+00 0.67113921E+03</pdfrwt>
<pdfrwt beam="2">  1       -1 0.18033624E+00 0.67113921E+03</pdfrwt>
<totfact> 0.64801784E-01</totfact>
</mgrwt>
</event>
<event>
 4    1  0.2514307E-008  0.6821119E+03  0.7818608E-02  0.1008153E+00
         -1   -1    0    0    0  501 -0.00000000000E+00  0.00000000000E+00  0.76890967967E+03  0.76890967968E+03  0.50400000000E-02 0.  1.
          1   -1    0    0  501    0  0.00000000000E+00 -0.00000000000E+00 -0.23909751642E+04  0.23909751642E+04  0.50400000000E-02 0. -1.
    8880023    1    1    2    0    0  0.17657295083E+03  0.16983284845E+02  0.61028984524E+03  0.91527610063E+03  0.65864270000E+03 0.  1.
    8880022    1    1    2    0    0 -0.17657295083E+03 -0.16983284845E+02 -0.22323553297E+04  0.22446087432E+04  0.15294330000E+03 0.  0.
<mgrwt>
<rscale>  0 0.52215183E+03</rscale>
<asrwt>0</asrwt>
<pdfrwt beam="1">  1        1 0.36784233E+00 0.68211190E+03</pdfrwt>
<pdfrwt beam="2">  1       -1 0.11829380E+00 0.68211190E+03</pdfrwt>
<totfact> 0.11176210E+00</totfact>
</mgrwt>
</event>
<event>
 4    1  0.2514307E-008  0.8330860E+03  0.7818608E-02  0.9643358E-01
         -1   -1    0    0    0  501 -0.00000000000E+00  0.00000000000E+00  0.11399274472E+04  0.11399274472E+04  0.50400000000E-02 0.  1.
          1   -1    0    0  501    0  0.00000000000E+00 -0.00000000000E+00 -0.87131579110E+03  0.87131579112E+03  0.50400000000E-02 0. -1.
    8880023    1    1    2    0    0 -0.12975124020E+03  0.49334231225E+03  0.87231149242E+03  0.12062170482E+04  0.65864270000E+03 0.  1.
    8880022    1    1    2    0    0  0.12975124020E+03 -0.49334231225E+03 -0.60369983630E+03  0.80502619011E+03  0.15294330000E+03 0.  0.
<mgrwt>
<rscale>  0 0.74491764E+03</rscale>
<asrwt>0</asrwt>
<pdfrwt beam="1">  1        1 0.13404858E+00 0.83308597E+03</pdfrwt>
<pdfrwt beam="2">  1       -1 0.17537345E+00 0.83308597E+03</pdfrwt>
<totfact> 0.44248648E+00</totfact>
</mgrwt>
</event>
<event>
 4    1  0.2514307E-008  0.1158447E+04  0.7818608E-02  0.9198612E-01
          1   -1    0    0  501    0  0.00000000000E+00  0.00000000000E+00  0.14071450208E+04  0.14071450208E+04  0.50400000000E-02 0. -1.
         -1   -1    0    0    0  501 -0.00000000000E+00 -0.00000000000E+00 -0.11362778915E+04  0.11362778915E+04  0.50400000000E-02 0.  1.
    8880023    1    1    2    0    0 -0.15919306639E+03  0.93959978152E+03 -0.54440850732E+03  0.12799925824E+04  0.65864270000E+03 0.  0.
    8880022    1    1    2    0    0  0.15919306639E+03 -0.93959978152E+03  0.81527563662E+03  0.12634303299E+04  0.15294330000E+03 0.  0.
<mgrwt>
<rscale>  0 0.11067763E+04</rscale>
<asrwt>0</asrwt>
<pdfrwt beam="1">  1        1 0.21648385E+00 0.11584474E+04</pdfrwt>
<pdfrwt beam="2">  1       -1 0.17481198E+00 0.11584474E+04</pdfrwt>
<totfact> 0.16972814E+00</totfact>
</mgrwt>
</event>
<event>
 4    1  0.2514307E-008  0.6695474E+03  0.7818608E-02  0.1015989E+00
         -1   -1    0    0    0  501 -0.00000000000E+00  0.00000000000E+00  0.17823403733E+03  0.17823403740E+03  0.50400000000E-02 0.  1.
          1   -1    0    0  501    0  0.00000000000E+00 -0.00000000000E+00 -0.24394990092E+04  0.24394990092E+04  0.50400000000E-02 0. -1.
    8880023    1    1    2    0    0  0.99326150798E+02 -0.67954566673E+02 -0.47506726540E+03  0.82096444520E+03  0.65864270000E+03 0.  1.
    8880022    1    1    2    0    0 -0.99326150798E+02  0.67954566673E+02 -0.17861977065E+04  0.17967686014E+04  0.15294330000E+03 0.  0.
<mgrwt>
<rscale>  0 0.49162086E+03</rscale>
<asrwt>0</asrwt>
<pdfrwt beam="1">  1        1 0.37530752E+00 0.66954739E+03</pdfrwt>
<pdfrwt beam="2">  1       -1 0.27420623E-01 0.66954739E+03</pdfrwt>
<totfact> 0.18894162E+01</totfact>
</mgrwt>
</event>
<event>
 4    1  0.2514307E-008  0.1025091E+04  0.7818608E-02  0.9349443E-01
          1   -1    0    0  501    0  0.00000000000E+00  0.00000000000E+00  0.19932018938E+04  0.19932018938E+04  0.50400000000E-02 0. -1.
         -1   -1    0    0    0  501 -0.00000000000E+00 -0.00000000000E+00 -0.63910316773E+03  0.63910316775E+03  0.50400000000E-02 0.  1.
    8880023    1    1    2    0    0 -0.91663528663E+02  0.78012717618E+03 -0.38875704195E+02  0.10258275392E+04  0.65864270000E+03 0.  1.
    8880022    1    1    2    0    0  0.91663528663E+02 -0.78012717618E+03  0.13929744303E+04  0.16064775224E+04  0.15294330000E+03 0.  0.
<mgrwt>
<rscale>  0 0.96355711E+03</rscale>
<asrwt>0</asrwt>
<pdfrwt beam="1">  1        1 0.30664644E+00 0.10250906E+04</pdfrwt>
<pdfrwt beam="2">  1       -1 0.98323565E-01 0.10250906E+04</pdfrwt>
<totfact> 0.30063358E+00</totfact>
</mgrwt>
</event>
<event>
 4    1  0.2514307E-008  0.1306088E+04  0.7818608E-02  0.9060321E-01
          1   -1    0    0  501    0  0.00000000000E+00  0.00000000000E+00  0.11043994298E+04  0.11043994298E+04  0.50400000000E-02 0. -1.
         -1   -1    0    0    0  501 -0.00000000000E+00 -0.00000000000E+00 -0.13603174396E+04  0.13603174396E+04  0.50400000000E-02 0.  1.
    8880023    1    1    2    0    0 -0.96123763715E+03  0.58998054590E+03 -0.42995109776E+02  0.13067951734E+04  0.65864270000E+03 0.  0.
    8880022    1    1    2    0    0  0.96123763715E+03 -0.58998054590E+03 -0.21292290007E+03  0.11579216960E+04  0.15294330000E+03 0.  0.
<mgrwt>
<rscale>  0 0.12619196E+04</rscale>
<asrwt>0</asrwt>
<pdfrwt beam="1">  1        1 0.16990760E+00 0.13060877E+04</pdfrwt>
<pdfrwt beam="2">  1       -1 0.20927961E+00 0.13060877E+04</pdfrwt>
<totfact> 0.15858350E+00</totfact>
</mgrwt>
</event>
<event>
 4    1  0.2514307E-008  0.7893660E+03  0.7818608E-02  0.9734279E-01
         -1   -1    0    0    0  501 -0.00000000000E+00  0.00000000000E+00  0.11514238983E+04  0.11514238983E+04  0.50400000000E-02 0.  1.
          1   -1    0    0  501    0  0.00000000000E+00 -0.00000000000E+00 -0.10764516038E+04  0.10764516038E+04  0.50400000000E-02 0. -1.
    8880023    1    1    2    0    0  0.66554560209E+02  0.42995233349E+03  0.95218001162E+03  0.12368288076E+04  0.65864270000E+03 0.  0.
    8880022    1    1    2    0    0 -0.66554560209E+02 -0.42995233349E+03 -0.87720771714E+03  0.99104669445E+03  0.15294330000E+03 0.  0.
<mgrwt>
<rscale>  0 0.69012014E+03</rscale>
<asrwt>0</asrwt>
<pdfrwt beam="1">  1        1 0.16560794E+00 0.78936603E+03</pdfrwt>
<pdfrwt beam="2">  1       -1 0.17714214E+00 0.78936603E+03</pdfrwt>
<totfact> 0.29808976E+00</totfact>
</mgrwt>
</event>
<event>
 4    1  0.2514307E-008  0.8206518E+03  0.7818608E-02  0.9667802E-01
          1   -1    0    0  501    0  0.00000000000E+00  0.00000000000E+00  0.27537560019E+04  0.27537560019E+04  0.50400000000E-02 0. -1.
         -1   -1    0    0    0  501 -0.00000000000E+00 -0.00000000000E+00 -0.25917552252E+03  0.25917552257E+03  0.50400000000E-02 0.  1.
    8880023    1    1    2    0    0  0.32078163889E+03  0.36980849576E+03  0.51700445136E+03  0.96992937495E+03  0.65864270000E+03 0. -1.
    8880022    1    1    2    0    0 -0.32078163889E+03 -0.36980849576E+03  0.19775760280E+04  0.20430021495E+04  0.15294330000E+03 0.  0.
<mgrwt>
<rscale>  0 0.72966608E+03</rscale>
<asrwt>0</asrwt>
<pdfrwt beam="1">  1        1 0.42365477E+00 0.82065181E+03</pdfrwt>
<pdfrwt beam="2">  1       -1 0.39873158E-01 0.82065181E+03</pdfrwt>
<totfact> 0.57793842E+00</totfact>
</mgrwt>
</event>
<event>
 4    1  0.2514307E-008  0.6786179E+03  0.7818608E-02  0.1010117E+00
         -1   -1    0    0    0  501 -0.00000000000E+00  0.00000000000E+00  0.19867082456E+04  0.19867082456E+04  0.50400000000E-02 0.  1.
          1   -1    0    0  501    0  0.00000000000E+00 -0.00000000000E+00 -0.18990267497E+04  0.18990267497E+04  0.50400000000E-02 0. -1.
    8880023    1    1    2    0    0 -0.60003156515E+02 -0.15202500923E+03  0.19217543679E+04  0.20380534927E+04  0.65864270000E+03 0.  1.
    8880022    1    1    2    0    0  0.60003156515E+02  0.15202500923E+03 -0.18340728720E+04  0.18476815026E+04  0.15294330000E+03 0.  0.
<mgrwt>
<rscale>  0 0.51428353E+03</rscale>
<asrwt>0</asrwt>
<pdfrwt beam="1">  1        1 0.29215796E+00 0.67861785E+03</pdfrwt>
<pdfrwt beam="2">  1       -1 0.30564742E+00 0.67861785E+03</pdfrwt>
<totfact> 0.11712661E-01</totfact>
</mgrwt>
</event>
<event>
 4    1  0.2514307E-008  0.8071439E+03  0.7818608E-02  0.9695557E-01
         -1   -1    0    0    0  501 -0.00000000000E+00  0.00000000000E+00  0.82658755660E+03  0.82658755662E+03  0.50400000000E-02 0.  1.
          1   -1    0    0  501    0  0.00000000000E+00 -0.00000000000E+00 -0.51913540918E+03  0.51913540921E+03  0.50400000000E-02 0. -1.
    8880023    1    1    2    0    0  0.38088290659E+03 -0.26944260598E+03  0.10228693245E+03  0.81359936656E+03  0.65864270000E+03 0.  1.
    8880022    1    1    2    0    0 -0.38088290659E+03  0.26944260598E+03  0.20516521497E+03  0.53212359927E+03  0.15294330000E+03 0. -1.
<mgrwt>
<rscale>  0 0.71281938E+03</rscale>
<asrwt>0</asrwt>
<pdfrwt beam="1">  1        1 0.79866987E-01 0.80714392E+03</pdfrwt>
<pdfrwt beam="2">  1       -1 0.12716732E+00 0.80714392E+03</pdfrwt>
<totfact> 0.22991797E+01</totfact>
</mgrwt>
</event>
<event>
 4    1  0.2514307E-008  0.7983913E+03  0.7818608E-02  0.9714285E-01
         -1   -1    0    0    0  501 -0.00000000000E+00  0.00000000000E+00  0.19169181114E+04  0.19169181114E+04  0.50400000000E-02 0.  1.
          1   -1    0    0  501    0  0.00000000000E+00 -0.00000000000E+00 -0.49986897440E+03  0.49986897443E+03  0.50400000000E-02 0. -1.
    8880023    1    1    2    0    0  0.35002768366E+03  0.28477896999E+03  0.16889913829E+04  0.18681864304E+04  0.65864270000E+03 0.  1.
    8880022    1    1    2    0    0 -0.35002768366E+03 -0.28477896999E+03 -0.27194224585E+03  0.54860065546E+03  0.15294330000E+03 0.  0.
<mgrwt>
<rscale>  0 0.70172587E+03</rscale>
<asrwt>0</asrwt>
<pdfrwt beam="1">  1        1 0.76902920E-01 0.79839129E+03</pdfrwt>
<pdfrwt beam="2">  1       -1 0.29491048E+00 0.79839129E+03</pdfrwt>
<totfact> 0.16488314E+00</totfact>
</mgrwt>
</event>
<event>
 4    1  0.2514307E-008  0.7618360E+03  0.7818608E-02  0.9800377E-01
         -1   -1    0    0    0  501 -0.00000000000E+00  0.00000000000E+00  0.83336878173E+03  0.83336878175E+03  0.50400000000E-02 0.  1.
          1   -1    0    0  501    0  0.00000000000E+00 -0.00000000000E+00 -0.72696033086E+03  0.72696033088E+03  0.50400000000E-02 0. -1.
    8880023    1    1    2    0    0 -0.55543130467E+02 -0.37881244104E+03  0.56139190045E+03  0.94633766542E+03  0.65864270000E+03 0.  0.
    8880022    1    1    2    0    0  0.55543130467E+02  0.37881244104E+03 -0.45498344958E+03  0.61399144720E+03  0.15294330000E+03 0.  0.
<mgrwt>
<rscale>  0 0.65342302E+03</rscale>
<asrwt>0</asrwt>
<pdfrwt beam="1">  1        1 0.11184005E+00 0.76183601E+03</pdfrwt>
<pdfrwt beam="2">  1       -1 0.12821058E+00 0.76183601E+03</pdfrwt>
<totfact> 0.13873525E+01</totfact>
</mgrwt>
</event>
<event>
 4    1  0.2514307E-008  0.8436920E+03  0.7818608E-02  0.9623258E-01
          1   -1    0    0  501    0  0.00000000000E+00  0.00000000000E+00  0.60949499627E+03  0.60949499629E+03  0.50400000000E-02 0. -1.
         -1   -1    0    0    0  501 -0.00000000000E+00 -0.00000000000E+00 -0.98173384590E+03  0.98173384591E+03  0.50400000000E-02 0.  1.
    8880023    1    1    2    0    0 -0.52713392947E+03  0.11653887543E+02 -0.55815149219E+03  0.10116072791E+04  0.65864270000E+03 0.  1.
    8880022    1    1    2    0    0  0.52713392947E+03 -0.11653887543E+02  0.18591264256E+03  0.57962156307E+03  0.15294330000E+03 0.  0.
<mgrwt>
<rscale>  0 0.75775783E+03</rscale>
<asrwt>0</asrwt>
<pdfrwt beam="1">  1        1 0.93768461E-01 0.84369200E+03</pdfrwt>
<pdfrwt beam="2">  1       -1 0.15103598E+00 0.84369200E+03</pdfrwt>
<totfact> 0.11675037E+01</totfact>
</mgrwt>
</event>
<event>
 4    1  0.2514307E-008  0.1140516E+04  0.7818608E-02  0.9217233E-01
         -1   -1    0    0    0  501 -0.00000000000E+00  0.00000000000E+00  0.19037894598E+04  0.19037894598E+04  0.50400000000E-02 0.  1.
          1   -1    0    0  501    0  0.00000000000E+00 -0.00000000000E+00 -0.84882349146E+03  0.84882349148E+03  0.50400000000E-02 0. -1.
    8880023    1    1    2    0    0  0.80826040305E+03 -0.46225606156E+03  0.13468856246E+04  0.17649013110E+04  0.65864270000E+03 0.  0.
    8880022    1    1    2    0    0 -0.80826040305E+03  0.46225606156E+03 -0.29191965626E+03  0.98771164027E+03  0.15294330000E+03 0.  0.
<mgrwt>
<rscale>  0 0.10877309E+04</rscale>
<asrwt>0</asrwt>
<pdfrwt beam="1">  1        1 0.13058823E+00 0.11405156E+04</pdfrwt>
<pdfrwt beam="2">  1       -1 0.29289069E+00 0.11405156E+04</pdfrwt>
<totfact> 0.73227609E-01</totfact>
</mgrwt>
</event>
<event>
 4    1  0.2514307E-008  0.1026804E+04  0.7818608E-02  0.9347300E-01
          1   -1    0    0  501    0  0.00000000000E+00  0.00000000000E+00  0.14840075940E+04  0.14840075940E+04  0.50400000000E-02 0. -1.
         -1   -1    0    0    0  501 -0.00000000000E+00 -0.00000000000E+00 -0.88171706296E+03  0.88171706298E+03  0.50400000000E-02 0.  1.
    8880023    1    1    2    0    0  0.62431960257E+03 -0.48035533463E+03 -0.38220458644E+03  0.10956307616E+04  0.65864270000E+03 0.  0.
    8880022    1    1    2    0    0 -0.62431960257E+03  0.48035533463E+03  0.98449511745E+03  0.12700938953E+04  0.15294330000E+03 0.  0.
<mgrwt>
<rscale>  0 0.96542519E+03</rscale>
<asrwt>0</asrwt>
<pdfrwt beam="1">  1        1 0.22830886E+00 0.10268040E+04</pdfrwt>
<pdfrwt beam="2">  1       -1 0.13564878E+00 0.10268040E+04</pdfrwt>
<totfact> 0.30590419E+00</totfact>
</mgrwt>
</event>
<event>
 4    1  0.2514307E-008  0.8914974E+03  0.7818608E-02  0.9539821E-01
          1   -1    0    0  501    0  0.00000000000E+00  0.00000000000E+00  0.69080923508E+03  0.69080923510E+03  0.50400000000E-02 0. -1.
         -1   -1    0    0    0  501 -0.00000000000E+00 -0.00000000000E+00 -0.15625919377E+04  0.15625919377E+04  0.50400000000E-02 0.  1.
    8880023    1    1    2    0    0  0.59458847010E+03 -0.86150645498E+02 -0.12438703821E+04  0.15303532651E+04  0.65864270000E+03 0.  1.
    8880022    1    1    2    0    0 -0.59458847010E+03  0.86150645498E+02  0.37208767949E+03  0.72304790763E+03  0.15294330000E+03 0.  0.
<mgrwt>
<rscale>  0 0.81410567E+03</rscale>
<asrwt>0</asrwt>
<pdfrwt beam="1">  1        1 0.10627834E+00 0.89149739E+03</pdfrwt>
<pdfrwt beam="2">  1       -1 0.24039876E+00 0.89149739E+03</pdfrwt>
<totfact> 0.22885975E+00</totfact>
</mgrwt>
</event>
<event>
 4    1  0.2514307E-008  0.7871161E+03  0.7818608E-02  0.9739379E-01
          1   -1    0    0  501    0  0.00000000000E+00  0.00000000000E+00  0.78046860409E+03  0.78046860411E+03  0.50400000000E-02 0. -1.
         -1   -1    0    0    0  501 -0.00000000000E+00 -0.00000000000E+00 -0.51916099445E+03  0.51916099448E+03  0.50400000000E-02 0.  1.
    8880023    1    1    2    0    0 -0.20153982945E+03  0.38095046464E+03  0.31309297070E+02  0.78773855924E+03  0.65864270000E+03 0.  0.
    8880022    1    1    2    0    0  0.20153982945E+03 -0.38095046464E+03  0.22999831257E+03  0.51189103935E+03  0.15294330000E+03 0.  0.
<mgrwt>
<rscale>  0 0.68719814E+03</rscale>
<asrwt>0</asrwt>
<pdfrwt beam="1">  1        1 0.12007209E+00 0.78711611E+03</pdfrwt>
<pdfrwt beam="2">  1       -1 0.79870922E-01 0.78711611E+03</pdfrwt>
<totfact> 0.36748287E+01</totfact>
</mgrwt>
</event>
<event>
 4    1  0.2514307E-008  0.8013681E+03  0.7818608E-02  0.9707846E-01
         -1   -1    0    0    0  501 -0.00000000000E+00  0.00000000000E+00  0.12612814192E+04  0.12612814192E+04  0.50400000000E-02 0.  1.
          1   -1    0    0  501    0  0.00000000000E+00 -0.00000000000E+00 -0.46434551325E+03  0.46434551328E+03  0.50400000000E-02 0. -1.
    8880023    1    1    2    0    0  0.21198228515E+02  0.45599484935E+03  0.92854505775E+03  0.12265344667E+04  0.65864270000E+03 0.  0.
    8880022    1    1    2    0    0 -0.21198228515E+02 -0.45599484935E+03 -0.13160915180E+03  0.49909246576E+03  0.15294330000E+03 0.  0.
<mgrwt>
<rscale>  0 0.70551580E+03</rscale>
<asrwt>0</asrwt>
<pdfrwt beam="1">  1        1 0.71437773E-01 0.80136813E+03</pdfrwt>
<pdfrwt beam="2">  1       -1 0.19404329E+00 0.80136813E+03</pdfrwt>
<totfact> 0.83319337E+00</totfact>
</mgrwt>
</event>
<event>
 4    1  0.2514307E-008  0.6812156E+03  0.7818608E-02  0.1008644E+00
         -1   -1    0    0    0  501 -0.00000000000E+00  0.00000000000E+00  0.56917678661E+03  0.56917678663E+03  0.50400000000E-02 0.  1.
          1   -1    0    0  501    0  0.00000000000E+00 -0.00000000000E+00 -0.15597238163E+04  0.15597238163E+04  0.50400000000E-02 0. -1.
    8880023    1    1    2    0    0  0.15122312532E+03 -0.85884029356E+02  0.35181988009E+03  0.76670198540E+03  0.65864270000E+03 0.  1.
    8880022    1    1    2    0    0 -0.15122312532E+03  0.85884029356E+02 -0.13423669097E+04  0.13621986175E+04  0.15294330000E+03 0.  0.
<mgrwt>
<rscale>  0 0.52017041E+03</rscale>
<asrwt>0</asrwt>
<pdfrwt beam="1">  1        1 0.23995751E+00 0.68121561E+03</pdfrwt>
<pdfrwt beam="2">  1       -1 0.87565660E-01 0.68121561E+03</pdfrwt>
<totfact> 0.80309575E+00</totfact>
</mgrwt>
</event>
<event>
 4    1  0.2514307E-008  0.8239250E+03  0.7818608E-02  0.9661270E-01
          1   -1    0    0  501    0  0.00000000000E+00  0.00000000000E+00  0.59739498343E+03  0.59739498346E+03  0.50400000000E-02 0. -1.
         -1   -1    0    0    0  501 -0.00000000000E+00 -0.00000000000E+00 -0.10733101453E+04  0.10733101453E+04  0.50400000000E-02 0.  1.
    8880023    1    1    2    0    0 -0.29496053565E+03 -0.39754301198E+03 -0.72348679591E+03  0.10964878085E+04  0.65864270000E+03 0.  0.
    8880022    1    1    2    0    0  0.29496053565E+03  0.39754301198E+03  0.24757163404E+03  0.57421732032E+03  0.15294330000E+03 0.  0.
<mgrwt>
<rscale>  0 0.73370319E+03</rscale>
<asrwt>0</asrwt>
<pdfrwt beam="1">  1        1 0.91906921E-01 0.82392498E+03</pdfrwt>
<pdfrwt beam="2">  1       -1 0.16512464E+00 0.82392498E+03</pdfrwt>
<totfact> 0.94159669E+00</totfact>
</mgrwt>
</event>
<event>
 4    1  0.2514307E-008  0.7550453E+03  0.7818608E-02  0.9818108E-01
          1   -1    0    0  501    0  0.00000000000E+00  0.00000000000E+00  0.12869671343E+04  0.12869671343E+04  0.50400000000E-02 0. -1.
         -1   -1    0    0    0  501 -0.00000000000E+00 -0.00000000000E+00 -0.11442762412E+04  0.11442762412E+04  0.50400000000E-02 0.  1.
    8880023    1    1    2    0    0  0.58089854340E+02  0.36456662269E+03 -0.98140017637E+03  0.12382405929E+04  0.65864270000E+03 0.  1.
    8880022    1    1    2    0    0 -0.58089854340E+02 -0.36456662269E+03  0.11240910696E+04  0.11930027826E+04  0.15294330000E+03 0.  0.
<mgrwt>
<rscale>  0 0.64399776E+03</rscale>
<asrwt>0</asrwt>
<pdfrwt beam="1">  1        1 0.19799494E+00 0.75504534E+03</pdfrwt>
<pdfrwt beam="2">  1       -1 0.17604250E+00 0.75504534E+03</pdfrwt>
<totfact> 0.21442946E+00</totfact>
</mgrwt>
</event>
<event>
 4    1  0.2514307E-008  0.6612813E+03  0.7818608E-02  0.1022881E+00
         -1   -1    0    0    0  501 -0.00000000000E+00  0.00000000000E+00  0.29282181935E+03  0.29282181939E+03  0.50400000000E-02 0.  1.
          1   -1    0    0  501    0  0.00000000000E+00 -0.00000000000E+00 -0.68926758631E+03  0.68926758632E+03  0.50400000000E-02 0. -1.
    8880023    1    1    2    0    0  0.47430501087E+02  0.35114663322E+02 -0.13720592001E+03  0.67536535502E+03  0.65864270000E+03 0.  1.
    8880022    1    1    2    0    0 -0.47430501087E+02 -0.35114663322E+02 -0.25923984695E+03  0.30672405069E+03  0.15294330000E+03 0.  0.
<mgrwt>
<rscale>  0 0.46661307E+03</rscale>
<asrwt>0</asrwt>
<pdfrwt beam="1">  1        1 0.10604117E+00 0.66128126E+03</pdfrwt>
<pdfrwt beam="2">  1       -1 0.45049511E-01 0.66128126E+03</pdfrwt>
<totfact> 0.13933852E+02</totfact>
</mgrwt>
</event>
<event>
 4    1  0.2514307E-008  0.7072798E+03  0.7818608E-02  0.9968244E-01
         -1   -1    0    0    0  501 -0.00000000000E+00  0.00000000000E+00  0.86636828985E+03  0.86636828986E+03  0.50400000000E-02 0.  1.
          1   -1    0    0  501    0  0.00000000000E+00 -0.00000000000E+00 -0.62776496740E+03  0.62776496742E+03  0.50400000000E-02 0. -1.
    8880023    1    1    2    0    0 -0.93285229123E+02 -0.24027575863E+03  0.66641836092E+03  0.97178094867E+03  0.65864270000E+03 0.  1.
    8880022    1    1    2    0    0  0.93285229123E+02  0.24027575863E+03 -0.42781503847E+03  0.52235230862E+03  0.15294330000E+03 0.  0.
<mgrwt>
<rscale>  0 0.57064873E+03</rscale>
<asrwt>0</asrwt>
<pdfrwt beam="1">  1        1 0.96579227E-01 0.70727985E+03</pdfrwt>
<pdfrwt beam="2">  1       -1 0.13328743E+00 0.70727985E+03</pdfrwt>
<totfact> 0.15765441E+01</totfact>
</mgrwt>
</event>
<event>
 4    1  0.2514307E-008  0.6798729E+03  0.7818608E-02  0.1009396E+00
         -1   -1    0    0    0  501 -0.00000000000E+00  0.00000000000E+00  0.42846018483E+03  0.42846018486E+03  0.50400000000E-02 0.  1.
          1   -1    0    0  501    0  0.00000000000E+00 -0.00000000000E+00 -0.85457897068E+03  0.85457897070E+03  0.50400000000E-02 0. -1.
    8880023    1    1    2    0    0  0.15744090630E+03  0.60244158375E+02  0.12091407155E+03  0.69054139380E+03  0.65864270000E+03 0.  1.
    8880022    1    1    2    0    0 -0.15744090630E+03 -0.60244158375E+02 -0.54703285740E+03  0.59249776176E+03  0.15294330000E+03 0.  0.
<mgrwt>
<rscale>  0 0.51715544E+03</rscale>
<asrwt>0</asrwt>
<pdfrwt beam="1">  1        1 0.13147369E+00 0.67987293E+03</pdfrwt>
<pdfrwt beam="2">  1       -1 0.65916952E-01 0.67987293E+03</pdfrwt>
<totfact> 0.47725189E+01</totfact>
</mgrwt>
</event>
<event>
 4    1  0.2514307E-008  0.8419517E+03  0.7818608E-02  0.9626511E-01
          1   -1    0    0  501    0  0.00000000000E+00  0.00000000000E+00  0.40387283266E+04  0.40387283266E+04  0.50400000000E-02 0. -1.
         -1   -1    0    0    0  501 -0.00000000000E+00 -0.00000000000E+00 -0.35601973228E+03  0.35601973231E+03  0.50400000000E-02 0.  1.
    8880023    1    1    2    0    0 -0.44887540997E+03 -0.27126233405E+03  0.19464247792E+03  0.86415755972E+03  0.65864270000E+03 0.  1.
    8880022    1    1    2    0    0  0.44887540997E+03  0.27126233405E+03  0.34880661164E+04  0.35305904992E+04  0.15294330000E+03 0.  0.
<mgrwt>
<rscale>  0 0.75566076E+03</rscale>
<asrwt>0</asrwt>
<pdfrwt beam="1">  1        1 0.62134278E+00 0.84195166E+03</pdfrwt>
<pdfrwt beam="2">  1       -1 0.54772270E-01 0.84195166E+03</pdfrwt>
<totfact> 0.32577356E-01</totfact>
</mgrwt>
</event>
<event>
 4    1  0.2514307E-008  0.9546156E+03  0.7818608E-02  0.9443504E-01
         -1   -1    0    0    0  501 -0.00000000000E+00  0.00000000000E+00  0.92656210783E+03  0.92656210785E+03  0.50400000000E-02 0.  1.
          1   -1    0    0  501    0  0.00000000000E+00 -0.00000000000E+00 -0.21694283266E+04  0.21694283266E+04  0.50400000000E-02 0. -1.
    8880023    1    1    2    0    0  0.23674600925E+03  0.64917805275E+03  0.59616598941E+03  0.11254798578E+04  0.65864270000E+03 0.  1.
    8880022    1    1    2    0    0 -0.23674600925E+03 -0.64917805275E+03 -0.18390322082E+04  0.19705105767E+04  0.15294330000E+03 0.  0.
<mgrwt>
<rscale>  0 0.88580332E+03</rscale>
<asrwt>0</asrwt>
<pdfrwt beam="1">  1        1 0.33375820E+00 0.95461564E+03</pdfrwt>
<pdfrwt beam="2">  1       -1 0.14254802E+00 0.95461564E+03</pdfrwt>
<totfact> 0.93279163E-01</totfact>
</mgrwt>
</event>
<event>
 4    1  0.2514307E-008  0.8481400E+03  0.7818608E-02  0.9615018E-01
         -1   -1    0    0    0  501 -0.00000000000E+00  0.00000000000E+00  0.88488242759E+03  0.88488242761E+03  0.50400000000E-02 0.  1.
          1   -1    0    0  501    0  0.00000000000E+00 -0.00000000000E+00 -0.64884865264E+03  0.64884865266E+03  0.50400000000E-02 0. -1.
    8880023    1    1    2    0    0 -0.48617574746E+03  0.22173060106E+03  0.42240802778E+03  0.94750729024E+03  0.65864270000E+03 0.  0.
    8880022    1    1    2    0    0  0.48617574746E+03 -0.22173060106E+03 -0.18637425283E+03  0.58622379003E+03  0.15294330000E+03 0.  0.
<mgrwt>
<rscale>  0 0.76310087E+03</rscale>
<asrwt>0</asrwt>
<pdfrwt beam="1">  1        1 0.99822870E-01 0.84814004E+03</pdfrwt>
<pdfrwt beam="2">  1       -1 0.13613576E+00 0.84814004E+03</pdfrwt>
<totfact> 0.14003433E+01</totfact>
</mgrwt>
</event>
<event>
 4    1  0.2514307E-008  0.9570846E+03  0.7818608E-02  0.9439993E-01
          1   -1    0    0  501    0  0.00000000000E+00  0.00000000000E+00  0.88123361362E+03  0.88123361363E+03  0.50400000000E-02 0. -1.
         -1   -1    0    0    0  501 -0.00000000000E+00 -0.00000000000E+00 -0.10396975750E+04  0.10396975750E+04  0.50400000000E-02 0.  1.
    8880023    1    1    2    0    0  0.16577522123E+03  0.67432875694E+03 -0.55542864819E+03  0.11065766516E+04  0.65864270000E+03 0.  0.
    8880022    1    1    2    0    0 -0.16577522123E+03 -0.67432875694E+03  0.39696468679E+03  0.81435453704E+03  0.15294330000E+03 0.  0.
<mgrwt>
<rscale>  0 0.88856214E+03</rscale>
<asrwt>0</asrwt>
<pdfrwt beam="1">  1        1 0.13557440E+00 0.95708458E+03</pdfrwt>
<pdfrwt beam="2">  1       -1 0.15995347E+00 0.95708458E+03</pdfrwt>
<totfact> 0.55563496E+00</totfact>
</mgrwt>
</event>
<event>
 4    1  0.2514307E-008  0.7813505E+03  0.7818608E-02  0.9752674E-01
         -1   -1    0    0    0  501 -0.00000000000E+00  0.00000000000E+00  0.67480980173E+03  0.67480980175E+03  0.50400000000E-02 0.  1.
          1   -1    0    0  501    0  0.00000000000E+00 -0.00000000000E+00 -0.59286667247E+03  0.59286667249E+03  0.50400000000E-02 0. -1.
    8880023    1    1    2    0    0 -0.24502546290E+03  0.34155672208E+03  0.19699858418E+03  0.80580215953E+03  0.65864270000E+03 0.  1.
    8880022    1    1    2    0    0  0.24502546290E+03 -0.34155672208E+03 -0.11505545492E+03  0.46187431471E+03  0.15294330000E+03 0.  0.
<mgrwt>
<rscale>  0 0.67965364E+03</rscale>
<asrwt>0</asrwt>
<pdfrwt beam="1">  1        1 0.91210257E-01 0.78135055E+03</pdfrwt>
<pdfrwt beam="2">  1       -1 0.10381689E+00 0.78135055E+03</pdfrwt>
<totfact> 0.31100670E+01</totfact>
</mgrwt>
</event>
<event>
 4    1  0.2514307E-008  0.9017248E+03  0.7818608E-02  0.9523268E-01
          1   -1    0    0  501    0  0.00000000000E+00  0.00000000000E+00  0.11818803829E+04  0.11818803829E+04  0.50400000000E-02 0. -1.
         -1   -1    0    0    0  501 -0.00000000000E+00 -0.00000000000E+00 -0.90432941136E+03  0.90432941137E+03  0.50400000000E-02 0.  1.
    8880023    1    1    2    0    0  0.45750395606E+03  0.41229552090E+03 -0.54017619029E+03  0.10511412794E+04  0.65864270000E+03 0.  0.
    8880022    1    1    2    0    0 -0.45750395606E+03 -0.41229552090E+03  0.81772716184E+03  0.10350685149E+04  0.15294330000E+03 0.  0.
<mgrwt>
<rscale>  0 0.82589866E+03</rscale>
<asrwt>0</asrwt>
<pdfrwt beam="1">  1        1 0.18182775E+00 0.90172483E+03</pdfrwt>
<pdfrwt beam="2">  1       -1 0.13912760E+00 0.90172483E+03</pdfrwt>
<totfact> 0.47676467E+00</totfact>
</mgrwt>
</event>
<event>
 4    1  0.2514307E-008  0.7006160E+03  0.7818608E-02  0.9994655E-01
          1   -1    0    0  501    0  0.00000000000E+00  0.00000000000E+00  0.69933896149E+03  0.69933896151E+03  0.50400000000E-02 0. -1.
         -1   -1    0    0    0  501 -0.00000000000E+00 -0.00000000000E+00 -0.45922572921E+03  0.45922572923E+03  0.50400000000E-02 0.  1.
    8880023    1    1    2    0    0 -0.21276787487E+03  0.10854674975E+03 -0.10869417231E+03  0.70899731651E+03  0.65864270000E+03 0.  1.
    8880022    1    1    2    0    0  0.21276787487E+03 -0.10854674975E+03  0.34880740460E+03  0.44956737423E+03  0.15294330000E+03 0.  0.
<mgrwt>
<rscale>  0 0.55885210E+03</rscale>
<asrwt>0</asrwt>
<pdfrwt beam="1">  1        1 0.10759061E+00 0.70061599E+03</pdfrwt>
<pdfrwt beam="2">  1       -1 0.70650112E-01 0.70061599E+03</pdfrwt>
<totfact> 0.56678406E+01</totfact>
</mgrwt>
</event>
<event>
 4    1  0.2514307E-008  0.1623850E+04  0.7818608E-02  0.8826796E-01
          1   -1    0    0  501    0  0.00000000000E+00  0.00000000000E+00  0.21676485892E+04  0.21676485892E+04  0.50400000000E-02 0. -1.
         -1   -1    0    0    0  501 -0.00000000000E+00 -0.00000000000E+00 -0.14156451590E+04  0.14156451590E+04  0.50400000000E-02 0.  1.
    8880023    1    1    2    0    0 -0.54988347236E+03  0.13786613592E+04  0.12070330592E+04  0.20233185584E+04  0.65864270000E+03 0. -1.
    8880022    1    1    2    0    0  0.54988347236E+03 -0.13786613592E+04 -0.45502962891E+03  0.15599751898E+04  0.15294330000E+03 0.  0.
<mgrwt>
<rscale>  0 0.15898699E+04</rscale>
<asrwt>0</asrwt>
<pdfrwt beam="1">  1        1 0.33348440E+00 0.16238501E+04</pdfrwt>
<pdfrwt beam="2">  1       -1 0.21779156E+00 0.16238501E+04</pdfrwt>
<totfact> 0.24302358E-01</totfact>
</mgrwt>
</event>
<event>
 4    1  0.2514307E-008  0.1035989E+04  0.7818608E-02  0.9335917E-01
          1   -1    0    0  501    0  0.00000000000E+00  0.00000000000E+00  0.16665932761E+04  0.16665932761E+04  0.50400000000E-02 0. -1.
         -1   -1    0    0    0  501 -0.00000000000E+00 -0.00000000000E+00 -0.83617759798E+03  0.83617759799E+03  0.50400000000E-02 0.  1.
    8880023    1    1    2    0    0  0.77992228638E+03  0.17659041026E+03 -0.32817436101E+03  0.10867251554E+04  0.65864270000E+03 0.  1.
    8880022    1    1    2    0    0 -0.77992228638E+03 -0.17659041026E+03  0.11585900391E+04  0.14160457187E+04  0.15294330000E+03 0. -1.
<mgrwt>
<rscale>  0 0.97542444E+03</rscale>
<asrwt>0</asrwt>
<pdfrwt beam="1">  1        1 0.25639896E+00 0.10359890E+04</pdfrwt>
<pdfrwt beam="2">  1       -1 0.12864271E+00 0.10359890E+04</pdfrwt>
<totfact> 0.26215575E+00</totfact>
</mgrwt>
</event>
<event>
 4    1  0.2514307E-008  0.7344577E+03  0.7818608E-02  0.9876396E-01
         -1   -1    0    0    0  501 -0.00000000000E+00  0.00000000000E+00  0.59527543905E+03  0.59527543908E+03  0.50400000000E-02 0.  1.
          1   -1    0    0  501    0  0.00000000000E+00 -0.00000000000E+00 -0.92529967173E+03  0.92529967174E+03  0.50400000000E-02 0. -1.
    8880023    1    1    2    0    0 -0.60837577868E+01  0.32493210848E+03  0.30159679245E+03  0.79397022533E+03  0.65864270000E+03 0.  0.
    8880022    1    1    2    0    0  0.60837577868E+01 -0.32493210848E+03 -0.63162102512E+03  0.72660488549E+03  0.15294330000E+03 0.  0.
<mgrwt>
<rscale>  0 0.61419010E+03</rscale>
<asrwt>0</asrwt>
<pdfrwt beam="1">  1        1 0.14235380E+00 0.73445769E+03</pdfrwt>
<pdfrwt beam="2">  1       -1 0.91580837E-01 0.73445769E+03</pdfrwt>
<totfact> 0.20775654E+01</totfact>
</mgrwt>
</event>
<event>
 4    1  0.2514307E-008  0.1433106E+04  0.7818608E-02  0.8958376E-01
         -1   -1    0    0    0  501 -0.00000000000E+00  0.00000000000E+00  0.76738732222E+03  0.76738732224E+03  0.50400000000E-02 0.  1.
          1   -1    0    0  501    0  0.00000000000E+00 -0.00000000000E+00 -0.26125281297E+04  0.26125281297E+04  0.50400000000E-02 0. -1.
    8880023    1    1    2    0    0  0.12280187895E+04  0.33459482474E+03 -0.14494177081E+04  0.20382850004E+04  0.65864270000E+03 0.  0.
    8880022    1    1    2    0    0 -0.12280187895E+04 -0.33459482474E+03 -0.39572309936E+03  0.13416304515E+04  0.15294330000E+03 0.  0.
<mgrwt>
<rscale>  0 0.13937213E+04</rscale>
<asrwt>0</asrwt>
<pdfrwt beam="1">  1        1 0.40192740E+00 0.14331064E+04</pdfrwt>
<pdfrwt beam="2">  1       -1 0.11805959E+00 0.14331064E+04</pdfrwt>
<totfact> 0.70048774E-01</totfact>
</mgrwt>
</event>
<event>
 4    1  0.2514307E-008  0.7440982E+03  0.7818608E-02  0.9848166E-01
          1   -1    0    0  501    0  0.00000000000E+00  0.00000000000E+00  0.13826142730E+03  0.13826142739E+03  0.50400000000E-02 0. -1.
         -1   -1    0    0    0  501 -0.00000000000E+00 -0.00000000000E+00 -0.22994664159E+04  0.22994664159E+04  0.50400000000E-02 0.  1.
    8880023    1    1    2    0    0  0.14144237159E+03 -0.31601573379E+03 -0.13197955964E+04  0.15151047855E+04  0.65864270000E+03 0.  1.
    8880022    1    1    2    0    0 -0.14144237159E+03  0.31601573379E+03 -0.84140939213E+03  0.92262305773E+03  0.15294330000E+03 0.  0.
<mgrwt>
<rscale>  0 0.62840501E+03</rscale>
<asrwt>0</asrwt>
<pdfrwt beam="1">  1        1 0.21270991E-01 0.74409818E+03</pdfrwt>
<pdfrwt beam="2">  1       -1 0.35376404E+00 0.74409818E+03</pdfrwt>
<totfact> 0.37419355E+00</totfact>
</mgrwt>
</event>
<event>
 4    1  0.2514307E-008  0.9611791E+03  0.7818608E-02  0.9434209E-01
          1   -1    0    0  501    0  0.00000000000E+00  0.00000000000E+00  0.18562305412E+04  0.18562305412E+04  0.50400000000E-02 0. -1.
         -1   -1    0    0    0  501 -0.00000000000E+00 -0.00000000000E+00 -0.10113134519E+04  0.10113134519E+04  0.50400000000E-02 0.  1.
    8880023    1    1    2    0    0  0.64454348927E+03 -0.27316431799E+03 -0.68354957784E+03  0.11794512647E+04  0.65864270000E+03 0.  1.
    8880022    1    1    2    0    0 -0.64454348927E+03  0.27316431799E+03  0.15284666671E+04  0.16880927284E+04  0.15294330000E+03 0.  0.
<mgrwt>
<rscale>  0 0.89313099E+03</rscale>
<asrwt>0</asrwt>
<pdfrwt beam="1">  1        1 0.28557393E+00 0.96117910E+03</pdfrwt>
<pdfrwt beam="2">  1       -1 0.15558669E+00 0.96117910E+03</pdfrwt>
<totfact> 0.11965485E+00</totfact>
</mgrwt>
</event>
<event>
 4    1  0.2514307E-008  0.1275154E+04  0.7818608E-02  0.9087319E-01
          1   -1    0    0  501    0  0.00000000000E+00  0.00000000000E+00  0.18104078528E+04  0.18104078528E+04  0.50400000000E-02 0. -1.
         -1   -1    0    0    0  501 -0.00000000000E+00 -0.00000000000E+00 -0.10707318073E+04  0.10707318073E+04  0.50400000000E-02 0.  1.
    8880023    1    1    2    0    0  0.66556307179E+03 -0.86558230015E+03 -0.35891345919E+03  0.13247022301E+04  0.65864270000E+03 0.  1.
    8880022    1    1    2    0    0 -0.66556307179E+03  0.86558230015E+03  0.10985895046E+04  0.15564374300E+04  0.15294330000E+03 0.  0.
<mgrwt>
<rscale>  0 0.12296194E+04</rscale>
<asrwt>0</asrwt>
<pdfrwt beam="1">  1        1 0.27852429E+00 0.12751538E+04</pdfrwt>
<pdfrwt beam="2">  1       -1 0.16472797E+00 0.12751538E+04</pdfrwt>
<totfact> 0.10492409E+00</totfact>
</mgrwt>
</event>
<event>
 4    1  0.2514307E-008  0.8041452E+03  0.7818608E-02  0.9701904E-01
         -1   -1    0    0    0  501 -0.00000000000E+00  0.00000000000E+00  0.29579378678E+03  0.29579378682E+03  0.50400000000E-02 0.  1.
          1   -1    0    0  501    0  0.00000000000E+00 -0.00000000000E+00 -0.21025969048E+04  0.21025969048E+04  0.50400000000E-02 0. -1.
    8880023    1    1    2    0    0  0.43316225667E+03  0.15877559166E+03 -0.37680131468E+03  0.88804767108E+03  0.65864270000E+03 0.  1.
    8880022    1    1    2    0    0 -0.43316225667E+03 -0.15877559166E+03 -0.14300018033E+04  0.15103430205E+04  0.15294330000E+03 0.  0.
<mgrwt>
<rscale>  0 0.70903541E+03</rscale>
<asrwt>0</asrwt>
<pdfrwt beam="1">  1        1 0.32347644E+00 0.80414516E+03</pdfrwt>
<pdfrwt beam="2">  1       -1 0.45506738E-01 0.80414516E+03</pdfrwt>
<totfact> 0.12628109E+01</totfact>
</mgrwt>
</event>
<event>
 4    1  0.2514307E-008  0.8248557E+03  0.7818608E-02  0.9659426E-01
          1   -1    0    0  501    0  0.00000000000E+00  0.00000000000E+00  0.47132895641E+03  0.47132895644E+03  0.50400000000E-02 0. -1.
         -1   -1    0    0    0  501 -0.00000000000E+00 -0.00000000000E+00 -0.18609077082E+04  0.18609077082E+04  0.50400000000E-02 0.  1.
    8880023    1    1    2    0    0 -0.49448584923E+03 -0.45391767417E+02 -0.15771526878E+04  0.17798307432E+04  0.65864270000E+03 0.  1.
    8880022    1    1    2    0    0  0.49448584923E+03  0.45391767417E+02  0.18757393593E+03  0.55240592149E+03  0.15294330000E+03 0.  0.
<mgrwt>
<rscale>  0 0.73484810E+03</rscale>
<asrwt>0</asrwt>
<pdfrwt beam="1">  1        1 0.72512148E-01 0.82485567E+03</pdfrwt>
<pdfrwt beam="2">  1       -1 0.28629349E+00 0.82485567E+03</pdfrwt>
<totfact> 0.20205330E+00</totfact>
</mgrwt>
</event>
<event>
 4    1  0.2514307E-008  0.6934857E+03  0.7818608E-02  0.1002538E+00
         -1   -1    0    0    0  501 -0.00000000000E+00  0.00000000000E+00  0.36824991713E+03  0.36824991716E+03  0.50400000000E-02 0.  1.
          1   -1    0    0  501    0  0.00000000000E+00 -0.00000000000E+00 -0.14928400984E+04  0.14928400984E+04  0.50400000000E-02 0. -1.
    8880023    1    1    2    0    0  0.19387428388E+03 -0.97595791134E+02  0.12309540859E+02  0.69359491597E+03  0.65864270000E+03 0.  1.
    8880022    1    1    2    0    0 -0.19387428388E+03  0.97595791134E+02 -0.11368997221E+04  0.11674950996E+04  0.15294330000E+03 0.  0.
<mgrwt>
<rscale>  0 0.54551250E+03</rscale>
<asrwt>0</asrwt>
<pdfrwt beam="1">  1        1 0.22966770E+00 0.69348568E+03</pdfrwt>
<pdfrwt beam="2">  1       -1 0.56653834E-01 0.69348568E+03</pdfrwt>
<totfact> 0.21742480E+01</totfact>
</mgrwt>
</event>
<event>
 4    1  0.2514307E-008  0.1145441E+04  0.7818608E-02  0.9212074E-01
          1   -1    0    0  501    0  0.00000000000E+00  0.00000000000E+00  0.24931315299E+04  0.24931315299E+04  0.50400000000E-02 0. -1.
         -1   -1    0    0    0  501 -0.00000000000E+00 -0.00000000000E+00 -0.62098108471E+03  0.62098108473E+03  0.50400000000E-02 0.  1.
    8880023    1    1    2    0    0 -0.73780256049E+03  0.57781643982E+03  0.16037101682E+03  0.11566129541E+04  0.65864270000E+03 0.  1.
    8880022    1    1    2    0    0  0.73780256049E+03 -0.57781643982E+03  0.17117794283E+04  0.19574996605E+04  0.15294330000E+03 0.  0.
<mgrwt>
<rscale>  0 0.10929674E+04</rscale>
<asrwt>0</asrwt>
<pdfrwt beam="1">  1        1 0.38355869E+00 0.11454408E+04</pdfrwt>
<pdfrwt beam="2">  1       -1 0.95535553E-01 0.11454408E+04</pdfrwt>
<totfact> 0.14446712E+00</totfact>
</mgrwt>
</event>
<event>
 4    1  0.2514307E-008  0.1065261E+04  0.7818608E-02  0.9300756E-01
         -1   -1    0    0    0  501 -0.00000000000E+00  0.00000000000E+00  0.66040167825E+03  0.66040167827E+03  0.50400000000E-02 0.  1.
          1   -1    0    0  501    0  0.00000000000E+00 -0.00000000000E+00 -0.18651343173E+04  0.18651343174E+04  0.50400000000E-02 0. -1.
    8880023    1    1    2    0    0  0.60872992267E+03 -0.57482113136E+03 -0.18318240679E+02  0.10654187984E+04  0.65864270000E+03 0.  0.
    8880022    1    1    2    0    0 -0.60872992267E+03  0.57482113136E+03 -0.11864143984E+04  0.14601171972E+04  0.15294330000E+03 0.  0.
<mgrwt>
<rscale>  0 0.10071326E+04</rscale>
<asrwt>0</asrwt>
<pdfrwt beam="1">  1        1 0.28694374E+00 0.10652613E+04</pdfrwt>
<pdfrwt beam="2">  1       -1 0.10160026E+00 0.10652613E+04</pdfrwt>
<totfact> 0.33841692E+00</totfact>
</mgrwt>
</event>
<event>
 4    1  0.2514307E-008  0.1693795E+04  0.7818608E-02  0.8783678E-01
          1   -1    0    0  501    0  0.00000000000E+00  0.00000000000E+00  0.39735351643E+04  0.39735351643E+04  0.50400000000E-02 0. -1.
         -1   -1    0    0    0  501 -0.00000000000E+00 -0.00000000000E+00 -0.87864846045E+03  0.87864846046E+03  0.50400000000E-02 0.  1.
    8880023    1    1    2    0    0  0.44168873508E+03  0.14966766018E+04  0.27762713831E+04  0.32521720108E+04  0.65864270000E+03 0.  0.
    8880022    1    1    2    0    0 -0.44168873508E+03 -0.14966766018E+04  0.31861532075E+03  0.16000116139E+04  0.15294330000E+03 0.  0.
<mgrwt>
<rscale>  0 0.16614214E+04</rscale>
<asrwt>0</asrwt>
<pdfrwt beam="1">  1        1 0.61131309E+00 0.16937946E+04</pdfrwt>
<pdfrwt beam="2">  1       -1 0.13517669E+00 0.16937946E+04</pdfrwt>
<totfact> 0.43645092E-02</totfact>
</mgrwt>
</event>
<event>
 4    1  0.2514307E-008  0.1028968E+04  0.7818608E-02  0.9344603E-01
         -1   -1    0    0    0  501 -0.00000000000E+00  0.00000000000E+00  0.58768699858E+03  0.58768699861E+03  0.50400000000E-02 0.  1.
          1   -1    0    0  501    0  0.00000000000E+00 -0.00000000000E+00 -0.29870469877E+04  0.29870469877E+04  0.50400000000E-02 0. -1.
    8880023    1    1    2    0    0  0.55730681028E+03  0.56069004962E+03  0.15587078084E+02  0.10290856990E+04  0.65864270000E+03 0.  0.
    8880022    1    1    2    0    0 -0.55730681028E+03 -0.56069004962E+03 -0.24149470672E+04  0.25456482873E+04  0.15294330000E+03 0. -1.
<mgrwt>
<rscale>  0 0.96778296E+03</rscale>
<asrwt>0</asrwt>
<pdfrwt beam="1">  1        1 0.45954568E+00 0.10289676E+04</pdfrwt>
<pdfrwt beam="2">  1       -1 0.90413386E-01 0.10289676E+04</pdfrwt>
<totfact> 0.74715400E-01</totfact>
</mgrwt>
</event>
<event>
 4    1  0.2514307E-008  0.9126286E+03  0.7818608E-02  0.9506055E-01
         -1   -1    0    0    0  501 -0.00000000000E+00  0.00000000000E+00  0.18852551749E+04  0.18852551749E+04  0.50400000000E-02 0.  1.
          1   -1    0    0  501    0  0.00000000000E+00 -0.00000000000E+00 -0.10526546108E+04  0.10526546108E+04  0.50400000000E-02 0. -1.
    8880023    1    1    2    0    0 -0.61194280982E+03 -0.15686553278E+03  0.16548286416E+04  0.18898012692E+04  0.65864270000E+03 0.  0.
    8880022    1    1    2    0    0  0.61194280982E+03  0.15686553278E+03 -0.82222807748E+03  0.10481085165E+04  0.15294330000E+03 0.  0.
<mgrwt>
<rscale>  0 0.83838860E+03</rscale>
<asrwt>0</asrwt>
<pdfrwt beam="1">  1        1 0.16194687E+00 0.91262862E+03</pdfrwt>
<pdfrwt beam="2">  1       -1 0.29003925E+00 0.91262862E+03</pdfrwt>
<totfact> 0.54252377E-01</totfact>
</mgrwt>
</event>
<event>
 4    1  0.2514307E-008  0.1074011E+04  0.7818608E-02  0.9290558E-01
         -1   -1    0    0    0  501 -0.00000000000E+00  0.00000000000E+00  0.92805480148E+03  0.92805480150E+03  0.50400000000E-02 0.  1.
          1   -1    0    0  501    0  0.00000000000E+00 -0.00000000000E+00 -0.12449805745E+04  0.12449805745E+04  0.50400000000E-02 0. -1.
    8880023    1    1    2    0    0  0.32393856324E+03 -0.78406212762E+03  0.29749765878E+03  0.11144526351E+04  0.65864270000E+03 0.  0.
    8880022    1    1    2    0    0 -0.32393856324E+03  0.78406212762E+03 -0.61442343183E+03  0.10585827409E+04  0.15294330000E+03 0.  0.
<mgrwt>
<rscale>  0 0.10165672E+04</rscale>
<asrwt>0</asrwt>
<pdfrwt beam="1">  1        1 0.19153547E+00 0.10740111E+04</pdfrwt>
<pdfrwt beam="2">  1       -1 0.14277766E+00 0.10740111E+04</pdfrwt>
<totfact> 0.39241311E+00</totfact>
</mgrwt>
</event>
<event>
 4    1  0.2514307E-008  0.8074733E+03  0.7818608E-02  0.9694864E-01
         -1   -1    0    0    0  501 -0.00000000000E+00  0.00000000000E+00  0.64436501830E+03  0.64436501832E+03  0.50400000000E-02 0.  1.
          1   -1    0    0  501    0  0.00000000000E+00 -0.00000000000E+00 -0.14094403375E+04  0.14094403375E+04  0.50400000000E-02 0. -1.
    8880023    1    1    2    0    0  0.17712872447E+03 -0.43223650264E+03  0.31531977653E+03  0.86685624355E+03  0.65864270000E+03 0.  0.
    8880022    1    1    2    0    0 -0.17712872447E+03  0.43223650264E+03 -0.10803950957E+04  0.11869491123E+04  0.15294330000E+03 0.  0.
<mgrwt>
<rscale>  0 0.71323402E+03</rscale>
<asrwt>0</asrwt>
<pdfrwt beam="1">  1        1 0.21683697E+00 0.80747333E+03</pdfrwt>
<pdfrwt beam="2">  1       -1 0.99133080E-01 0.80747333E+03</pdfrwt>
<totfact> 0.75757156E+00</totfact>
</mgrwt>
</event>
<event>
 4    1  0.2514307E-008  0.6991833E+03  0.7818608E-02  0.1000061E+00
         -1   -1    0    0    0  501 -0.00000000000E+00  0.00000000000E+00  0.55308755390E+03  0.55308755392E+03  0.50400000000E-02 0.  1.
          1   -1    0    0  501    0  0.00000000000E+00 -0.00000000000E+00 -0.13225969135E+04  0.13225969135E+04  0.50400000000E-02 0. -1.
    8880023    1    1    2    0    0 -0.23380892484E+03 -0.19504680394E+02  0.30679970845E+03  0.76353343952E+03  0.65864270000E+03 0.  1.
    8880022    1    1    2    0    0  0.23380892484E+03  0.19504680394E+02 -0.10763090680E+04  0.11121510279E+04  0.15294330000E+03 0.  0.
<mgrwt>
<rscale>  0 0.55623661E+03</rscale>
<asrwt>0</asrwt>
<pdfrwt beam="1">  1        1 0.20347645E+00 0.69918328E+03</pdfrwt>
<pdfrwt beam="2">  1       -1 0.85090393E-01 0.69918328E+03</pdfrwt>
<totfact> 0.12413797E+01</totfact>
</mgrwt>
</event>
<event>
 4    1  0.2514307E-008  0.7399779E+03  0.7818608E-02  0.9860012E-01
         -1   -1    0    0    0  501 -0.00000000000E+00  0.00000000000E+00  0.80315695608E+03  0.80315695610E+03  0.50400000000E-02 0.  1.
          1   -1    0    0  501    0  0.00000000000E+00 -0.00000000000E+00 -0.96469405168E+03  0.96469405170E+03  0.50400000000E-02 0. -1.
    8880023    1    1    2    0    0 -0.33391335287E+03 -0.47527982113E+02  0.57919624963E+03  0.93969970637E+03  0.65864270000E+03 0.  1.
    8880022    1    1    2    0    0  0.33391335287E+03  0.47527982113E+02 -0.74073334523E+03  0.82815130143E+03  0.15294330000E+03 0.  0.
<mgrwt>
<rscale>  0 0.62239057E+03</rscale>
<asrwt>0</asrwt>
<pdfrwt beam="1">  1        1 0.14841447E+00 0.73997787E+03</pdfrwt>
<pdfrwt beam="2">  1       -1 0.12356261E+00 0.73997787E+03</pdfrwt>
<totfact> 0.96074964E+00</totfact>
</mgrwt>
</event>
<event>
 4    1  0.2514307E-008  0.7722965E+03  0.7818608E-02  0.9774254E-01
         -1   -1    0    0    0  501 -0.00000000000E+00  0.00000000000E+00  0.16364989481E+04  0.16364989481E+04  0.50400000000E-02 0.  1.
          1   -1    0    0  501    0  0.00000000000E+00 -0.00000000000E+00 -0.60959412128E+03  0.60959412130E+03  0.50400000000E-02 0. -1.
    8880023    1    1    2    0    0 -0.10151156499E+03  0.39029108176E+03  0.14494110084E+04  0.16423258519E+04  0.65864270000E+03 0.  1.
    8880022    1    1    2    0    0  0.10151156499E+03 -0.39029108176E+03 -0.42250618164E+03  0.60376721745E+03  0.15294330000E+03 0.  0.
<mgrwt>
<rscale>  0 0.66762717E+03</rscale>
<asrwt>0</asrwt>
<pdfrwt beam="1">  1        1 0.93783711E-01 0.77229653E+03</pdfrwt>
<pdfrwt beam="2">  1       -1 0.25176907E+00 0.77229653E+03</pdfrwt>
<totfact> 0.23657090E+00</totfact>
</mgrwt>
</event>
<event>
 4    1  0.2514307E-008  0.7993094E+03  0.7818608E-02  0.9712291E-01
         -1   -1    0    0    0  501 -0.00000000000E+00  0.00000000000E+00  0.12122441697E+04  0.12122441697E+04  0.50400000000E-02 0.  1.
          1   -1    0    0  501    0  0.00000000000E+00 -0.00000000000E+00 -0.12941829796E+04  0.12941829796E+04  0.50400000000E-02 0. -1.
    8880023    1    1    2    0    0 -0.23299960790E+03  0.38832525960E+03  0.10255151447E+04  0.13002218437E+04  0.65864270000E+03 0.  0.
    8880022    1    1    2    0    0  0.23299960790E+03 -0.38832525960E+03 -0.11074539547E+04  0.12062053056E+04  0.15294330000E+03 0.  0.
<mgrwt>
<rscale>  0 0.70289669E+03</rscale>
<asrwt>0</asrwt>
<pdfrwt beam="1">  1        1 0.19910507E+00 0.79930941E+03</pdfrwt>
<pdfrwt beam="2">  1       -1 0.18649910E+00 0.79930941E+03</pdfrwt>
<totfact> 0.17713584E+00</totfact>
</mgrwt>
</event>
<event>
 4    1  0.2514307E-008  0.7473719E+03  0.7818608E-02  0.9838971E-01
         -1   -1    0    0    0  501 -0.00000000000E+00  0.00000000000E+00  0.16491006214E+03  0.16491006222E+03  0.50400000000E-02 0.  1.
          1   -1    0    0  501    0  0.00000000000E+00 -0.00000000000E+00 -0.21322746899E+04  0.21322746899E+04  0.50400000000E-02 0. -1.
    8880023    1    1    2    0    0 -0.58037541351E+02  0.34840529022E+03 -0.94534345902E+03  0.12050888201E+04  0.65864270000E+03 0.  0.
    8880022    1    1    2    0    0  0.58037541351E+02 -0.34840529022E+03 -0.10220211688E+04  0.10920959321E+04  0.15294330000E+03 0.  0.
<mgrwt>
<rscale>  0 0.63312421E+03</rscale>
<asrwt>0</asrwt>
<pdfrwt beam="1">  1        1 0.32804224E+00 0.74737193E+03</pdfrwt>
<pdfrwt beam="2">  1       -1 0.25370780E-01 0.74737193E+03</pdfrwt>
<totfact> 0.34358320E+01</totfact>
</mgrwt>
</event>
<event>
 4    1  0.2514307E-008  0.7639833E+03  0.7818608E-02  0.9794902E-01
          1   -1    0    0  501    0  0.00000000000E+00  0.00000000000E+00  0.43190730833E+03  0.43190730836E+03  0.50400000000E-02 0. -1.
         -1   -1    0    0    0  501 -0.00000000000E+00 -0.00000000000E+00 -0.15055791610E+04  0.15055791610E+04  0.50400000000E-02 0.  1.
    8880023    1    1    2    0    0 -0.25038630164E+03 -0.29524066794E+03 -0.12662412373E+04  0.14788635601E+04  0.65864270000E+03 0.  1.
    8880022    1    1    2    0    0  0.25038630164E+03  0.29524066794E+03  0.19256938459E+03  0.45862290932E+03  0.15294330000E+03 0.  0.
<mgrwt>
<rscale>  0 0.65636846E+03</rscale>
<asrwt>0</asrwt>
<pdfrwt beam="1">  1        1 0.66447279E-01 0.76398335E+03</pdfrwt>
<pdfrwt beam="2">  1       -1 0.23162756E+00 0.76398335E+03</pdfrwt>
<totfact> 0.51623191E+00</totfact>
</mgrwt>
</event>
<event>
 4    1  0.2514307E-008  0.8865637E+03  0.7818608E-02  0.9547955E-01
         -1   -1    0    0    0  501 -0.00000000000E+00  0.00000000000E+00  0.50013392782E+03  0.50013392785E+03  0.50400000000E-02 0.  1.
          1   -1    0    0  501    0  0.00000000000E+00 -0.00000000000E+00 -0.22944454487E+04  0.22944454487E+04  0.50400000000E-02 0. -1.
    8880023    1    1    2    0    0  0.57924405378E+03 -0.12907844069E+03  0.12511801591E+02  0.88665194362E+03  0.65864270000E+03 0.  1.
    8880022    1    1    2    0    0 -0.57924405378E+03  0.12907844069E+03 -0.18068233224E+04  0.19079274329E+04  0.15294330000E+03 0.  0.
<mgrwt>
<rscale>  0 0.80838781E+03</rscale>
<asrwt>0</asrwt>
<pdfrwt beam="1">  1        1 0.35299160E+00 0.88656366E+03</pdfrwt>
<pdfrwt beam="2">  1       -1 0.76943682E-01 0.88656366E+03</pdfrwt>
<totfact> 0.32850543E+00</totfact>
</mgrwt>
</event>
<event>
 4    1  0.2514307E-008  0.1289260E+04  0.7818608E-02  0.9074890E-01
         -1   -1    0    0    0  501 -0.00000000000E+00  0.00000000000E+00  0.18555797694E+04  0.18555797694E+04  0.50400000000E-02 0.  1.
          1   -1    0    0  501    0  0.00000000000E+00 -0.00000000000E+00 -0.19210447982E+04  0.19210447982E+04  0.50400000000E-02 0. -1.
    8880023    1    1    2    0    0  0.80121057663E+03 -0.76579578367E+03  0.14193418713E+04  0.19174783243E+04  0.65864270000E+03 0.  0.
    8880022    1    1    2    0    0 -0.80121057663E+03  0.76579578367E+03 -0.14848069001E+04  0.18591462433E+04  0.15294330000E+03 0.  0.
<mgrwt>
<rscale>  0 0.12443603E+04</rscale>
<asrwt>0</asrwt>
<pdfrwt beam="1">  1        1 0.29554535E+00 0.12892602E+04</pdfrwt>
<pdfrwt beam="2">  1       -1 0.28547381E+00 0.12892602E+04</pdfrwt>
<totfact> 0.13426902E-01</totfact>
</mgrwt>
</event>
<event>
 4    1  0.2514307E-008  0.9217369E+03  0.7818608E-02  0.9492001E-01
         -1   -1    0    0    0  501 -0.00000000000E+00  0.00000000000E+00  0.78070308678E+03  0.78070308680E+03  0.50400000000E-02 0.  1.
          1   -1    0    0  501    0  0.00000000000E+00 -0.00000000000E+00 -0.15196454590E+04  0.15196454590E+04  0.50400000000E-02 0. -1.
    8880023    1    1    2    0    0  0.47509784176E+03  0.43597111943E+03  0.38232326132E+03  0.99788278802E+03  0.65864270000E+03 0.  0.
    8880022    1    1    2    0    0 -0.47509784176E+03 -0.43597111943E+03 -0.11212656335E+04  0.13024657577E+04  0.15294330000E+03 0.  0.
<mgrwt>
<rscale>  0 0.84876139E+03</rscale>
<asrwt>0</asrwt>
<pdfrwt beam="1">  1        1 0.23379161E+00 0.92173694E+03</pdfrwt>
<pdfrwt beam="2">  1       -1 0.12010817E+00 0.92173694E+03</pdfrwt>
<totfact> 0.39790817E+00</totfact>
</mgrwt>
</event>
<event>
 4    1  0.2514307E-008  0.6642259E+03  0.7818608E-02  0.1020192E+00
         -1   -1    0    0    0  501 -0.00000000000E+00  0.00000000000E+00  0.99277465842E+03  0.99277465844E+03  0.50400000000E-02 0.  1.
          1   -1    0    0  501    0  0.00000000000E+00 -0.00000000000E+00 -0.95109604590E+03  0.95109604591E+03  0.50400000000E-02 0. -1.
    8880023    1    1    2    0    0 -0.85237115911E+02 -0.10976444565E+02  0.87146561455E+03  0.10957410150E+04  0.65864270000E+03 0.  1.
    8880022    1    1    2    0    0  0.85237115911E+02  0.10976444565E+02 -0.82978700202E+03  0.84812968938E+03  0.15294330000E+03 0.  0.
<mgrwt>
<rscale>  0 0.47617438E+03</rscale>
<asrwt>0</asrwt>
<pdfrwt beam="1">  1        1 0.14632247E+00 0.66422591E+03</pdfrwt>
<pdfrwt beam="2">  1       -1 0.15273456E+00 0.66422591E+03</pdfrwt>
<totfact> 0.57694559E+00</totfact>
</mgrwt>
</event>
<event>
 4    1  0.2514307E-008  0.8365278E+03  0.7818608E-02  0.9636763E-01
         -1   -1    0    0    0  501 -0.00000000000E+00  0.00000000000E+00  0.18310047283E+04  0.18310047284E+04  0.50400000000E-02 0.  1.
          1   -1    0    0  501    0  0.00000000000E+00 -0.00000000000E+00 -0.97628242559E+03  0.97628242561E+03  0.50400000000E-02 0. -1.
    8880023    1    1    2    0    0  0.92305947555E+02  0.50739342774E+03  0.16483887713E+04  0.18485032394E+04  0.65864270000E+03 0.  1.
    8880022    1    1    2    0    0 -0.92305947555E+02 -0.50739342774E+03 -0.79366646856E+03  0.95878391455E+03  0.15294330000E+03 0.  0.
<mgrwt>
<rscale>  0 0.74910053E+03</rscale>
<asrwt>0</asrwt>
<pdfrwt beam="1">  1        1 0.15019730E+00 0.83652775E+03</pdfrwt>
<pdfrwt beam="2">  1       -1 0.28169303E+00 0.83652775E+03</pdfrwt>
<totfact> 0.71279393E-01</totfact>
</mgrwt>
</event>
<event>
 4    1  0.2514307E-008  0.1499350E+04  0.7818608E-02  0.8910095E-01
         -1   -1    0    0    0  501 -0.00000000000E+00  0.00000000000E+00  0.69376573863E+03  0.69376573865E+03  0.50400000000E-02 0.  1.
          1   -1    0    0  501    0  0.00000000000E+00 -0.00000000000E+00 -0.43351236009E+04  0.43351236009E+04  0.50400000000E-02 0. -1.
    8880023    1    1    2    0    0  0.12965624893E+04  0.36491887693E+03 -0.45612791606E+03  0.15671958900E+04  0.65864270000E+03 0.  0.
    8880022    1    1    2    0    0 -0.12965624893E+04 -0.36491887693E+03 -0.31852299462E+04  0.34616934495E+04  0.15294330000E+03 0.  0.
<mgrwt>
<rscale>  0 0.14620411E+04</rscale>
<asrwt>0</asrwt>
<pdfrwt beam="1">  1        1 0.66694208E+00 0.14993500E+04</pdfrwt>
<pdfrwt beam="2">  1       -1 0.10673319E+00 0.14993500E+04</pdfrwt>
<totfact> 0.37561633E-02</totfact>
</mgrwt>
</event>
<event>
 4    1  0.2514307E-008  0.9563024E+03  0.7818608E-02  0.9441104E-01
          1   -1    0    0  501    0  0.00000000000E+00  0.00000000000E+00  0.11833256416E+04  0.11833256416E+04  0.50400000000E-02 0. -1.
         -1   -1    0    0    0  501 -0.00000000000E+00 -0.00000000000E+00 -0.16208996911E+04  0.16208996911E+04  0.50400000000E-02 0.  1.
    8880023    1    1    2    0    0 -0.30750459381E+03 -0.62140560934E+03 -0.13460799383E+04  0.16511951468E+04  0.65864270000E+03 0.  0.
    8880022    1    1    2    0    0  0.30750459381E+03  0.62140560934E+03  0.90850588876E+03  0.11530301858E+04  0.15294330000E+03 0.  0.
<mgrwt>
<rscale>  0 0.88768839E+03</rscale>
<asrwt>0</asrwt>
<pdfrwt beam="1">  1        1 0.18205010E+00 0.95630236E+03</pdfrwt>
<pdfrwt beam="2">  1       -1 0.24936918E+00 0.95630236E+03</pdfrwt>
<totfact> 0.78587819E-01</totfact>
</mgrwt>
</event>
<event>
 4    1  0.2514307E-008  0.1339139E+04  0.7818608E-02  0.9032477E-01
         -1   -1    0    0    0  501 -0.00000000000E+00  0.00000000000E+00  0.15833336684E+04  0.15833336685E+04  0.50400000000E-02 0.  1.
          1   -1    0    0  501    0  0.00000000000E+00 -0.00000000000E+00 -0.14071365670E+04  0.14071365670E+04  0.50400000000E-02 0. -1.
    8880023    1    1    2    0    0 -0.35674283775E+01  0.11659627388E+04  0.89642856929E+03  0.16114826158E+04  0.65864270000E+03 0.  0.
    8880022    1    1    2    0    0  0.35674283775E+01 -0.11659627388E+04 -0.72023146785E+03  0.13789876197E+04  0.15294330000E+03 0.  0.
<mgrwt>
<rscale>  0 0.12963341E+04</rscale>
<asrwt>0</asrwt>
<pdfrwt beam="1">  1        1 0.21648255E+00 0.13391385E+04</pdfrwt>
<pdfrwt beam="2">  1       -1 0.24358979E+00 0.13391385E+04</pdfrwt>
<totfact> 0.56209452E-01</totfact>
</mgrwt>
</event>
<event>
 4    1  0.2514307E-008  0.7438767E+03  0.7818608E-02  0.9848795E-01
         -1   -1    0    0    0  501 -0.00000000000E+00  0.00000000000E+00  0.42557176853E+03  0.42557176856E+03  0.50400000000E-02 0.  1.
          1   -1    0    0  501    0  0.00000000000E+00 -0.00000000000E+00 -0.22068599683E+04  0.22068599683E+04  0.50400000000E-02 0. -1.
    8880023    1    1    2    0    0  0.32420010537E+03  0.12015234453E+03  0.66050594998E+02  0.74680330849E+03  0.65864270000E+03 0.  1.
    8880022    1    1    2    0    0 -0.32420010537E+03 -0.12015234453E+03 -0.18473387947E+04  0.18856284283E+04  0.15294330000E+03 0.  0.
<mgrwt>
<rscale>  0 0.62808385E+03</rscale>
<asrwt>0</asrwt>
<pdfrwt beam="1">  1        1 0.33951691E+00 0.74387667E+03</pdfrwt>
<pdfrwt beam="2">  1       -1 0.65472581E-01 0.74387667E+03</pdfrwt>
<totfact> 0.53728471E+00</totfact>
</mgrwt>
</event>
<event>
 4    1  0.2694258E-008  0.1427959E+04  0.7818608E-02  0.8962257E-01
          1   -1    0    0  501    0  0.00000000000E+00  0.00000000000E+00  0.22510358773E+04  0.22510358773E+04  0.50400000000E-02 0. -1.
         -1   -1    0    0    0  501 -0.00000000000E+00 -0.00000000000E+00 -0.19968296620E+04  0.19968296620E+04  0.50400000000E-02 0.  1.
    8880023    1    1    2    0    0 -0.12639072473E+04  0.88294223980E+02 -0.15049241596E+04  0.20745756993E+04  0.65864270000E+03 0.  0.
    8880022    1    1    2    0    0  0.12639072473E+04 -0.88294223980E+02  0.17591303750E+04  0.21732898400E+04  0.15294330000E+03 0.  0.
<mgrwt>
<rscale>  0 0.13884022E+04</rscale>
<asrwt>0</asrwt>
<pdfrwt beam="1">  1        1 0.34631321E+00 0.14279592E+04</pdfrwt>
<pdfrwt beam="2">  1       -1 0.30720456E+00 0.14279592E+04</pdfrwt>
<totfact> 0.56811258E-02</totfact>
</mgrwt>
</event>
<event>
 4    1  0.2514307E-008  0.7015079E+03  0.7818608E-02  0.9991003E-01
         -1   -1    0    0    0  501 -0.00000000000E+00  0.00000000000E+00  0.60309655249E+03  0.60309655252E+03  0.50400000000E-02 0.  1.
          1   -1    0    0  501    0  0.00000000000E+00 -0.00000000000E+00 -0.11040286635E+04  0.11040286635E+04  0.50400000000E-02 0. -1.
    8880023    1    1    2    0    0  0.43331486647E+02 -0.23754044425E+03  0.36815482040E+03  0.79224444361E+03  0.65864270000E+03 0.  0.
    8880022    1    1    2    0    0 -0.43331486647E+02  0.23754044425E+03 -0.86908693140E+03  0.91488077242E+03  0.15294330000E+03 0. -1.
<mgrwt>
<rscale>  0 0.56046522E+03</rscale>
<asrwt>0</asrwt>
<pdfrwt beam="1">  1        1 0.16985056E+00 0.70150787E+03</pdfrwt>
<pdfrwt beam="2">  1       -1 0.92784086E-01 0.70150787E+03</pdfrwt>
<totfact> 0.14760539E+01</totfact>
</mgrwt>
</event>
<event>
 4    1  0.2514307E-008  0.9265784E+03  0.7818608E-02  0.9484645E-01
         -1   -1    0    0    0  501 -0.00000000000E+00  0.00000000000E+00  0.15579146531E+04  0.15579146531E+04  0.50400000000E-02 0.  1.
          1   -1    0    0  501    0  0.00000000000E+00 -0.00000000000E+00 -0.26002189565E+04  0.26002189565E+04  0.50400000000E-02 0. -1.
    8880023    1    1    2    0    0 -0.15763296626E+03  0.63236797279E+03  0.13704179346E+04  0.16542650715E+04  0.65864270000E+03 0.  1.
    8880022    1    1    2    0    0  0.15763296626E+03 -0.63236797279E+03 -0.24127222380E+04  0.25038685381E+04  0.15294330000E+03 0.  0.
<mgrwt>
<rscale>  0 0.85425402E+03</rscale>
<asrwt>0</asrwt>
<pdfrwt beam="1">  1        1 0.40003369E+00 0.92657844E+03</pdfrwt>
<pdfrwt beam="2">  1       -1 0.23967918E+00 0.92657844E+03</pdfrwt>
<totfact> 0.97850044E-02</totfact>
</mgrwt>
</event>
<event>
 4    1  0.2514307E-008  0.9986955E+03  0.7818608E-02  0.9383266E-01
         -1   -1    0    0    0  501 -0.00000000000E+00  0.00000000000E+00  0.21243191522E+04  0.21243191522E+04  0.50400000000E-02 0.  1.
          1   -1    0    0  501    0  0.00000000000E+00 -0.00000000000E+00 -0.63895335083E+03  0.63895335085E+03  0.50400000000E-02 0. -1.
    8880023    1    1    2    0    0  0.21205024719E+03  0.72015074059E+03  0.16964468118E+04  0.19685843614E+04  0.65864270000E+03 0.  0.
    8880022    1    1    2    0    0 -0.21205024719E+03 -0.72015074059E+03 -0.21108101043E+03  0.79468814165E+03  0.15294330000E+03 0.  0.
<mgrwt>
<rscale>  0 0.93465679E+03</rscale>
<asrwt>0</asrwt>
<pdfrwt beam="1">  1        1 0.98300517E-01 0.99869545E+03</pdfrwt>
<pdfrwt beam="2">  1       -1 0.32681833E+00 0.99869545E+03</pdfrwt>
<totfact> 0.70223083E-01</totfact>
</mgrwt>
</event>
<event>
 4    1  0.2514307E-008  0.9614361E+03  0.7818608E-02  0.9433847E-01
         -1   -1    0    0    0  501 -0.00000000000E+00  0.00000000000E+00  0.38974769140E+03  0.38974769143E+03  0.50400000000E-02 0.  1.
          1   -1    0    0  501    0  0.00000000000E+00 -0.00000000000E+00 -0.25065617246E+04  0.25065617246E+04  0.50400000000E-02 0. -1.
    8880023    1    1    2    0    0  0.61275368791E+03 -0.33923757940E+03 -0.41029477436E+03  0.10453235028E+04  0.65864270000E+03 0.  1.
    8880022    1    1    2    0    0 -0.61275368791E+03  0.33923757940E+03 -0.17065192588E+04  0.18509859133E+04  0.15294330000E+03 0.  0.
<mgrwt>
<rscale>  0 0.89341753E+03</rscale>
<asrwt>0</asrwt>
<pdfrwt beam="1">  1        1 0.38562487E+00 0.96143613E+03</pdfrwt>
<pdfrwt beam="2">  1       -1 0.59961185E-01 0.96143613E+03</pdfrwt>
<totfact> 0.38730497E+00</totfact>
</mgrwt>
</event>
<event>
 4    1  0.2514307E-008  0.9545125E+03  0.7818608E-02  0.9443651E-01
          1   -1    0    0  501    0  0.00000000000E+00  0.00000000000E+00  0.39403401393E+04  0.39403401393E+04  0.50400000000E-02 0. -1.
         -1   -1    0    0    0  501 -0.00000000000E+00 -0.00000000000E+00 -0.24797484585E+03  0.24797484591E+03  0.50400000000E-02 0.  1.
    8880023    1    1    2    0    0 -0.67243737796E+02 -0.68757702003E+03  0.91503066600E+03  0.13222613980E+04  0.65864270000E+03 0.  0.
    8880022    1    1    2    0    0  0.67243737796E+02  0.68757702003E+03  0.27773346274E+04  0.28660535872E+04  0.15294330000E+03 0.  0.
<mgrwt>
<rscale>  0 0.88568799E+03</rscale>
<asrwt>0</asrwt>
<pdfrwt beam="1">  1        1 0.60620614E+00 0.95451249E+03</pdfrwt>
<pdfrwt beam="2">  1       -1 0.38149979E-01 0.95451249E+03</pdfrwt>
<totfact> 0.76146612E-01</totfact>
</mgrwt>
</event>
<event>
 4    1  0.2514307E-008  0.1067745E+04  0.7818608E-02  0.9297847E-01
         -1   -1    0    0    0  501 -0.00000000000E+00  0.00000000000E+00  0.13172908100E+04  0.13172908100E+04  0.50400000000E-02 0.  1.
          1   -1    0    0  501    0  0.00000000000E+00 -0.00000000000E+00 -0.76130466269E+03  0.76130466271E+03  0.50400000000E-02 0. -1.
    8880023    1    1    2    0    0 -0.70021644006E+02  0.83747645657E+03  0.59718365137E+03  0.12234003293E+04  0.65864270000E+03 0.  0.
    8880022    1    1    2    0    0  0.70021644006E+02 -0.83747645657E+03 -0.41197504114E+02  0.85519514340E+03  0.15294330000E+03 0.  0.
<mgrwt>
<rscale>  0 0.10098129E+04</rscale>
<asrwt>0</asrwt>
<pdfrwt beam="1">  1        1 0.11712380E+00 0.10677453E+04</pdfrwt>
<pdfrwt beam="2">  1       -1 0.20266012E+00 0.10677453E+04</pdfrwt>
<totfact> 0.34399517E+00</totfact>
</mgrwt>
</event>
<event>
 4    1  0.2514307E-008  0.1011634E+04  0.7818608E-02  0.9366493E-01
         -1   -1    0    0    0  501 -0.00000000000E+00  0.00000000000E+00  0.98180396011E+03  0.98180396012E+03  0.50400000000E-02 0.  1.
          1   -1    0    0  501    0  0.00000000000E+00 -0.00000000000E+00 -0.13246904052E+04  0.13246904052E+04  0.50400000000E-02 0. -1.
    8880023    1    1    2    0    0  0.25459734893E+02 -0.76742712154E+03  0.52324905868E+03  0.11389435318E+04  0.65864270000E+03 0.  1.
    8880022    1    1    2    0    0 -0.25459734893E+02  0.76742712154E+03 -0.86613550379E+03  0.11675508335E+04  0.15294330000E+03 0.  0.
<mgrwt>
<rscale>  0 0.94885235E+03</rscale>
<asrwt>0</asrwt>
<pdfrwt beam="1">  1        1 0.20379852E+00 0.10116337E+04</pdfrwt>
<pdfrwt beam="2">  1       -1 0.15104676E+00 0.10116337E+04</pdfrwt>
<totfact> 0.29820195E+00</totfact>
</mgrwt>
</event>
<event>
 4    1  0.2514307E-008  0.8834128E+03  0.7818608E-02  0.9553202E-01
         -1   -1    0    0    0  501 -0.00000000000E+00  0.00000000000E+00  0.15575663767E+04  0.15575663767E+04  0.50400000000E-02 0.  1.
          1   -1    0    0  501    0  0.00000000000E+00 -0.00000000000E+00 -0.14984915386E+04  0.14984915386E+04  0.50400000000E-02 0. -1.
    8880023    1    1    2    0    0  0.29132824666E+03  0.51160127470E+03  0.13589777738E+04  0.16208759384E+04  0.65864270000E+03 0.  1.
    8880022    1    1    2    0    0 -0.29132824666E+03 -0.51160127470E+03 -0.12999029357E+04  0.14351819769E+04  0.15294330000E+03 0.  0.
<mgrwt>
<rscale>  0 0.80472583E+03</rscale>
<asrwt>0</asrwt>
<pdfrwt beam="1">  1        1 0.23053716E+00 0.88341282E+03</pdfrwt>
<pdfrwt beam="2">  1       -1 0.23962560E+00 0.88341282E+03</pdfrwt>
<totfact> 0.55123186E-01</totfact>
</mgrwt>
</event>
<event>
 4    1  0.2514307E-008  0.1289825E+04  0.7818608E-02  0.9074396E-01
          1   -1    0    0  501    0  0.00000000000E+00  0.00000000000E+00  0.33507540192E+04  0.33507540192E+04  0.50400000000E-02 0. -1.
         -1   -1    0    0    0  501 -0.00000000000E+00 -0.00000000000E+00 -0.13461864147E+04  0.13461864148E+04  0.50400000000E-02 0.  1.
    8880023    1    1    2    0    0 -0.77691941891E+03 -0.79135044126E+03 -0.90751190698E+03  0.15770945983E+04  0.65864270000E+03 0.  0.
    8880022    1    1    2    0    0  0.77691941891E+03  0.79135044126E+03  0.29120795114E+04  0.31198458357E+04  0.15294330000E+03 0.  0.
<mgrwt>
<rscale>  0 0.12449505E+04</rscale>
<asrwt>0</asrwt>
<pdfrwt beam="1">  1        1 0.51550061E+00 0.12898254E+04</pdfrwt>
<pdfrwt beam="2">  1       -1 0.20710560E+00 0.12898254E+04</pdfrwt>
<totfact> 0.43111368E-02</totfact>
</mgrwt>
</event>
<event>
 4    1  0.2514307E-008  0.9622432E+03  0.7818608E-02  0.9432713E-01
          1   -1    0    0  501    0  0.00000000000E+00  0.00000000000E+00  0.77175270119E+03  0.77175270121E+03  0.50400000000E-02 0. -1.
         -1   -1    0    0    0  501 -0.00000000000E+00 -0.00000000000E+00 -0.14398225576E+04  0.14398225576E+04  0.50400000000E-02 0.  1.
    8880023    1    1    2    0    0 -0.48131408663E+03  0.51033170063E+03 -0.10282946197E+04  0.14082974564E+04  0.65864270000E+03 0.  0.
    8880022    1    1    2    0    0  0.48131408663E+03 -0.51033170063E+03  0.36022476329E+03  0.80327780236E+03  0.15294330000E+03 0.  0.
<mgrwt>
<rscale>  0 0.89431704E+03</rscale>
<asrwt>0</asrwt>
<pdfrwt beam="1">  1        1 0.11873118E+00 0.96224316E+03</pdfrwt>
<pdfrwt beam="2">  1       -1 0.22151116E+00 0.96224316E+03</pdfrwt>
<totfact> 0.25433630E+00</totfact>
</mgrwt>
</event>
<event>
 4    1  0.2514307E-008  0.8366836E+03  0.7818608E-02  0.9636466E-01
          1   -1    0    0  501    0  0.00000000000E+00  0.00000000000E+00  0.19979795690E+04  0.19979795690E+04  0.50400000000E-02 0. -1.
         -1   -1    0    0    0  501 -0.00000000000E+00 -0.00000000000E+00 -0.73441364704E+03  0.73441364706E+03  0.50400000000E-02 0.  1.
    8880023    1    1    2    0    0  0.31298664750E+03 -0.41020550933E+03 -0.44036576802E+03  0.94549532907E+03  0.65864270000E+03 0.  0.
    8880022    1    1    2    0    0 -0.31298664750E+03  0.41020550933E+03  0.17039316900E+04  0.17868978870E+04  0.15294330000E+03 0.  0.
<mgrwt>
<rscale>  0 0.74928953E+03</rscale>
<asrwt>0</asrwt>
<pdfrwt beam="1">  1        1 0.30738147E+00 0.83668358E+03</pdfrwt>
<pdfrwt beam="2">  1       -1 0.11298672E+00 0.83668358E+03</pdfrwt>
<totfact> 0.22204284E+00</totfact>
</mgrwt>
</event>
<event>
 4    1  0.2514307E-008  0.1393442E+04  0.7818608E-02  0.8988795E-01
          1   -1    0    0  501    0  0.00000000000E+00  0.00000000000E+00  0.25614772183E+04  0.25614772183E+04  0.50400000000E-02 0. -1.
         -1   -1    0    0    0  501 -0.00000000000E+00 -0.00000000000E+00 -0.16164711198E+04  0.16164711198E+04  0.50400000000E-02 0.  1.
    8880023    1    1    2    0    0 -0.82289407470E+03 -0.91143606877E+03 -0.11083931465E+04  0.17805100222E+04  0.65864270000E+03 0.  0.
    8880022    1    1    2    0    0  0.82289407470E+03  0.91143606877E+03  0.20533992451E+04  0.23974383158E+04  0.15294330000E+03 0.  0.
<mgrwt>
<rscale>  0 0.13526887E+04</rscale>
<asrwt>0</asrwt>
<pdfrwt beam="1">  1        1 0.39407341E+00 0.13934420E+04</pdfrwt>
<pdfrwt beam="2">  1       -1 0.24868787E+00 0.13934420E+04</pdfrwt>
<totfact> 0.83622237E-02</totfact>
</mgrwt>
</event>
<event>
 4    1  0.2514307E-008  0.1032188E+04  0.7818608E-02  0.9340606E-01
         -1   -1    0    0    0  501 -0.00000000000E+00  0.00000000000E+00  0.78835578415E+03  0.78835578417E+03  0.50400000000E-02 0.  1.
          1   -1    0    0  501    0  0.00000000000E+00 -0.00000000000E+00 -0.20930613227E+04  0.20930613227E+04  0.50400000000E-02 0. -1.
    8880023    1    1    2    0    0 -0.27586474589E+03  0.74531967282E+03  0.30788831841E+03  0.10771296095E+04  0.65864270000E+03 0.  1.
    8880022    1    1    2    0    0  0.27586474589E+03 -0.74531967282E+03 -0.16125938569E+04  0.18042874974E+04  0.15294330000E+03 0.  0.
<mgrwt>
<rscale>  0 0.97129006E+03</rscale>
<asrwt>0</asrwt>
<pdfrwt beam="1">  1        1 0.32200943E+00 0.10321884E+04</pdfrwt>
<pdfrwt beam="2">  1       -1 0.12128551E+00 0.10321884E+04</pdfrwt>
<totfact> 0.15651553E+00</totfact>
</mgrwt>
</event>
<event>
 4    1  0.2514307E-008  0.7152722E+03  0.7818608E-02  0.9938920E-01
         -1   -1    0    0    0  501 -0.00000000000E+00  0.00000000000E+00  0.13350690951E+04  0.13350690951E+04  0.50400000000E-02 0.  1.
          1   -1    0    0  501    0  0.00000000000E+00 -0.00000000000E+00 -0.48496354612E+03  0.48496354615E+03  0.50400000000E-02 0. -1.
    8880023    1    1    2    0    0  0.25144701757E+03 -0.12074133537E+03  0.11684456225E+04  0.13699925006E+04  0.65864270000E+03 0.  1.
    8880022    1    1    2    0    0 -0.25144701757E+03  0.12074133537E+03 -0.31834007356E+03  0.45004014061E+03  0.15294330000E+03 0.  0.
<mgrwt>
<rscale>  0 0.58411555E+03</rscale>
<asrwt>0</asrwt>
<pdfrwt beam="1">  1        1 0.74609777E-01 0.71527217E+03</pdfrwt>
<pdfrwt beam="2">  1       -1 0.20539524E+00 0.71527217E+03</pdfrwt>
<totfact> 0.66404683E+00</totfact>
</mgrwt>
</event>
<event>
 4    1  0.2514307E-008  0.1027897E+04  0.7818608E-02  0.9345937E-01
         -1   -1    0    0    0  501 -0.00000000000E+00  0.00000000000E+00  0.17752052806E+04  0.17752052806E+04  0.50400000000E-02 0.  1.
          1   -1    0    0  501    0  0.00000000000E+00 -0.00000000000E+00 -0.64239397084E+03  0.64239397086E+03  0.50400000000E-02 0. -1.
    8880023    1    1    2    0    0  0.71678653720E+03 -0.33011896478E+03  0.12355544756E+04  0.16072232388E+04  0.65864270000E+03 0.  0.
    8880022    1    1    2    0    0 -0.71678653720E+03  0.33011896478E+03 -0.10274316583E+03  0.81037601270E+03  0.15294330000E+03 0.  0.
<mgrwt>
<rscale>  0 0.96661614E+03</rscale>
<asrwt>0</asrwt>
<pdfrwt beam="1">  1        1 0.98829842E-01 0.10278967E+04</pdfrwt>
<pdfrwt beam="2">  1       -1 0.27310850E+00 0.10278967E+04</pdfrwt>
<totfact> 0.15394444E+00</totfact>
</mgrwt>
</event>
<event>
 4    1  0.2514307E-008  0.1214638E+04  0.7818608E-02  0.9143023E-01
          1   -1    0    0  501    0  0.00000000000E+00  0.00000000000E+00  0.14611311360E+04  0.14611311360E+04  0.50400000000E-02 0. -1.
         -1   -1    0    0    0  501 -0.00000000000E+00 -0.00000000000E+00 -0.15183414024E+04  0.15183414024E+04  0.50400000000E-02 0.  1.
    8880023    1    1    2    0    0  0.10197177639E+04  0.41367096642E+02  0.94652279866E+03  0.15398867391E+04  0.65864270000E+03 0. -1.
    8880022    1    1    2    0    0 -0.10197177639E+04 -0.41367096642E+02 -0.10037330650E+04  0.14395857993E+04  0.15294330000E+03 0.  0.
<mgrwt>
<rscale>  0 0.11661386E+04</rscale>
<asrwt>0</asrwt>
<pdfrwt beam="1">  1        1 0.22478941E+00 0.12146381E+04</pdfrwt>
<pdfrwt beam="2">  1       -1 0.23359098E+00 0.12146381E+04</pdfrwt>
<totfact> 0.60872503E-01</totfact>
</mgrwt>
</event>
<event>
 4    1  0.2514307E-008  0.9733065E+03  0.7818608E-02  0.9417345E-01
          1   -1    0    0  501    0  0.00000000000E+00  0.00000000000E+00  0.19834739368E+04  0.19834739368E+04  0.50400000000E-02 0. -1.
         -1   -1    0    0    0  501 -0.00000000000E+00 -0.00000000000E+00 -0.42701217625E+03  0.42701217628E+03  0.50400000000E-02 0.  1.
    8880023    1    1    2    0    0  0.39107718369E+03 -0.60047818450E+03  0.42401598818E+03  0.10616568081E+04  0.65864270000E+03 0.  0.
    8880022    1    1    2    0    0 -0.39107718369E+03  0.60047818450E+03  0.11324457724E+04  0.13488293050E+04  0.15294330000E+03 0.  0.
<mgrwt>
<rscale>  0 0.90661859E+03</rscale>
<asrwt>0</asrwt>
<pdfrwt beam="1">  1        1 0.30514984E+00 0.97330654E+03</pdfrwt>
<pdfrwt beam="2">  1       -1 0.65694180E-01 0.97330654E+03</pdfrwt>
<totfact> 0.72864088E+00</totfact>
</mgrwt>
</event>
<event>
 4    1  0.2514307E-008  0.1229442E+04  0.7818608E-02  0.9129021E-01
          1   -1    0    0  501    0  0.00000000000E+00  0.00000000000E+00  0.17048946742E+04  0.17048946742E+04  0.50400000000E-02 0. -1.
         -1   -1    0    0    0  501 -0.00000000000E+00 -0.00000000000E+00 -0.84588452261E+03  0.84588452262E+03  0.50400000000E-02 0.  1.
    8880023    1    1    2    0    0  0.74060085628E+03  0.72748008106E+03  0.58274075196E+02  0.12308220711E+04  0.65864270000E+03 0.  1.
    8880022    1    1    2    0    0 -0.74060085628E+03 -0.72748008106E+03  0.80073607644E+03  0.13199571257E+04  0.15294330000E+03 0.  0.
<mgrwt>
<rscale>  0 0.11817068E+04</rscale>
<asrwt>0</asrwt>
<pdfrwt beam="1">  1        1 0.26229149E+00 0.12294418E+04</pdfrwt>
<pdfrwt beam="2">  1       -1 0.13013608E+00 0.12294418E+04</pdfrwt>
<totfact> 0.23426974E+00</totfact>
</mgrwt>
</event>
<event>
 4    1  0.2601292E-008  0.1141413E+04  0.7818608E-02  0.9216290E-01
         -1   -1    0    0    0  501 -0.00000000000E+00  0.00000000000E+00  0.20868877005E+04  0.20868877005E+04  0.50400000000E-02 0.  1.
          1   -1    0    0  501    0  0.00000000000E+00 -0.00000000000E+00 -0.15292182253E+04  0.15292182253E+04  0.50400000000E-02 0. -1.
    8880023    1    1    2    0    0 -0.93192046315E+03  0.23209400588E+02  0.17534321065E+04  0.20922114578E+04  0.65864270000E+03 0.  0.
    8880022    1    1    2    0    0  0.93192046315E+03 -0.23209400588E+02 -0.11957626314E+04  0.15238944680E+04  0.15294330000E+03 0.  0.
<mgrwt>
<rscale>  0 0.10886858E+04</rscale>
<asrwt>0</asrwt>
<pdfrwt beam="1">  1        1 0.23526434E+00 0.11414134E+04</pdfrwt>
<pdfrwt beam="2">  1       -1 0.32105965E+00 0.11414134E+04</pdfrwt>
<totfact> 0.14965436E-01</totfact>
</mgrwt>
</event>
<event>
 4    1  0.2514307E-008  0.1089563E+04  0.7818608E-02  0.9272766E-01
          1   -1    0    0  501    0  0.00000000000E+00  0.00000000000E+00  0.12499661728E+04  0.12499661728E+04  0.50400000000E-02 0. -1.
         -1   -1    0    0    0  501 -0.00000000000E+00 -0.00000000000E+00 -0.11609143670E+04  0.11609143670E+04  0.50400000000E-02 0.  1.
    8880023    1    1    2    0    0 -0.38089936974E+03 -0.77990611486E+03 -0.64302884586E+03  0.12651617212E+04  0.65864270000E+03 0.  0.
    8880022    1    1    2    0    0  0.38089936974E+03  0.77990611486E+03  0.73208065163E+03  0.11457188186E+04  0.15294330000E+03 0.  0.
<mgrwt>
<rscale>  0 0.10332920E+04</rscale>
<asrwt>0</asrwt>
<pdfrwt beam="1">  1        1 0.19230249E+00 0.10895633E+04</pdfrwt>
<pdfrwt beam="2">  1       -1 0.17860221E+00 0.10895633E+04</pdfrwt>
<totfact> 0.20783190E+00</totfact>
</mgrwt>
</event>
<event>
 4    1  0.2514307E-008  0.9755667E+03  0.7818608E-02  0.9414246E-01
          1   -1    0    0  501    0  0.00000000000E+00  0.00000000000E+00  0.22033501660E+04  0.22033501660E+04  0.50400000000E-02 0. -1.
         -1   -1    0    0    0  501 -0.00000000000E+00 -0.00000000000E+00 -0.90421169487E+03  0.90421169488E+03  0.50400000000E-02 0.  1.
    8880023    1    1    2    0    0  0.35978124790E+03  0.62327966884E+03 -0.54824300133E+03  0.11190624141E+04  0.65864270000E+03 0.  0.
    8880022    1    1    2    0    0 -0.35978124790E+03 -0.62327966884E+03  0.18473814724E+04  0.19884994467E+04  0.15294330000E+03 0.  0.
<mgrwt>
<rscale>  0 0.90912509E+03</rscale>
<asrwt>0</asrwt>
<pdfrwt beam="1">  1        1 0.33897694E+00 0.97556665E+03</pdfrwt>
<pdfrwt beam="2">  1       -1 0.13910949E+00 0.97556665E+03</pdfrwt>
<totfact> 0.94011659E-01</totfact>
</mgrwt>
</event>
<event>
 4    1  0.2514307E-008  0.1030707E+04  0.7818608E-02  0.9342442E-01
         -1   -1    0    0    0  501 -0.00000000000E+00  0.00000000000E+00  0.12501616276E+04  0.12501616276E+04  0.50400000000E-02 0.  1.
          1   -1    0    0  501    0  0.00000000000E+00 -0.00000000000E+00 -0.86569527895E+03  0.86569527896E+03  0.50400000000E-02 0. -1.
    8880023    1    1    2    0    0 -0.21515089557E+03  0.76305798087E+03 -0.28234695552E+03  0.10686802139E+04  0.65864270000E+03 0.  0.
    8880022    1    1    2    0    0  0.21515089557E+03 -0.76305798087E+03  0.66681330420E+03  0.10471766927E+04  0.15294330000E+03 0.  0.
<mgrwt>
<rscale>  0 0.96967767E+03</rscale>
<asrwt>0</asrwt>
<pdfrwt beam="1">  1        1 0.13318389E+00 0.10307073E+04</pdfrwt>
<pdfrwt beam="2">  1       -1 0.19233256E+00 0.10307073E+04</pdfrwt>
<totfact> 0.33060468E+00</totfact>
</mgrwt>
</event>
<event>
 4    1  0.2514307E-008  0.7080921E+03  0.7818608E-02  0.9965155E-01
          1   -1    0    0  501    0  0.00000000000E+00  0.00000000000E+00  0.58067082954E+03  0.58067082957E+03  0.50400000000E-02 0. -1.
         -1   -1    0    0    0  501 -0.00000000000E+00 -0.00000000000E+00 -0.16950825154E+04  0.16950825154E+04  0.50400000000E-02 0.  1.
    8880023    1    1    2    0    0  0.18954490990E+03 -0.17792402600E+03 -0.15740504241E+04  0.17259864356E+04  0.65864270000E+03 0.  0.
    8880022    1    1    2    0    0 -0.18954490990E+03  0.17792402600E+03  0.45963873828E+03  0.54976690937E+03  0.15294330000E+03 0.  0.
<mgrwt>
<rscale>  0 0.57204883E+03</rscale>
<asrwt>0</asrwt>
<pdfrwt beam="1">  1        1 0.89333975E-01 0.70809211E+03</pdfrwt>
<pdfrwt beam="2">  1       -1 0.26078192E+00 0.70809211E+03</pdfrwt>
<totfact> 0.22439402E+00</totfact>
</mgrwt>
</event>
<event>
 4    1  0.2514307E-008  0.7552698E+03  0.7818608E-02  0.9817511E-01
          1   -1    0    0  501    0  0.00000000000E+00  0.00000000000E+00  0.64407704902E+03  0.64407704904E+03  0.50400000000E-02 0. -1.
         -1   -1    0    0    0  501 -0.00000000000E+00 -0.00000000000E+00 -0.14723700168E+04  0.14723700168E+04  0.50400000000E-02 0.  1.
    8880023    1    1    2    0    0 -0.32676720418E+03  0.17275834772E+03 -0.12966113997E+04  0.15005444281E+04  0.65864270000E+03 0.  1.
    8880022    1    1    2    0    0  0.32676720418E+03 -0.17275834772E+03  0.46831843198E+03  0.61590263775E+03  0.15294330000E+03 0.  0.
<mgrwt>
<rscale>  0 0.64431212E+03</rscale>
<asrwt>0</asrwt>
<pdfrwt beam="1">  1        1 0.99088777E-01 0.75526979E+03</pdfrwt>
<pdfrwt beam="2">  1       -1 0.22651846E+00 0.75526979E+03</pdfrwt>
<totfact> 0.31963690E+00</totfact>
</mgrwt>
</event>
<event>
 4    1  0.2514307E-008  0.7708939E+03  0.7818608E-02  0.9777679E-01
         -1   -1    0    0    0  501 -0.00000000000E+00  0.00000000000E+00  0.61111066983E+03  0.61111066985E+03  0.50400000000E-02 0.  1.
          1   -1    0    0  501    0  0.00000000000E+00 -0.00000000000E+00 -0.10604332179E+04  0.10604332179E+04  0.50400000000E-02 0. -1.
    8880023    1    1    2    0    0 -0.64288110278E+02 -0.39539131939E+03  0.28442823426E+03  0.82169147694E+03  0.65864270000E+03 0.  0.
    8880022    1    1    2    0    0  0.64288110278E+02  0.39539131939E+03 -0.73375078234E+03  0.84985241082E+03  0.15294330000E+03 0.  0.
<mgrwt>
<rscale>  0 0.66574292E+03</rscale>
<asrwt>0</asrwt>
<pdfrwt beam="1">  1        1 0.16314357E+00 0.77089394E+03</pdfrwt>
<pdfrwt beam="2">  1       -1 0.94017026E-01 0.77089394E+03</pdfrwt>
<totfact> 0.15313506E+01</totfact>
</mgrwt>
</event>
<event>
 4    1  0.2514307E-008  0.7101798E+03  0.7818608E-02  0.9957334E-01
         -1   -1    0    0    0  501 -0.00000000000E+00  0.00000000000E+00  0.49522241951E+03  0.49522241953E+03  0.50400000000E-02 0.  1.
          1   -1    0    0  501    0  0.00000000000E+00 -0.00000000000E+00 -0.16631276538E+04  0.16631276538E+04  0.50400000000E-02 0. -1.
    8880023    1    1    2    0    0  0.25673544959E+03  0.68059566237E+02  0.21490310052E+03  0.74198298128E+03  0.65864270000E+03 0.  1.
    8880022    1    1    2    0    0 -0.25673544959E+03 -0.68059566237E+02 -0.13828083348E+04  0.14163670920E+04  0.15294330000E+03 0.  0.
<mgrwt>
<rscale>  0 0.57561321E+03</rscale>
<asrwt>0</asrwt>
<pdfrwt beam="1">  1        1 0.25586579E+00 0.71017984E+03</pdfrwt>
<pdfrwt beam="2">  1       -1 0.76188065E-01 0.71017984E+03</pdfrwt>
<totfact> 0.91554499E+00</totfact>
</mgrwt>
</event>
<event>
 4    1  0.2514307E-008  0.1640591E+04  0.7818608E-02  0.8816253E-01
         -1   -1    0    0    0  501 -0.00000000000E+00  0.00000000000E+00  0.14229240090E+04  0.14229240090E+04  0.50400000000E-02 0.  1.
          1   -1    0    0  501    0  0.00000000000E+00 -0.00000000000E+00 -0.29644849574E+04  0.29644849574E+04  0.50400000000E-02 0. -1.
    8880023    1    1    2    0    0 -0.14380387596E+04  0.43562990870E+03  0.61712610541E+03  0.17528216475E+04  0.65864270000E+03 0.  0.
    8880022    1    1    2    0    0  0.14380387596E+04 -0.43562990870E+03 -0.21586870538E+04  0.26345873189E+04  0.15294330000E+03 0.  0.
<mgrwt>
<rscale>  0 0.16070108E+04</rscale>
<asrwt>0</asrwt>
<pdfrwt beam="1">  1        1 0.45607461E+00 0.16405911E+04</pdfrwt>
<pdfrwt beam="2">  1       -1 0.21891139E+00 0.16405911E+04</pdfrwt>
<totfact> 0.65981158E-02</totfact>
</mgrwt>
</event>
<event>
 4    1  0.2514307E-008  0.1193549E+04  0.7818608E-02  0.9163419E-01
         -1   -1    0    0    0  501 -0.00000000000E+00  0.00000000000E+00  0.11413509632E+04  0.11413509632E+04  0.50400000000E-02 0.  1.
          1   -1    0    0  501    0  0.00000000000E+00 -0.00000000000E+00 -0.14976594710E+04  0.14976594710E+04  0.50400000000E-02 0. -1.
    8880023    1    1    2    0    0  0.29331497963E+03 -0.95116545318E+03  0.52205020410E+03  0.13027263790E+04  0.65864270000E+03 0.  1.
    8880022    1    1    2    0    0 -0.29331497963E+03  0.95116545318E+03 -0.87835871186E+03  0.13362840553E+04  0.15294330000E+03 0.  0.
<mgrwt>
<rscale>  0 0.11439118E+04</rscale>
<asrwt>0</asrwt>
<pdfrwt beam="1">  1        1 0.23040915E+00 0.11935492E+04</pdfrwt>
<pdfrwt beam="2">  1       -1 0.17559246E+00 0.11935492E+04</pdfrwt>
<totfact> 0.14424514E+00</totfact>
</mgrwt>
</event>
<event>
 4    1  0.2514307E-008  0.7104160E+03  0.7818608E-02  0.9956460E-01
         -1   -1    0    0    0  501 -0.00000000000E+00  0.00000000000E+00  0.70618961302E+03  0.70618961304E+03  0.50400000000E-02 0.  1.
          1   -1    0    0  501    0  0.00000000000E+00 -0.00000000000E+00 -0.10700280065E+04  0.10700280065E+04  0.50400000000E-02 0. -1.
    8880023    1    1    2    0    0  0.13255780324E+01  0.26623085737E+03  0.49386575989E+03  0.86521339658E+03  0.65864270000E+03 0.  1.
    8880022    1    1    2    0    0 -0.13255780324E+01 -0.26623085737E+03 -0.85770415336E+03  0.91100422298E+03  0.15294330000E+03 0.  0.
<mgrwt>
<rscale>  0 0.57601333E+03</rscale>
<asrwt>0</asrwt>
<pdfrwt beam="1">  1        1 0.16461969E+00 0.71041596E+03</pdfrwt>
<pdfrwt beam="2">  1       -1 0.10864456E+00 0.71041596E+03</pdfrwt>
<totfact> 0.10904809E+01</totfact>
</mgrwt>
</event>
<event>
 4    1  0.2514307E-008  0.1033928E+04  0.7818608E-02  0.9338456E-01
          1   -1    0    0  501    0  0.00000000000E+00  0.00000000000E+00  0.72475031335E+03  0.72475031337E+03  0.50400000000E-02 0. -1.
         -1   -1    0    0    0  501 -0.00000000000E+00 -0.00000000000E+00 -0.19878252651E+04  0.19878252651E+04  0.50400000000E-02 0.  1.
    8880023    1    1    2    0    0 -0.70126495007E+03  0.37871531208E+03  0.18714698099E+03  0.10507292784E+04  0.65864270000E+03 0.  0.
    8880022    1    1    2    0    0  0.70126495007E+03 -0.37871531208E+03 -0.14502219328E+04  0.16618463001E+04  0.15294330000E+03 0.  0.
<mgrwt>
<rscale>  0 0.97318344E+03</rscale>
<asrwt>0</asrwt>
<pdfrwt beam="1">  1        1 0.11150005E+00 0.10339284E+04</pdfrwt>
<pdfrwt beam="2">  1       -1 0.30581927E+00 0.10339284E+04</pdfrwt>
<totfact> 0.78955573E-01</totfact>
</mgrwt>
</event>
<event>
 4    1  0.2514307E-008  0.1624518E+04  0.7818608E-02  0.8826372E-01
          1   -1    0    0  501    0  0.00000000000E+00  0.00000000000E+00  0.27604655543E+04  0.27604655543E+04  0.50400000000E-02 0. -1.
         -1   -1    0    0    0  501 -0.00000000000E+00 -0.00000000000E+00 -0.10673491271E+04  0.10673491271E+04  0.50400000000E-02 0.  1.
    8880023    1    1    2    0    0 -0.99837407060E+03 -0.10993176688E+04  0.75016631317E+02  0.16262496189E+04  0.65864270000E+03 0.  0.
    8880022    1    1    2    0    0  0.99837407060E+03  0.10993176688E+04  0.16180997960E+04  0.22015650625E+04  0.15294330000E+03 0.  0.
<mgrwt>
<rscale>  0 0.15905544E+04</rscale>
<asrwt>0</asrwt>
<pdfrwt beam="1">  1        1 0.42468700E+00 0.16245185E+04</pdfrwt>
<pdfrwt beam="2">  1       -1 0.16420756E+00 0.16245185E+04</pdfrwt>
<totfact> 0.22602748E-01</totfact>
</mgrwt>
</event>
<event>
 4    1  0.2514307E-008  0.9164509E+03  0.7818608E-02  0.9500122E-01
          1   -1    0    0  501    0  0.00000000000E+00  0.00000000000E+00  0.21189805732E+04  0.21189805732E+04  0.50400000000E-02 0. -1.
         -1   -1    0    0    0  501 -0.00000000000E+00 -0.00000000000E+00 -0.82703421561E+03  0.82703421562E+03  0.50400000000E-02 0.  1.
    8880023    1    1    2    0    0  0.92261890800E+02 -0.63052340002E+03 -0.49577936165E+03  0.10419594024E+04  0.65864270000E+03 0.  1.
    8880022    1    1    2    0    0 -0.92261890800E+02  0.63052340002E+03  0.17877257192E+04  0.19040553864E+04  0.15294330000E+03 0.  0.
<mgrwt>
<rscale>  0 0.84274794E+03</rscale>
<asrwt>0</asrwt>
<pdfrwt beam="1">  1        1 0.32599701E+00 0.91645088E+03</pdfrwt>
<pdfrwt beam="2">  1       -1 0.12723604E+00 0.91645088E+03</pdfrwt>
<totfact> 0.13590747E+00</totfact>
</mgrwt>
</event>
<event>
 4    1  0.2514307E-008  0.6943386E+03  0.7818608E-02  0.1002155E+00
         -1   -1    0    0    0  501 -0.00000000000E+00  0.00000000000E+00  0.35100185214E+03  0.35100185218E+03  0.50400000000E-02 0.  1.
          1   -1    0    0  501    0  0.00000000000E+00 -0.00000000000E+00 -0.37716524600E+04  0.37716524600E+04  0.50400000000E-02 0. -1.
    8880023    1    1    2    0    0  0.94430187591E+02  0.19844081785E+03 -0.28117520315E+01  0.69434424512E+03  0.65864270000E+03 0.  0.
    8880022    1    1    2    0    0 -0.94430187591E+02 -0.19844081785E+03 -0.34178388559E+04  0.34283100671E+04  0.15294330000E+03 0.  0.
<mgrwt>
<rscale>  0 0.54715310E+03</rscale>
<asrwt>0</asrwt>
<pdfrwt beam="1">  1        1 0.58025419E+00 0.69433855E+03</pdfrwt>
<pdfrwt beam="2">  1       -1 0.54000288E-01 0.69433855E+03</pdfrwt>
<totfact> 0.58294299E-01</totfact>
</mgrwt>
</event>
<event>
 4    1  0.2514307E-008  0.7272841E+03  0.7818608E-02  0.9898668E-01
         -1   -1    0    0    0  501 -0.00000000000E+00  0.00000000000E+00  0.49012925988E+03  0.49012925991E+03  0.50400000000E-02 0.  1.
          1   -1    0    0  501    0  0.00000000000E+00 -0.00000000000E+00 -0.10855695497E+04  0.10855695497E+04  0.50400000000E-02 0. -1.
    8880023    1    1    2    0    0 -0.96712463224E+01 -0.30828301423E+03  0.16074110762E+03  0.74483545821E+03  0.65864270000E+03 0.  1.
    8880022    1    1    2    0    0  0.96712463224E+01  0.30828301423E+03 -0.75618139741E+03  0.83086335138E+03  0.15294330000E+03 0.  0.
<mgrwt>
<rscale>  0 0.60325881E+03</rscale>
<asrwt>0</asrwt>
<pdfrwt beam="1">  1        1 0.16701070E+00 0.72728410E+03</pdfrwt>
<pdfrwt beam="2">  1       -1 0.75404502E-01 0.72728410E+03</pdfrwt>
<totfact> 0.23717271E+01</totfact>
</mgrwt>
</event>
<event>
 4    1  0.2514307E-008  0.1263379E+04  0.7818608E-02  0.9097848E-01
         -1   -1    0    0    0  501 -0.00000000000E+00  0.00000000000E+00  0.18258648826E+04  0.18258648826E+04  0.50400000000E-02 0.  1.
          1   -1    0    0  501    0  0.00000000000E+00 -0.00000000000E+00 -0.90773911617E+03  0.90773911618E+03  0.50400000000E-02 0. -1.
    8880023    1    1    2    0    0  0.62105827670E+03 -0.88125034094E+03  0.10420416095E+04  0.16376741033E+04  0.65864270000E+03 0.  0.
    8880022    1    1    2    0    0 -0.62105827670E+03  0.88125034094E+03 -0.12391584316E+03  0.10959298954E+04  0.15294330000E+03 0.  0.
<mgrwt>
<rscale>  0 0.12172992E+04</rscale>
<asrwt>0</asrwt>
<pdfrwt beam="1">  1        1 0.13965217E+00 0.12633787E+04</pdfrwt>
<pdfrwt beam="2">  1       -1 0.28090229E+00 0.12633787E+04</pdfrwt>
<totfact> 0.76947132E-01</totfact>
</mgrwt>
</event>
<event>
 4    1  0.2514307E-008  0.1335035E+04  0.7818608E-02  0.9035880E-01
         -1   -1    0    0    0  501 -0.00000000000E+00  0.00000000000E+00  0.12247990591E+04  0.12247990591E+04  0.50400000000E-02 0.  1.
          1   -1    0    0  501    0  0.00000000000E+00 -0.00000000000E+00 -0.17602119203E+04  0.17602119203E+04  0.50400000000E-02 0. -1.
    8880023    1    1    2    0    0 -0.11546161057E+04  0.12397476353E+03  0.49613684841E+03  0.14242436842E+04  0.65864270000E+03 0.  0.
    8880022    1    1    2    0    0  0.11546161057E+04 -0.12397476353E+03 -0.10315497096E+04  0.15607672952E+04  0.15294330000E+03 0.  0.
<mgrwt>
<rscale>  0 0.12920662E+04</rscale>
<asrwt>0</asrwt>
<pdfrwt beam="1">  1        1 0.27080183E+00 0.13350349E+04</pdfrwt>
<pdfrwt beam="2">  1       -1 0.18843062E+00 0.13350349E+04</pdfrwt>
<totfact> 0.75789998E-01</totfact>
</mgrwt>
</event>
<event>
 4    1  0.2514307E-008  0.9584212E+03  0.7818608E-02  0.9438100E-01
          1   -1    0    0  501    0  0.00000000000E+00  0.00000000000E+00  0.10676869801E+04  0.10676869802E+04  0.50400000000E-02 0. -1.
         -1   -1    0    0    0  501 -0.00000000000E+00 -0.00000000000E+00 -0.65462043203E+03  0.65462043205E+03  0.50400000000E-02 0.  1.
    8880023    1    1    2    0    0  0.45210195975E+03  0.52949492167E+03  0.26271438703E+03  0.99377568369E+03  0.65864270000E+03 0.  1.
    8880022    1    1    2    0    0 -0.45210195975E+03 -0.52949492167E+03  0.15035216108E+03  0.72853172851E+03  0.15294330000E+03 0. -1.
<mgrwt>
<rscale>  0 0.89005450E+03</rscale>
<asrwt>0</asrwt>
<pdfrwt beam="1">  1        1 0.16425953E+00 0.95842123E+03</pdfrwt>
<pdfrwt beam="2">  1       -1 0.10071084E+00 0.95842123E+03</pdfrwt>
<totfact> 0.12669003E+01</totfact>
</mgrwt>
</event>
<event>
 4    1  0.2514307E-008  0.7357268E+03  0.7818608E-02  0.9872574E-01
         -1   -1    0    0    0  501 -0.00000000000E+00  0.00000000000E+00  0.52990011307E+03  0.52990011310E+03  0.50400000000E-02 0.  1.
          1   -1    0    0  501    0  0.00000000000E+00 -0.00000000000E+00 -0.12715764736E+04  0.12715764736E+04  0.50400000000E-02 0. -1.
    8880023    1    1    2    0    0 -0.12750038430E+03  0.30203879066E+03  0.22496863526E+03  0.76935354173E+03  0.65864270000E+03 0.  0.
    8880022    1    1    2    0    0  0.12750038430E+03 -0.30203879066E+03 -0.96664499574E+03  0.10321230449E+04  0.15294330000E+03 0. -1.
<mgrwt>
<rscale>  0 0.61609079E+03</rscale>
<asrwt>0</asrwt>
<pdfrwt beam="1">  1        1 0.19562715E+00 0.73572684E+03</pdfrwt>
<pdfrwt beam="2">  1       -1 0.81523095E-01 0.73572684E+03</pdfrwt>
<totfact> 0.14709210E+01</totfact>
</mgrwt>
</event>
<event>
 4    1  0.2514307E-008  0.7358866E+03  0.7818608E-02  0.9872095E-01
          1   -1    0    0  501    0  0.00000000000E+00  0.00000000000E+00  0.15270277376E+04  0.15270277376E+04  0.50400000000E-02 0. -1.
         -1   -1    0    0    0  501 -0.00000000000E+00 -0.00000000000E+00 -0.29972101469E+03  0.29972101473E+03  0.50400000000E-02 0.  1.
    8880023    1    1    2    0    0  0.13677805621E+02 -0.32792037298E+03  0.23824772986E+03  0.77349275396E+03  0.65864270000E+03 0.  1.
    8880022    1    1    2    0    0 -0.13677805621E+02  0.32792037298E+03  0.98905899309E+03  0.10532559984E+04  0.15294330000E+03 0.  0.
<mgrwt>
<rscale>  0 0.61632935E+03</rscale>
<asrwt>0</asrwt>
<pdfrwt beam="1">  1        1 0.23492735E+00 0.73588658E+03</pdfrwt>
<pdfrwt beam="2">  1       -1 0.46110925E-01 0.73588658E+03</pdfrwt>
<totfact> 0.30307801E+01</totfact>
</mgrwt>
</event>
<event>
 4    1  0.2514307E-008  0.7884708E+03  0.7818608E-02  0.9736302E-01
         -1   -1    0    0    0  501 -0.00000000000E+00  0.00000000000E+00  0.53998360482E+03  0.53998360484E+03  0.50400000000E-02 0.  1.
          1   -1    0    0  501    0  0.00000000000E+00 -0.00000000000E+00 -0.10996028537E+04  0.10996028537E+04  0.50400000000E-02 0. -1.
    8880023    1    1    2    0    0 -0.39010808405E+03 -0.18892235222E+03  0.14166421132E+03  0.80109607878E+03  0.65864270000E+03 0.  0.
    8880022    1    1    2    0    0  0.39010808405E+03  0.18892235222E+03 -0.70128346022E+03  0.83849037979E+03  0.15294330000E+03 0.  0.
<mgrwt>
<rscale>  0 0.68895891E+03</rscale>
<asrwt>0</asrwt>
<pdfrwt beam="1">  1        1 0.16916967E+00 0.78847078E+03</pdfrwt>
<pdfrwt beam="2">  1       -1 0.83074401E-01 0.78847078E+03</pdfrwt>
<totfact> 0.18721056E+01</totfact>
</mgrwt>
</event>
<event>
 4    1  0.2514307E-008  0.6969497E+03  0.7818608E-02  0.1001010E+00
         -1   -1    0    0    0  501 -0.00000000000E+00  0.00000000000E+00  0.28453478819E+03  0.28453478824E+03  0.50400000000E-02 0.  1.
          1   -1    0    0  501    0  0.00000000000E+00 -0.00000000000E+00 -0.16502338240E+04  0.16502338240E+04  0.50400000000E-02 0. -1.
    8880023    1    1    2    0    0  0.27258503383E+02 -0.22624244938E+03 -0.18290305084E+03  0.72055007055E+03  0.65864270000E+03 0.  1.
    8880022    1    1    2    0    0 -0.27258503383E+02  0.22624244938E+03 -0.11827959850E+04  0.12142185417E+04  0.15294330000E+03 0.  0.
<mgrwt>
<rscale>  0 0.55209663E+03</rscale>
<asrwt>0</asrwt>
<pdfrwt beam="1">  1        1 0.25388212E+00 0.69694970E+03</pdfrwt>
<pdfrwt beam="2">  1       -1 0.43774584E-01 0.69694970E+03</pdfrwt>
<totfact> 0.27678505E+01</totfact>
</mgrwt>
</event>
<event>
 4    1  0.2514307E-008  0.7012918E+03  0.7818608E-02  0.9991884E-01
         -1   -1    0    0    0  501 -0.00000000000E+00  0.00000000000E+00  0.49254403272E+03  0.49254403275E+03  0.50400000000E-02 0.  1.
          1   -1    0    0  501    0  0.00000000000E+00 -0.00000000000E+00 -0.16087682345E+04  0.16087682345E+04  0.50400000000E-02 0. -1.
    8880023    1    1    2    0    0 -0.12967855741E+03  0.20293705271E+03  0.21998567817E+03  0.73498563284E+03  0.65864270000E+03 0.  0.
    8880022    1    1    2    0    0  0.12967855741E+03 -0.20293705271E+03 -0.13362098799E+04  0.13663266344E+04  0.15294330000E+03 0.  0.
<mgrwt>
<rscale>  0 0.56007545E+03</rscale>
<asrwt>0</asrwt>
<pdfrwt beam="1">  1        1 0.24750280E+00 0.70129180E+03</pdfrwt>
<pdfrwt beam="2">  1       -1 0.75776006E-01 0.70129180E+03</pdfrwt>
<totfact> 0.10090621E+01</totfact>
</mgrwt>
</event>
<event>
 4    1  0.2514307E-008  0.7219190E+03  0.7818608E-02  0.9916146E-01
          1   -1    0    0  501    0  0.00000000000E+00  0.00000000000E+00  0.11109449851E+04  0.11109449851E+04  0.50400000000E-02 0. -1.
         -1   -1    0    0    0  501 -0.00000000000E+00 -0.00000000000E+00 -0.15012386971E+04  0.15012386971E+04  0.50400000000E-02 0.  1.
    8880023    1    1    2    0    0  0.29418701446E+03  0.28473992780E+02 -0.13857788988E+04  0.15625460410E+04  0.65864270000E+03 0.  1.
    8880022    1    1    2    0    0 -0.29418701446E+03 -0.28473992780E+02  0.99548518674E+03  0.10496376412E+04  0.15294330000E+03 0.  0.
<mgrwt>
<rscale>  0 0.59485145E+03</rscale>
<asrwt>0</asrwt>
<pdfrwt beam="1">  1        1 0.17091461E+00 0.72191895E+03</pdfrwt>
<pdfrwt beam="2">  1       -1 0.23095980E+00 0.72191895E+03</pdfrwt>
<totfact> 0.12216439E+00</totfact>
</mgrwt>
</event>
<event>
 4    1  0.2514307E-008  0.7836218E+03  0.7818608E-02  0.9747397E-01
         -1   -1    0    0    0  501 -0.00000000000E+00  0.00000000000E+00  0.16677608900E+03  0.16677608908E+03  0.50400000000E-02 0.  1.
          1   -1    0    0  501    0  0.00000000000E+00 -0.00000000000E+00 -0.25974817130E+04  0.25974817131E+04  0.50400000000E-02 0. -1.
    8880023    1    1    2    0    0 -0.81937781038E+02 -0.41658027885E+03 -0.10400547519E+04  0.13022200359E+04  0.65864270000E+03 0.  0.
    8880022    1    1    2    0    0  0.81937781038E+02  0.41658027885E+03 -0.13906508721E+04  0.14620377662E+04  0.15294330000E+03 0.  0.
<mgrwt>
<rscale>  0 0.68263569E+03</rscale>
<asrwt>0</asrwt>
<pdfrwt beam="1">  1        1 0.39961254E+00 0.78362181E+03</pdfrwt>
<pdfrwt beam="2">  1       -1 0.25657862E-01 0.78362181E+03</pdfrwt>
<totfact> 0.16227130E+01</totfact>
</mgrwt>
</event>
<event>
 4    1  0.2631526E-008  0.9849807E+03  0.7818608E-02  0.9401477E-01
         -1   -1    0    0    0  501 -0.00000000000E+00  0.00000000000E+00  0.17278843853E+04  0.17278843854E+04  0.50400000000E-02 0.  1.
          1   -1    0    0  501    0  0.00000000000E+00 -0.00000000000E+00 -0.23937194699E+04  0.23937194699E+04  0.50400000000E-02 0. -1.
    8880023    1    1    2    0    0 -0.71776465318E+03  0.14557003006E+03  0.15200172230E+04  0.18112535150E+04  0.65864270000E+03 0.  1.
    8880022    1    1    2    0    0  0.71776465318E+03 -0.14557003006E+03 -0.21858523076E+04  0.23103503403E+04  0.15294330000E+03 0.  0.
<mgrwt>
<rscale>  0 0.91954255E+03</rscale>
<asrwt>0</asrwt>
<pdfrwt beam="1">  1        1 0.36826453E+00 0.98498068E+03</pdfrwt>
<pdfrwt beam="2">  1       -1 0.26582837E+00 0.98498068E+03</pdfrwt>
<totfact> 0.90666552E-02</totfact>
</mgrwt>
</event>
