<event>
 4    1  0.4862093E-001  0.8082858E+02  0.7546771E-02  0.1326716E+00
          2   -1    0    0  501    0  0.00000000000E+00  0.00000000000E+00  0.78325587466E+03  0.78325587466E+03  0.00000000000E+00 0. -1.
         -2   -1    0    0    0  501 -0.00000000000E+00 -0.00000000000E+00 -0.84359047714E+01  0.84359047714E+01  0.00000000000E+00 0.  1.
         24    1    1    2    0    0 -0.69661972123E+01  0.41847971095E+01  0.34545766001E+03  0.35478761428E+03  0.80419002446E+02 0.  0.
        -24    1    1    2    0    0  0.69661972123E+01 -0.41847971095E+01  0.42936230987E+03  0.43690416515E+03  0.80419002446E+02 0.  0.
<mgrwt>
<rscale>  0 0.80828572E+02</rscale>
<asrwt>0</asrwt>
<pdfrwt beam="1">  1        2 0.12050085E+00 0.80828582E+02</pdfrwt>
<pdfrwt beam="2">  1       -2 0.12978321E-02 0.80828582E+02</pdfrwt>
<totfact> 0.46915022E+04</totfact>
</mgrwt>
</event>
<event>
 4    1  0.4862093E-001  0.8081948E+02  0.7546771E-02  0.1326742E+00
          1   -1    0    0  501    0  0.00000000000E+00  0.00000000000E+00  0.19684653133E+03  0.19684653133E+03  0.00000000000E+00 0. -1.
         -1   -1    0    0    0  501 -0.00000000000E+00 -0.00000000000E+00 -0.51939434970E+02  0.51939434970E+02  0.00000000000E+00 0.  1.
         24    1    1    2    0    0  0.97499184635E+00 -0.79763727598E+01 -0.23000980759E+01  0.80852207991E+02  0.80419002446E+02 0.  0.
        -24    1    1    2    0    0 -0.97499184635E+00  0.79763727598E+01  0.14720719444E+03  0.16793375831E+03  0.80419002446E+02 0. -1.
<mgrwt>
<rscale>  0 0.80819485E+02</rscale>
<asrwt>0</asrwt>
<pdfrwt beam="1">  1        1 0.30284081E-01 0.80819485E+02</pdfrwt>
<pdfrwt beam="2">  1       -1 0.79906824E-02 0.80819485E+02</pdfrwt>
<totfact> 0.11564200E+04</totfact>
</mgrwt>
</event>
<event>
 4    1  0.4862093E-001  0.8536548E+02  0.7546771E-02  0.1314480E+00
          2   -1    0    0  501    0  0.00000000000E+00  0.00000000000E+00  0.59934801091E+03  0.59934801091E+03  0.00000000000E+00 0. -1.
         -2   -1    0    0    0  501 -0.00000000000E+00 -0.00000000000E+00 -0.42057948483E+02  0.42057948483E+02  0.00000000000E+00 0.  1.
         24    1    1    2    0    0  0.16080680068E+02 -0.23695179897E+02  0.54904672936E+03  0.55564338995E+03  0.80419002446E+02 0. -1.
        -24    1    1    2    0    0 -0.16080680068E+02  0.23695179897E+02  0.82433330607E+01  0.85762569435E+02  0.80419002446E+02 0.  1.
<mgrwt>
<rscale>  0 0.85365484E+02</rscale>
<asrwt>0</asrwt>
<pdfrwt beam="1">  1        2 0.92207380E-01 0.85365484E+02</pdfrwt>
<pdfrwt beam="2">  1       -2 0.64704541E-02 0.85365484E+02</pdfrwt>
<totfact> 0.62281274E+03</totfact>
</mgrwt>
</event>
<event>
 4    1  0.4862093E-001  0.1264586E+03  0.7546771E-02  0.1232807E+00
          1   -1    0    0  501    0  0.00000000000E+00  0.00000000000E+00  0.80566755292E+03  0.80566755292E+03  0.00000000000E+00 0. -1.
         -1   -1    0    0    0  501 -0.00000000000E+00 -0.00000000000E+00 -0.37265887400E+02  0.37265887400E+02  0.00000000000E+00 0.  1.
         24    1    1    2    0    0 -0.50049797579E+01 -0.97465447198E+02  0.96068810503E+02  0.15881119459E+03  0.80419002446E+02 0.  1.
        -24    1    1    2    0    0  0.50049797579E+01  0.97465447198E+02  0.67233285502E+03  0.68412224573E+03  0.80419002446E+02 0. -1.
<mgrwt>
<rscale>  0 0.12645861E+03</rscale>
<asrwt>0</asrwt>
<pdfrwt beam="1">  1        1 0.12394884E+00 0.12645861E+03</pdfrwt>
<pdfrwt beam="2">  1       -1 0.57332140E-02 0.12645861E+03</pdfrwt>
<totfact> 0.31886206E+03</totfact>
</mgrwt>
</event>
<event>
 4    1  0.4862093E-001  0.8204977E+02  0.7546771E-02  0.1323333E+00
         -2   -1    0    0    0  501 -0.00000000000E+00  0.00000000000E+00  0.13826644836E+02  0.13826644836E+02  0.00000000000E+00 0.  1.
          2   -1    0    0  501    0  0.00000000000E+00 -0.00000000000E+00 -0.14229299599E+04  0.14229299599E+04  0.00000000000E+00 0. -1.
         24    1    1    2    0    0 -0.10308872386E+02  0.12596646120E+02 -0.12872003918E+04  0.12898127822E+04  0.80419002446E+02 0. -1.
        -24    1    1    2    0    0  0.10308872386E+02 -0.12596646120E+02 -0.12190292318E+03  0.14694382253E+03  0.80419002446E+02 0.  0.
<mgrwt>
<rscale>  0 0.82049767E+02</rscale>
<asrwt>0</asrwt>
<pdfrwt beam="1">  1        2 0.21891231E+00 0.82049767E+02</pdfrwt>
<pdfrwt beam="2">  1       -2 0.21271760E-02 0.82049767E+02</pdfrwt>
<totfact> 0.10053072E+04</totfact>
</mgrwt>
</event>
<event>
 4    1  0.4862093E-001  0.1080360E+03  0.7546771E-02  0.1264251E+00
          1   -1    0    0  501    0  0.00000000000E+00  0.00000000000E+00  0.10709610052E+03  0.10709610052E+03  0.00000000000E+00 0. -1.
         -1   -1    0    0    0  501 -0.00000000000E+00 -0.00000000000E+00 -0.23285717921E+03  0.23285717921E+03  0.00000000000E+00 0.  1.
         24    1    1    2    0    0  0.64211047871E+02 -0.32886243013E+02 -0.18685515426E+03  0.21583935757E+03  0.80419002446E+02 0.  1.
        -24    1    1    2    0    0 -0.64211047871E+02  0.32886243013E+02  0.61094075581E+02  0.12411392216E+03  0.80419002446E+02 0. -1.
<mgrwt>
<rscale>  0 0.10803601E+03</rscale>
<asrwt>0</asrwt>
<pdfrwt beam="1">  1        1 0.16476323E-01 0.10803601E+03</pdfrwt>
<pdfrwt beam="2">  1       -1 0.35824181E-01 0.10803601E+03</pdfrwt>
<totfact> 0.23714559E+03</totfact>
</mgrwt>
</event>
<event>
 4    1  0.4862093E-001  0.8095817E+02  0.7546771E-02  0.1326354E+00
         -1   -1    0    0    0  501 -0.00000000000E+00  0.00000000000E+00  0.17427643678E+03  0.17427643678E+03  0.00000000000E+00 0.  1.
          1   -1    0    0  501    0  0.00000000000E+00 -0.00000000000E+00 -0.57602289987E+02  0.57602289987E+02  0.00000000000E+00 0. -1.
         24    1    1    2    0    0  0.41086089439E+01 -0.83743280733E+01  0.12664351744E+03  0.15030903666E+03  0.80419002446E+02 0.  0.
        -24    1    1    2    0    0 -0.41086089439E+01  0.83743280733E+01 -0.99693706484E+01  0.81569690104E+02  0.80419002446E+02 0. -1.
<mgrwt>
<rscale>  0 0.80958174E+02</rscale>
<asrwt>0</asrwt>
<pdfrwt beam="1">  1        1 0.88618908E-02 0.80958174E+02</pdfrwt>
<pdfrwt beam="2">  1       -1 0.26811759E-01 0.80958174E+02</pdfrwt>
<totfact> 0.84222370E+03</totfact>
</mgrwt>
</event>
<event>
 4    1  0.4862093E-001  0.8129025E+02  0.7546771E-02  0.1325429E+00
          4   -1    0    0  501    0  0.00000000000E+00  0.00000000000E+00  0.26444908883E+02  0.26444908883E+02  0.00000000000E+00 0. -1.
         -4   -1    0    0    0  501 -0.00000000000E+00 -0.00000000000E+00 -0.70758171107E+03  0.70758171107E+03  0.00000000000E+00 0.  1.
         24    1    1    2    0    0 -0.10642941512E+02  0.52551501950E+01 -0.45390480337E+02  0.93104245162E+02  0.80419002446E+02 0. -1.
        -24    1    1    2    0    0  0.10642941512E+02 -0.52551501950E+01 -0.63574632185E+03  0.64092237479E+03  0.80419002446E+02 0.  0.
<mgrwt>
<rscale>  0 0.81290250E+02</rscale>
<asrwt>0</asrwt>
<pdfrwt beam="1">  1        4 0.40684475E-02 0.81290250E+02</pdfrwt>
<pdfrwt beam="2">  1       -4 0.10885872E+00 0.81290250E+02</pdfrwt>
<totfact> 0.34882366E+02</totfact>
</mgrwt>
</event>
<event>
 4    1  0.4862093E-001  0.8176662E+02  0.7546771E-02  0.1324111E+00
         -4   -1    0    0    0  501 -0.00000000000E+00  0.00000000000E+00  0.42185892304E+03  0.42185892304E+03  0.00000000000E+00 0.  1.
          4   -1    0    0  501    0  0.00000000000E+00 -0.00000000000E+00 -0.17340412706E+02  0.17340412706E+02  0.00000000000E+00 0. -1.
         24    1    1    2    0    0 -0.11657267381E+02 -0.90924178919E+01  0.13784361175E+03  0.16027052505E+03  0.80419002446E+02 0. -1.
        -24    1    1    2    0    0  0.11657267381E+02  0.90924178919E+01  0.26667489858E+03  0.27892881069E+03  0.80419002446E+02 0.  0.
<mgrwt>
<rscale>  0 0.81766618E+02</rscale>
<asrwt>0</asrwt>
<pdfrwt beam="1">  1        4 0.26677561E-02 0.81766618E+02</pdfrwt>
<pdfrwt beam="2">  1       -4 0.64901365E-01 0.81766618E+02</pdfrwt>
<totfact> 0.21096259E+03</totfact>
</mgrwt>
</event>
<event>
 4    1  0.4862093E-001  0.9084917E+02  0.7546771E-02  0.1300808E+00
          2   -1    0    0  501    0  0.00000000000E+00  0.00000000000E+00  0.11032365787E+04  0.11032365787E+04  0.00000000000E+00 0. -1.
         -2   -1    0    0    0  501 -0.00000000000E+00 -0.00000000000E+00 -0.90806437922E+01  0.90806437922E+01  0.00000000000E+00 0.  1.
         24    1    1    2    0    0 -0.35269440334E+02 -0.23289972380E+02  0.78048829884E+03  0.78575795052E+03  0.80419002446E+02 0. -1.
        -24    1    1    2    0    0  0.35269440334E+02  0.23289972380E+02  0.31366763602E+03  0.32655927192E+03  0.80419002446E+02 0.  1.
<mgrwt>
<rscale>  0 0.90849173E+02</rscale>
<asrwt>0</asrwt>
<pdfrwt beam="1">  1        2 0.16972860E+00 0.90849173E+02</pdfrwt>
<pdfrwt beam="2">  1       -2 0.13970230E-02 0.90849173E+02</pdfrwt>
<totfact> 0.27368535E+04</totfact>
</mgrwt>
</event>
<event>
 4    1  0.4862093E-001  0.8079555E+02  0.7546771E-02  0.1326809E+00
          2   -1    0    0  501    0  0.00000000000E+00  0.00000000000E+00  0.13468615738E+04  0.13468615738E+04  0.00000000000E+00 0. -1.
         -2   -1    0    0    0  501 -0.00000000000E+00 -0.00000000000E+00 -0.51954415252E+01  0.51954415252E+01  0.00000000000E+00 0.  1.
         24    1    1    2    0    0 -0.67272735099E+01 -0.39303947180E+01  0.84596517113E+03  0.84981468034E+03  0.80419002446E+02 0. -1.
        -24    1    1    2    0    0  0.67272735099E+01  0.39303947180E+01  0.49570096115E+03  0.50224233498E+03  0.80419002446E+02 0.  1.
<mgrwt>
<rscale>  0 0.80795545E+02</rscale>
<asrwt>0</asrwt>
<pdfrwt beam="1">  1        2 0.20720919E+00 0.80795545E+02</pdfrwt>
<pdfrwt beam="2">  1       -2 0.79929977E-03 0.80795545E+02</pdfrwt>
<totfact> 0.44073310E+04</totfact>
</mgrwt>
</event>
<event>
 4    1  0.4862093E-001  0.8423963E+02  0.7546771E-02  0.1317433E+00
         -2   -1    0    0    0  501 -0.00000000000E+00  0.00000000000E+00  0.52711284778E+03  0.52711284778E+03  0.00000000000E+00 0.  1.
          2   -1    0    0  501    0  0.00000000000E+00 -0.00000000000E+00 -0.14765624219E+02  0.14765624219E+02  0.00000000000E+00 0. -1.
         24    1    1    2    0    0  0.23949606802E+02 -0.74509216026E+01  0.17568763712E+03  0.19483957937E+03  0.80419002446E+02 0.  1.
        -24    1    1    2    0    0 -0.23949606802E+02  0.74509216026E+01  0.33665958644E+03  0.34703889263E+03  0.80419002446E+02 0.  0.
<mgrwt>
<rscale>  0 0.84239634E+02</rscale>
<asrwt>0</asrwt>
<pdfrwt beam="1">  1        2 0.22716349E-02 0.84239634E+02</pdfrwt>
<pdfrwt beam="2">  1       -2 0.81094270E-01 0.84239634E+02</pdfrwt>
<totfact> 0.57035126E+03</totfact>
</mgrwt>
</event>
<event>
 4    1  0.4862093E-001  0.9319641E+02  0.7546771E-02  0.1295291E+00
          3   -1    0    0  501    0  0.00000000000E+00  0.00000000000E+00  0.25216177574E+02  0.25216177574E+02  0.00000000000E+00 0. -1.
         -3   -1    0    0    0  501 -0.00000000000E+00 -0.00000000000E+00 -0.38596979735E+03  0.38596979735E+03  0.00000000000E+00 0.  1.
         24    1    1    2    0    0 -0.36435061596E+02  0.29846952364E+02 -0.24781233224E+03  0.26475747817E+03  0.80419002446E+02 0. -1.
        -24    1    1    2    0    0  0.36435061596E+02 -0.29846952364E+02 -0.11294128753E+03  0.14642849676E+03  0.80419002446E+02 0. -1.
<mgrwt>
<rscale>  0 0.93196407E+02</rscale>
<asrwt>0</asrwt>
<pdfrwt beam="1">  1        3 0.38794120E-02 0.93196407E+02</pdfrwt>
<pdfrwt beam="2">  1       -3 0.59379968E-01 0.93196407E+02</pdfrwt>
<totfact> 0.20470166E+03</totfact>
</mgrwt>
</event>
<event>
 4    1  0.4862093E-001  0.8061588E+02  0.7546771E-02  0.1327313E+00
         -1   -1    0    0    0  501 -0.00000000000E+00  0.00000000000E+00  0.21094533883E+02  0.21094533883E+02  0.00000000000E+00 0.  1.
          1   -1    0    0  501    0  0.00000000000E+00 -0.00000000000E+00 -0.11706510696E+04  0.11706510696E+04  0.00000000000E+00 0. -1.
         24    1    1    2    0    0 -0.47584826190E+01 -0.30100238255E+01 -0.63289740556E+02  0.10249151484E+03  0.80419002446E+02 0.  1.
        -24    1    1    2    0    0  0.47584826190E+01  0.30100238255E+01 -0.10862667952E+04  0.10892540887E+04  0.80419002446E+02 0.  0.
<mgrwt>
<rscale>  0 0.80615875E+02</rscale>
<asrwt>0</asrwt>
<pdfrwt beam="1">  1        1 0.18010021E+00 0.80615875E+02</pdfrwt>
<pdfrwt beam="2">  1       -1 0.32453120E-02 0.80615875E+02</pdfrwt>
<totfact> 0.38911144E+03</totfact>
</mgrwt>
</event>
<event>
 4    1  0.4862093E-001  0.1052945E+03  0.7546771E-02  0.1269541E+00
         -1   -1    0    0    0  501 -0.00000000000E+00  0.00000000000E+00  0.53801809460E+02  0.53801809460E+02  0.00000000000E+00 0.  1.
          1   -1    0    0  501    0  0.00000000000E+00 -0.00000000000E+00 -0.20761573140E+03  0.20761573140E+03  0.00000000000E+00 0. -1.
         24    1    1    2    0    0  0.18427770331E+02  0.65422623295E+02 -0.88186602578E+02  0.13734553210E+03  0.80419002446E+02 0.  0.
        -24    1    1    2    0    0 -0.18427770331E+02 -0.65422623295E+02 -0.65627319368E+02  0.12407200877E+03  0.80419002446E+02 0.  0.
<mgrwt>
<rscale>  0 0.10529445E+03</rscale>
<asrwt>0</asrwt>
<pdfrwt beam="1">  1        1 0.31940882E-01 0.10529446E+03</pdfrwt>
<pdfrwt beam="2">  1       -1 0.82772015E-02 0.10529446E+03</pdfrwt>
<totfact> 0.10531606E+04</totfact>
</mgrwt>
</event>
<event>
 4    1  0.4862093E-001  0.8273177E+02  0.7546771E-02  0.1321473E+00
          1   -1    0    0  501    0  0.00000000000E+00  0.00000000000E+00  0.24322761056E+04  0.24322761056E+04  0.00000000000E+00 0. -1.
         -1   -1    0    0    0  501 -0.00000000000E+00 -0.00000000000E+00 -0.33778813653E+01  0.33778813653E+01  0.00000000000E+00 0.  1.
         24    1    1    2    0    0  0.64565559340E+01  0.18320566439E+02  0.71689757628E+03  0.72165551415E+03  0.80419002446E+02 0.  1.
        -24    1    1    2    0    0 -0.64565559340E+01 -0.18320566439E+02  0.17120006479E+04  0.17139984728E+04  0.80419002446E+02 0.  0.
<mgrwt>
<rscale>  0 0.82731773E+02</rscale>
<asrwt>0</asrwt>
<pdfrwt beam="1">  1        1 0.37419492E+00 0.82731773E+02</pdfrwt>
<pdfrwt beam="2">  1       -1 0.51967600E-03 0.82731773E+02</pdfrwt>
<totfact> 0.82161334E+03</totfact>
</mgrwt>
</event>
<event>
 4    1  0.4862093E-001  0.8452441E+02  0.7546771E-02  0.1316681E+00
         -2   -1    0    0    0  501 -0.00000000000E+00  0.00000000000E+00  0.52611282405E+01  0.52611282405E+01  0.00000000000E+00 0.  1.
          2   -1    0    0  501    0  0.00000000000E+00 -0.00000000000E+00 -0.13585233875E+04  0.13585233875E+04  0.00000000000E+00 0. -1.
         24    1    1    2    0    0 -0.21545732055E+02  0.14592495298E+02 -0.69057878859E+03  0.69573230390E+03  0.80419002446E+02 0. -1.
        -24    1    1    2    0    0  0.21545732055E+02 -0.14592495298E+02 -0.66268347069E+03  0.66805221186E+03  0.80419002446E+02 0.  0.
<mgrwt>
<rscale>  0 0.84524407E+02</rscale>
<asrwt>0</asrwt>
<pdfrwt beam="1">  1        2 0.20900391E+00 0.84524407E+02</pdfrwt>
<pdfrwt beam="2">  1       -2 0.80940313E-03 0.84524407E+02</pdfrwt>
<totfact> 0.42894199E+04</totfact>
</mgrwt>
</event>
<event>
 4    1  0.4862093E-001  0.9483991E+02  0.7546771E-02  0.1291537E+00
         -2   -1    0    0    0  501 -0.00000000000E+00  0.00000000000E+00  0.59893164913E+01  0.59893164913E+01  0.00000000000E+00 0.  1.
          2   -1    0    0  501    0  0.00000000000E+00 -0.00000000000E+00 -0.16661553991E+04  0.16661553991E+04  0.00000000000E+00 0. -1.
         24    1    1    2    0    0 -0.20084932758E+02 -0.46086736650E+02 -0.10926926949E+04  0.10968007719E+04  0.80419002446E+02 0. -1.
        -24    1    1    2    0    0  0.20084932758E+02  0.46086736650E+02 -0.56747338769E+03  0.57534394367E+03  0.80419002446E+02 0.  1.
<mgrwt>
<rscale>  0 0.94839906E+02</rscale>
<asrwt>0</asrwt>
<pdfrwt beam="1">  1        2 0.25633193E+00 0.94839906E+02</pdfrwt>
<pdfrwt beam="2">  1       -2 0.92143214E-03 0.94839906E+02</pdfrwt>
<totfact> 0.25123862E+04</totfact>
</mgrwt>
</event>
<event>
 4    1  0.4862093E-001  0.8975594E+02  0.7546771E-02  0.1303444E+00
          1   -1    0    0  501    0  0.00000000000E+00  0.00000000000E+00  0.20119982446E+04  0.20119982446E+04  0.00000000000E+00 0. -1.
         -1   -1    0    0    0  501 -0.00000000000E+00 -0.00000000000E+00 -0.52867710495E+01  0.52867710495E+01  0.00000000000E+00 0.  1.
         24    1    1    2    0    0  0.33229209981E+02  0.22016646909E+02  0.50652417601E+03  0.51441507557E+03  0.80419002446E+02 0.  0.
        -24    1    1    2    0    0 -0.33229209981E+02 -0.22016646909E+02  0.15001872976E+04  0.15028699401E+04  0.80419002446E+02 0.  0.
<mgrwt>
<rscale>  0 0.89755942E+02</rscale>
<asrwt>0</asrwt>
<pdfrwt beam="1">  1        1 0.30953758E+00 0.89755942E+02</pdfrwt>
<pdfrwt beam="2">  1       -1 0.81335100E-03 0.89755942E+02</pdfrwt>
<totfact> 0.81080496E+03</totfact>
</mgrwt>
</event>
<event>
 4    1  0.4862093E-001  0.1011202E+03  0.7546771E-02  0.1277958E+00
          1   -1    0    0  501    0  0.00000000000E+00  0.00000000000E+00  0.21693961050E+03  0.21693961050E+03  0.00000000000E+00 0. -1.
         -1   -1    0    0    0  501 -0.00000000000E+00 -0.00000000000E+00 -0.52062606946E+02  0.52062606946E+02  0.00000000000E+00 0.  1.
         24    1    1    2    0    0  0.19763866698E+02 -0.58029937279E+02  0.41056536751E+02  0.10913724942E+03  0.80419002446E+02 0.  1.
        -24    1    1    2    0    0 -0.19763866698E+02  0.58029937279E+02  0.12382046681E+03  0.15986496803E+03  0.80419002446E+02 0. -1.
<mgrwt>
<rscale>  0 0.10112023E+03</rscale>
<asrwt>0</asrwt>
<pdfrwt beam="1">  1        1 0.33375324E-01 0.10112023E+03</pdfrwt>
<pdfrwt beam="2">  1       -1 0.80096320E-02 0.10112023E+03</pdfrwt>
<totfact> 0.10444395E+04</totfact>
</mgrwt>
</event>
<event>
 4    1  0.4862093E-001  0.9777678E+02  0.7546771E-02  0.1285042E+00
          2   -1    0    0  501    0  0.00000000000E+00  0.00000000000E+00  0.24757524378E+03  0.24757524378E+03  0.00000000000E+00 0. -1.
         -2   -1    0    0    0  501 -0.00000000000E+00 -0.00000000000E+00 -0.39120300840E+02  0.39120300840E+02  0.00000000000E+00 0.  1.
         24    1    1    2    0    0 -0.50584382653E+02 -0.23114976803E+02  0.12050739955E+03  0.15518482923E+03  0.80419002446E+02 0.  1.
        -24    1    1    2    0    0  0.50584382653E+02  0.23114976803E+02  0.87947543386E+02  0.13151071539E+03  0.80419002446E+02 0. -1.
<mgrwt>
<rscale>  0 0.97776776E+02</rscale>
<asrwt>0</asrwt>
<pdfrwt beam="1">  1        2 0.38088498E-01 0.97776776E+02</pdfrwt>
<pdfrwt beam="2">  1       -2 0.60185080E-02 0.97776776E+02</pdfrwt>
<totfact> 0.17968161E+04</totfact>
</mgrwt>
</event>
<event>
 4    1  0.4862093E-001  0.8970578E+02  0.7546771E-02  0.1303566E+00
          2   -1    0    0  501    0  0.00000000000E+00  0.00000000000E+00  0.74443472485E+03  0.74443472485E+03  0.00000000000E+00 0. -1.
         -2   -1    0    0    0  501 -0.00000000000E+00 -0.00000000000E+00 -0.42788962846E+02  0.42788962846E+02  0.00000000000E+00 0.  1.
         24    1    1    2    0    0  0.37846908616E+02  0.12145908851E+02  0.69110286007E+03  0.69690048841E+03  0.80419002446E+02 0. -1.
        -24    1    1    2    0    0 -0.37846908616E+02 -0.12145908851E+02  0.10542901932E+02  0.90323199285E+02  0.80419002446E+02 0.  1.
<mgrwt>
<rscale>  0 0.89705783E+02</rscale>
<asrwt>0</asrwt>
<pdfrwt beam="1">  1        2 0.11452841E+00 0.89705783E+02</pdfrwt>
<pdfrwt beam="2">  1       -2 0.65829179E-02 0.89705783E+02</pdfrwt>
<totfact> 0.47436693E+03</totfact>
</mgrwt>
</event>
<event>
 4    1  0.4862093E-001  0.1065304E+03  0.7546771E-02  0.1267133E+00
         -2   -1    0    0    0  501 -0.00000000000E+00  0.00000000000E+00  0.35637148459E+02  0.35637148459E+02  0.00000000000E+00 0.  1.
          2   -1    0    0  501    0  0.00000000000E+00 -0.00000000000E+00 -0.76880292494E+03  0.76880292494E+03  0.00000000000E+00 0. -1.
         24    1    1    2    0    0  0.30069139154E+02  0.63066217228E+02 -0.67442765585E+03  0.68278941103E+03  0.80419002446E+02 0. -1.
        -24    1    1    2    0    0 -0.30069139154E+02 -0.63066217228E+02 -0.58738120628E+02  0.12165066237E+03  0.80419002446E+02 0.  1.
<mgrwt>
<rscale>  0 0.10653036E+03</rscale>
<asrwt>0</asrwt>
<pdfrwt beam="1">  1        2 0.11827736E+00 0.10653036E+03</pdfrwt>
<pdfrwt beam="2">  1       -2 0.54826390E-02 0.10653036E+03</pdfrwt>
<totfact> 0.60633472E+03</totfact>
</mgrwt>
</event>
<event>
 4    1  0.4862093E-001  0.8090216E+02  0.7546771E-02  0.1326511E+00
          2   -1    0    0  501    0  0.00000000000E+00  0.00000000000E+00  0.78190072344E+02  0.78190072344E+02  0.00000000000E+00 0. -1.
         -2   -1    0    0    0  501 -0.00000000000E+00 -0.00000000000E+00 -0.88006596608E+02  0.88006596608E+02  0.00000000000E+00 0.  1.
         24    1    1    2    0    0 -0.73917846546E+01 -0.48275541882E+01  0.13456352119E+02  0.82013615495E+02  0.80419002446E+02 0. -1.
        -24    1    1    2    0    0  0.73917846546E+01  0.48275541882E+01 -0.23272876383E+02  0.84183053457E+02  0.80419002446E+02 0.  0.
<mgrwt>
<rscale>  0 0.80902161E+02</rscale>
<asrwt>0</asrwt>
<pdfrwt beam="1">  1        2 0.12029242E-01 0.80902161E+02</pdfrwt>
<pdfrwt beam="2">  1       -2 0.13539476E-01 0.80902161E+02</pdfrwt>
<totfact> 0.18113297E+04</totfact>
</mgrwt>
</event>
<event>
 4    1  0.4862093E-001  0.8840297E+02  0.7546771E-02  0.1306766E+00
          2   -1    0    0  501    0  0.00000000000E+00  0.00000000000E+00  0.18394982170E+04  0.18394982170E+04  0.00000000000E+00 0. -1.
         -2   -1    0    0    0  501 -0.00000000000E+00 -0.00000000000E+00 -0.50384213192E+01  0.50384213192E+01  0.00000000000E+00 0.  1.
         24    1    1    2    0    0 -0.53809465398E+01 -0.36316868712E+02  0.12824085297E+04  0.12854519526E+04  0.80419002446E+02 0. -1.
        -24    1    1    2    0    0  0.53809465398E+01  0.36316868712E+02  0.55205126603E+03  0.55908468573E+03  0.80419002446E+02 0.  1.
<mgrwt>
<rscale>  0 0.88402972E+02</rscale>
<asrwt>0</asrwt>
<pdfrwt beam="1">  1        2 0.28299919E+00 0.88402972E+02</pdfrwt>
<pdfrwt beam="2">  1       -2 0.77514321E-03 0.88402972E+02</pdfrwt>
<totfact> 0.26112149E+04</totfact>
</mgrwt>
</event>
<event>
 4    1  0.4862093E-001  0.1382433E+03  0.7546771E-02  0.1215712E+00
         -2   -1    0    0    0  501 -0.00000000000E+00  0.00000000000E+00  0.83617605131E+03  0.83617605131E+03  0.00000000000E+00 0.  1.
          2   -1    0    0  501    0  0.00000000000E+00 -0.00000000000E+00 -0.23727654298E+02  0.23727654298E+02  0.00000000000E+00 0. -1.
         24    1    1    2    0    0 -0.67025374858E+02 -0.90286216983E+02  0.32379325784E+03  0.35207000956E+03  0.80419002446E+02 0. -1.
        -24    1    1    2    0    0  0.67025374858E+02  0.90286216983E+02  0.48865513917E+03  0.50783369605E+03  0.80419002446E+02 0.  1.
<mgrwt>
<rscale>  0 0.13824333E+03</rscale>
<asrwt>0</asrwt>
<pdfrwt beam="1">  1        2 0.36504090E-02 0.13824333E+03</pdfrwt>
<pdfrwt beam="2">  1       -2 0.12864245E+00 0.13824333E+03</pdfrwt>
<totfact> 0.10871859E+03</totfact>
</mgrwt>
</event>
<event>
 4    1  0.4862093E-001  0.1382430E+03  0.7546771E-02  0.1215713E+00
          2   -1    0    0  501    0  0.00000000000E+00  0.00000000000E+00  0.20196155043E+04  0.20196155043E+04  0.00000000000E+00 0. -1.
         -2   -1    0    0    0  501 -0.00000000000E+00 -0.00000000000E+00 -0.10382729574E+02  0.10382729574E+02  0.00000000000E+00 0.  1.
         24    1    1    2    0    0 -0.11088220541E+03  0.18682621144E+02  0.13067497035E+04  0.13140418210E+04  0.80419002446E+02 0. -1.
        -24    1    1    2    0    0  0.11088220541E+03 -0.18682621144E+02  0.70248307125E+03  0.71595641289E+03  0.80419002446E+02 0.  1.
<mgrwt>
<rscale>  0 0.13824297E+03</rscale>
<asrwt>0</asrwt>
<pdfrwt beam="1">  1        2 0.31070977E+00 0.13824297E+03</pdfrwt>
<pdfrwt beam="2">  1       -2 0.15973446E-02 0.13824297E+03</pdfrwt>
<totfact> 0.77090275E+03</totfact>
</mgrwt>
</event>
<event>
 4    1  0.4862093E-001  0.8505974E+02  0.7546771E-02  0.1315276E+00
         -1   -1    0    0    0  501 -0.00000000000E+00  0.00000000000E+00  0.44007396732E+03  0.44007396732E+03  0.00000000000E+00 0.  1.
          1   -1    0    0  501    0  0.00000000000E+00 -0.00000000000E+00 -0.28227668039E+03  0.28227668039E+03  0.00000000000E+00 0. -1.
         24    1    1    2    0    0 -0.27496852978E+02  0.34447864110E+01  0.42939812936E+03  0.43774183365E+03  0.80419002446E+02 0.  1.
        -24    1    1    2    0    0  0.27496852978E+02 -0.34447864110E+01 -0.27160084243E+03  0.28460881406E+03  0.80419002446E+02 0. -1.
<mgrwt>
<rscale>  0 0.85059740E+02</rscale>
<asrwt>0</asrwt>
<pdfrwt beam="1">  1        1 0.43427182E-01 0.85059740E+02</pdfrwt>
<pdfrwt beam="2">  1       -1 0.67703687E-01 0.85059740E+02</pdfrwt>
<totfact> 0.22428537E+02</totfact>
</mgrwt>
</event>
<event>
 4    1  0.4862093E-001  0.8338651E+02  0.7546771E-02  0.1319707E+00
         -2   -1    0    0    0  501 -0.00000000000E+00  0.00000000000E+00  0.63354855055E+01  0.63354855055E+01  0.00000000000E+00 0.  1.
          2   -1    0    0  501    0  0.00000000000E+00 -0.00000000000E+00 -0.28706407251E+04  0.28706407251E+04  0.00000000000E+00 0. -1.
         24    1    1    2    0    0  0.21499660632E+02  0.48844970958E+01 -0.25626934363E+04  0.25640497184E+04  0.80419002446E+02 0. -1.
        -24    1    1    2    0    0 -0.21499660632E+02 -0.48844970958E+01 -0.30161180328E+03  0.31292649225E+03  0.80419002446E+02 0.  1.
<mgrwt>
<rscale>  0 0.83386508E+02</rscale>
<asrwt>0</asrwt>
<pdfrwt beam="1">  1        2 0.44163735E+00 0.83386508E+02</pdfrwt>
<pdfrwt beam="2">  1       -2 0.97468937E-03 0.83386508E+02</pdfrwt>
<totfact> 0.55031382E+03</totfact>
</mgrwt>
</event>
<event>
 4    1  0.4862093E-001  0.8303873E+02  0.7546771E-02  0.1320643E+00
         -1   -1    0    0    0  501 -0.00000000000E+00  0.00000000000E+00  0.37713009314E+01  0.37713009314E+01  0.00000000000E+00 0.  1.
          1   -1    0    0  501    0  0.00000000000E+00 -0.00000000000E+00 -0.25653084585E+04  0.25653084585E+04  0.00000000000E+00 0. -1.
         24    1    1    2    0    0 -0.95283702310E+01 -0.18369112135E+02 -0.59229724962E+03  0.59808984441E+03  0.80419002446E+02 0.  0.
        -24    1    1    2    0    0  0.95283702310E+01  0.18369112135E+02 -0.19692399080E+04  0.19709899150E+04  0.80419002446E+02 0.  0.
<mgrwt>
<rscale>  0 0.83038726E+02</rscale>
<asrwt>0</asrwt>
<pdfrwt beam="1">  1        1 0.39466258E+00 0.83038726E+02</pdfrwt>
<pdfrwt beam="2">  1       -1 0.58020053E-03 0.83038726E+02</pdfrwt>
<totfact> 0.57877621E+03</totfact>
</mgrwt>
</event>
<event>
 4    1  0.4862093E-001  0.1052765E+03  0.7546771E-02  0.1269576E+00
         -2   -1    0    0    0  501 -0.00000000000E+00  0.00000000000E+00  0.14354564544E+02  0.14354564544E+02  0.00000000000E+00 0.  1.
          2   -1    0    0  501    0  0.00000000000E+00 -0.00000000000E+00 -0.10824827480E+04  0.10824827480E+04  0.00000000000E+00 0. -1.
         24    1    1    2    0    0  0.67910756550E+02 -0.20157737111E+01 -0.82772826108E+03  0.83439632330E+03  0.80419002446E+02 0. -1.
        -24    1    1    2    0    0 -0.67910756550E+02  0.20157737111E+01 -0.24039992234E+03  0.26244098920E+03  0.80419002446E+02 0.  1.
<mgrwt>
<rscale>  0 0.10527654E+03</rscale>
<asrwt>0</asrwt>
<pdfrwt beam="1">  1        2 0.16653580E+00 0.10527654E+03</pdfrwt>
<pdfrwt beam="2">  1       -2 0.22083946E-02 0.10527654E+03</pdfrwt>
<totfact> 0.14749152E+04</totfact>
</mgrwt>
</event>
<event>
 4    1  0.4862093E-001  0.9371988E+02  0.7546771E-02  0.1294086E+00
         -1   -1    0    0    0  501 -0.00000000000E+00  0.00000000000E+00  0.61123493618E+01  0.61123493618E+01  0.00000000000E+00 0.  1.
          1   -1    0    0  501    0  0.00000000000E+00 -0.00000000000E+00 -0.23115026952E+04  0.23115026952E+04  0.00000000000E+00 0. -1.
         24    1    1    2    0    0  0.47950135560E+02  0.41212191190E+01 -0.43993093095E+03  0.44980289006E+03  0.80419002446E+02 0.  1.
        -24    1    1    2    0    0 -0.47950135560E+02 -0.41212191190E+01 -0.18654594149E+04  0.18678121545E+04  0.80419002446E+02 0. -1.
<mgrwt>
<rscale>  0 0.93719880E+02</rscale>
<asrwt>0</asrwt>
<pdfrwt beam="1">  1        1 0.35561622E+00 0.93719880E+02</pdfrwt>
<pdfrwt beam="2">  1       -1 0.94036033E-03 0.93719880E+02</pdfrwt>
<totfact> 0.42851349E+03</totfact>
</mgrwt>
</event>
<event>
 4    1  0.4862093E-001  0.8770927E+02  0.7546771E-02  0.1308496E+00
         -1   -1    0    0    0  501 -0.00000000000E+00  0.00000000000E+00  0.24964575432E+04  0.24964575432E+04  0.00000000000E+00 0.  1.
          1   -1    0    0  501    0  0.00000000000E+00 -0.00000000000E+00 -0.19698700971E+02  0.19698700971E+02  0.00000000000E+00 0. -1.
         24    1    1    2    0    0 -0.17021527419E+02  0.30593579943E+02  0.23938724387E+04  0.23954786930E+04  0.80419002446E+02 0.  1.
        -24    1    1    2    0    0  0.17021527419E+02 -0.30593579943E+02  0.82886403511E+02  0.12067755123E+03  0.80419002446E+02 0. -1.
<mgrwt>
<rscale>  0 0.87709267E+02</rscale>
<asrwt>0</asrwt>
<pdfrwt beam="1">  1        1 0.30305714E-02 0.87709267E+02</pdfrwt>
<pdfrwt beam="2">  1       -1 0.38407014E+00 0.87709267E+02</pdfrwt>
<totfact> 0.39873598E+01</totfact>
</mgrwt>
</event>
<event>
 4    1  0.4862093E-001  0.1330043E+03  0.7546771E-02  0.1223065E+00
         -2   -1    0    0    0  501 -0.00000000000E+00  0.00000000000E+00  0.16560522995E+02  0.16560522995E+02  0.00000000000E+00 0.  1.
          2   -1    0    0  501    0  0.00000000000E+00 -0.00000000000E+00 -0.10957417316E+04  0.10957417316E+04  0.00000000000E+00 0. -1.
         24    1    1    2    0    0  0.10593735500E+03  0.43473424972E+00 -0.45143501887E+03  0.47062055246E+03  0.80419002446E+02 0.  1.
        -24    1    1    2    0    0 -0.10593735500E+03 -0.43473424972E+00 -0.62774618969E+03  0.64168170210E+03  0.80419002446E+02 0. -1.
<mgrwt>
<rscale>  0 0.13300426E+03</rscale>
<asrwt>0</asrwt>
<pdfrwt beam="1">  1        2 0.16857572E+00 0.13300427E+03</pdfrwt>
<pdfrwt beam="2">  1       -2 0.25477718E-02 0.13300427E+03</pdfrwt>
<totfact> 0.11951489E+04</totfact>
</mgrwt>
</event>
<event>
 4    1  0.4862093E-001  0.8594221E+02  0.7546771E-02  0.1312987E+00
         -2   -1    0    0    0  501 -0.00000000000E+00  0.00000000000E+00  0.20803634624E+02  0.20803634624E+02  0.00000000000E+00 0.  1.
          2   -1    0    0  501    0  0.00000000000E+00 -0.00000000000E+00 -0.93238702824E+03  0.93238702824E+03  0.00000000000E+00 0. -1.
         24    1    1    2    0    0 -0.19795051633E+02 -0.22956568485E+02 -0.83082617453E+03  0.83525935873E+03  0.80419002446E+02 0. -1.
        -24    1    1    2    0    0  0.19795051633E+02  0.22956568485E+02 -0.80757219084E+02  0.11793130413E+03  0.80419002446E+02 0.  1.
<mgrwt>
<rscale>  0 0.85942213E+02</rscale>
<asrwt>0</asrwt>
<pdfrwt beam="1">  1        2 0.14344419E+00 0.85942213E+02</pdfrwt>
<pdfrwt beam="2">  1       -2 0.32005585E-02 0.85942213E+02</pdfrwt>
<totfact> 0.10396472E+04</totfact>
</mgrwt>
</event>
<event>
 4    1  0.4862093E-001  0.9318338E+02  0.7546771E-02  0.1295321E+00
          2   -1    0    0  501    0  0.00000000000E+00  0.00000000000E+00  0.14631359737E+04  0.14631359737E+04  0.00000000000E+00 0. -1.
         -2   -1    0    0    0  501 -0.00000000000E+00 -0.00000000000E+00 -0.88640263627E+02  0.88640263627E+02  0.00000000000E+00 0.  1.
         24    1    1    2    0    0  0.11185936852E+02  0.45725275601E+02  0.14367125512E+04  0.14397312585E+04  0.80419002446E+02 0. -1.
        -24    1    1    2    0    0 -0.11185936852E+02 -0.45725275601E+02 -0.62216841101E+02  0.11204497884E+03  0.80419002446E+02 0.  1.
<mgrwt>
<rscale>  0 0.93183378E+02</rscale>
<asrwt>0</asrwt>
<pdfrwt beam="1">  1        2 0.22509782E+00 0.93183378E+02</pdfrwt>
<pdfrwt beam="2">  1       -2 0.13636965E-01 0.93183378E+02</pdfrwt>
<totfact> 0.59275353E+02</totfact>
</mgrwt>
</event>
<event>
 4    1  0.4862093E-001  0.9153578E+02  0.7546771E-02  0.1299175E+00
         -1   -1    0    0    0  501 -0.00000000000E+00  0.00000000000E+00  0.65947979340E+02  0.65947979340E+02  0.00000000000E+00 0.  1.
          1   -1    0    0  501    0  0.00000000000E+00 -0.00000000000E+00 -0.23063424803E+03  0.23063424803E+03  0.00000000000E+00 0. -1.
         24    1    1    2    0    0  0.76390398976E+01  0.43049146534E+02  0.17036322212E+02  0.93107659066E+02  0.80419002446E+02 0.  1.
        -24    1    1    2    0    0 -0.76390398976E+01 -0.43049146534E+02 -0.18172259090E+03  0.20347456830E+03  0.80419002446E+02 0. -1.
<mgrwt>
<rscale>  0 0.91535785E+02</rscale>
<asrwt>0</asrwt>
<pdfrwt beam="1">  1        1 0.35482192E-01 0.91535785E+02</pdfrwt>
<pdfrwt beam="2">  1       -1 0.10145843E-01 0.91535785E+02</pdfrwt>
<totfact> 0.67355055E+03</totfact>
</mgrwt>
</event>
<event>
 4    1  0.4862093E-001  0.1385544E+03  0.7546771E-02  0.1215287E+00
          1   -1    0    0  501    0  0.00000000000E+00  0.00000000000E+00  0.38577347778E+03  0.38577347778E+03  0.00000000000E+00 0. -1.
         -1   -1    0    0    0  501 -0.00000000000E+00 -0.00000000000E+00 -0.63640452027E+02  0.63640452027E+02  0.00000000000E+00 0.  1.
         24    1    1    2    0    0  0.83253033991E+02 -0.76151423493E+02  0.56136038579E+02  0.14949440709E+03  0.80419002446E+02 0.  1.
        -24    1    1    2    0    0 -0.83253033991E+02  0.76151423493E+02  0.26599698717E+03  0.29991952272E+03  0.80419002446E+02 0. -1.
<mgrwt>
<rscale>  0 0.13855440E+03</rscale>
<asrwt>0</asrwt>
<pdfrwt beam="1">  1        1 0.59349764E-01 0.13855440E+03</pdfrwt>
<pdfrwt beam="2">  1       -1 0.97908390E-02 0.13855440E+03</pdfrwt>
<totfact> 0.38686778E+03</totfact>
</mgrwt>
</event>
<event>
 4    1  0.4862093E-001  0.8870920E+02  0.7546771E-02  0.1306008E+00
         -2   -1    0    0    0  501 -0.00000000000E+00  0.00000000000E+00  0.25595665522E+03  0.25595665522E+03  0.00000000000E+00 0.  1.
          2   -1    0    0  501    0  0.00000000000E+00 -0.00000000000E+00 -0.33543889604E+02  0.33543889604E+02  0.00000000000E+00 0. -1.
         24    1    1    2    0    0  0.62581815227E+01 -0.36918042277E+02  0.69392048868E+02  0.11262583665E+03  0.80419002446E+02 0. -1.
        -24    1    1    2    0    0 -0.62581815227E+01  0.36918042277E+02  0.15302071674E+03  0.17687470817E+03  0.80419002446E+02 0.  1.
<mgrwt>
<rscale>  0 0.88709203E+02</rscale>
<asrwt>0</asrwt>
<pdfrwt beam="1">  1        2 0.51605986E-02 0.88709203E+02</pdfrwt>
<pdfrwt beam="2">  1       -2 0.39377946E-01 0.88709203E+02</pdfrwt>
<totfact> 0.83504387E+03</totfact>
</mgrwt>
</event>
<event>
 4    1  0.4862093E-001  0.8221863E+02  0.7546771E-02  0.1322871E+00
          2   -1    0    0  501    0  0.00000000000E+00  0.00000000000E+00  0.29975754144E+02  0.29975754144E+02  0.00000000000E+00 0. -1.
         -2   -1    0    0    0  501 -0.00000000000E+00 -0.00000000000E+00 -0.52637104420E+03  0.52637104420E+03  0.00000000000E+00 0.  1.
         24    1    1    2    0    0  0.12098629941E+02  0.12095874519E+02 -0.37892024333E+02  0.90530152376E+02  0.80419002446E+02 0. -1.
        -24    1    1    2    0    0 -0.12098629941E+02 -0.12095874519E+02 -0.45850326572E+03  0.46581664597E+03  0.80419002446E+02 0.  0.
<mgrwt>
<rscale>  0 0.82218629E+02</rscale>
<asrwt>0</asrwt>
<pdfrwt beam="1">  1        2 0.46116546E-02 0.82218629E+02</pdfrwt>
<pdfrwt beam="2">  1       -2 0.80980158E-01 0.82218629E+02</pdfrwt>
<totfact> 0.22443425E+03</totfact>
</mgrwt>
</event>
<event>
 4    1  0.4862093E-001  0.8709990E+02  0.7546771E-02  0.1310031E+00
          2   -1    0    0  501    0  0.00000000000E+00  0.00000000000E+00  0.74398272730E+03  0.74398272730E+03  0.00000000000E+00 0. -1.
         -2   -1    0    0    0  501 -0.00000000000E+00 -0.00000000000E+00 -0.12881902357E+02  0.12881902357E+02  0.00000000000E+00 0.  1.
         24    1    1    2    0    0  0.27680230663E+02  0.18787784224E+02  0.53831807249E+03  0.54531893341E+03  0.80419002446E+02 0.  0.
        -24    1    1    2    0    0 -0.27680230663E+02 -0.18787784224E+02  0.19278275245E+03  0.21154569625E+03  0.80419002446E+02 0.  0.
<mgrwt>
<rscale>  0 0.87099896E+02</rscale>
<asrwt>0</asrwt>
<pdfrwt beam="1">  1        2 0.11445885E+00 0.87099896E+02</pdfrwt>
<pdfrwt beam="2">  1       -2 0.19818317E-02 0.87099896E+02</pdfrwt>
<totfact> 0.27514185E+04</totfact>
</mgrwt>
</event>
<event>
 4    1  0.4862093E-001  0.9115255E+02  0.7546771E-02  0.1300084E+00
          1   -1    0    0  501    0  0.00000000000E+00  0.00000000000E+00  0.32029573176E+03  0.32029573176E+03  0.00000000000E+00 0. -1.
         -1   -1    0    0    0  501 -0.00000000000E+00 -0.00000000000E+00 -0.74314884451E+02  0.74314884451E+02  0.00000000000E+00 0.  1.
         24    1    1    2    0    0  0.17680310470E+02  0.39102138564E+02 -0.36196143526E+02  0.98076232488E+02  0.80419002446E+02 0.  1.
        -24    1    1    2    0    0 -0.17680310470E+02 -0.39102138564E+02  0.28217699084E+03  0.29653438373E+03  0.80419002446E+02 0. -1.
<mgrwt>
<rscale>  0 0.91152546E+02</rscale>
<asrwt>0</asrwt>
<pdfrwt beam="1">  1        1 0.49276266E-01 0.91152546E+02</pdfrwt>
<pdfrwt beam="2">  1       -1 0.11433059E-01 0.91152546E+02</pdfrwt>
<totfact> 0.37623127E+03</totfact>
</mgrwt>
</event>
<event>
 4    1  0.4862093E-001  0.1752946E+03  0.7546771E-02  0.1172436E+00
          2   -1    0    0  501    0  0.00000000000E+00  0.00000000000E+00  0.40130104249E+03  0.40130104249E+03  0.00000000000E+00 0. -1.
         -2   -1    0    0    0  501 -0.00000000000E+00 -0.00000000000E+00 -0.87262962350E+02  0.87262962350E+02  0.00000000000E+00 0.  1.
         24    1    1    2    0    0 -0.20136531521E+02  0.15445223175E+03  0.24252508593E+03  0.29924338766E+03  0.80419002446E+02 0. -1.
        -24    1    1    2    0    0  0.20136531521E+02 -0.15445223175E+03  0.71512994204E+02  0.18932061718E+03  0.80419002446E+02 0.  0.
<mgrwt>
<rscale>  0 0.17529457E+03</rscale>
<asrwt>0</asrwt>
<pdfrwt beam="1">  1        2 0.61738621E-01 0.17529457E+03</pdfrwt>
<pdfrwt beam="2">  1       -2 0.13425071E-01 0.17529457E+03</pdfrwt>
<totfact> 0.32086581E+03</totfact>
</mgrwt>
</event>
<event>
 4    1  0.4862093E-001  0.1966079E+03  0.7546771E-02  0.1152633E+00
          2   -1    0    0  501    0  0.00000000000E+00  0.00000000000E+00  0.15619234204E+04  0.15619234204E+04  0.00000000000E+00 0. -1.
         -2   -1    0    0    0  501 -0.00000000000E+00 -0.00000000000E+00 -0.27486688300E+02  0.27486688300E+02  0.00000000000E+00 0.  1.
         24    1    1    2    0    0 -0.12372478664E+03 -0.12992163044E+03  0.10180639872E+04  0.10368746071E+04  0.80419002446E+02 0. -1.
        -24    1    1    2    0    0  0.12372478664E+03  0.12992163044E+03  0.51637274489E+03  0.55253550158E+03  0.80419002446E+02 0.  1.
<mgrwt>
<rscale>  0 0.19660791E+03</rscale>
<asrwt>0</asrwt>
<pdfrwt beam="1">  1        2 0.24029584E+00 0.19660791E+03</pdfrwt>
<pdfrwt beam="2">  1       -2 0.42287225E-02 0.19660791E+03</pdfrwt>
<totfact> 0.31888867E+03</totfact>
</mgrwt>
</event>
<event>
 4    1  0.4862093E-001  0.9058214E+02  0.7546771E-02  0.1301448E+00
          2   -1    0    0  501    0  0.00000000000E+00  0.00000000000E+00  0.13364974415E+04  0.13364974415E+04  0.00000000000E+00 0. -1.
         -2   -1    0    0    0  501 -0.00000000000E+00 -0.00000000000E+00 -0.11275478939E+02  0.11275478939E+02  0.00000000000E+00 0.  1.
         24    1    1    2    0    0  0.53245384158E+01  0.41346783926E+02  0.11174318973E+04  0.11210973055E+04  0.80419002446E+02 0. -1.
        -24    1    1    2    0    0 -0.53245384158E+01 -0.41346783926E+02  0.20779006524E+03  0.22667561496E+03  0.80419002446E+02 0.  1.
<mgrwt>
<rscale>  0 0.90582135E+02</rscale>
<asrwt>0</asrwt>
<pdfrwt beam="1">  1        2 0.20561486E+00 0.90582135E+02</pdfrwt>
<pdfrwt beam="2">  1       -2 0.17346901E-02 0.90582135E+02</pdfrwt>
<totfact> 0.15023451E+04</totfact>
</mgrwt>
</event>
<event>
 4    1  0.4862093E-001  0.8228925E+02  0.7546771E-02  0.1322678E+00
          1   -1    0    0  501    0  0.00000000000E+00  0.00000000000E+00  0.40208218906E+04  0.40208218906E+04  0.00000000000E+00 0. -1.
         -1   -1    0    0    0  501 -0.00000000000E+00 -0.00000000000E+00 -0.21420166170E+01  0.21420166170E+01  0.00000000000E+00 0.  1.
         24    1    1    2    0    0 -0.14555424934E+02  0.96148294594E+01  0.10793217953E+04  0.10824541834E+04  0.80419002446E+02 0.  0.
        -24    1    1    2    0    0  0.14555424934E+02 -0.96148294594E+01  0.29393580787E+04  0.29405097238E+04  0.80419002446E+02 0. -1.
<mgrwt>
<rscale>  0 0.82289254E+02</rscale>
<asrwt>0</asrwt>
<pdfrwt beam="1">  1        1 0.61858194E+00 0.82289254E+02</pdfrwt>
<pdfrwt beam="2">  1       -1 0.32954423E-03 0.82289254E+02</pdfrwt>
<totfact> 0.11573836E+03</totfact>
</mgrwt>
</event>
<event>
 4    1  0.4862093E-001  0.1156509E+03  0.7546771E-02  0.1250449E+00
          2   -1    0    0  501    0  0.00000000000E+00  0.00000000000E+00  0.17143633002E+04  0.17143633002E+04  0.00000000000E+00 0. -1.
         -2   -1    0    0    0  501 -0.00000000000E+00 -0.00000000000E+00 -0.32434265511E+02  0.32434265511E+02  0.00000000000E+00 0.  1.
         24    1    1    2    0    0  0.72806605943E+02 -0.40088778396E+02  0.16021043443E+04  0.16062731579E+04  0.80419002446E+02 0. -1.
        -24    1    1    2    0    0 -0.72806605943E+02  0.40088778396E+02  0.79824690391E+02  0.14052440775E+03  0.80419002446E+02 0.  1.
<mgrwt>
<rscale>  0 0.11565089E+03</rscale>
<asrwt>0</asrwt>
<pdfrwt beam="1">  1        2 0.26374813E+00 0.11565089E+03</pdfrwt>
<pdfrwt beam="2">  1       -2 0.49898883E-02 0.11565089E+03</pdfrwt>
<totfact> 0.20720335E+03</totfact>
</mgrwt>
</event>
<event>
 4    1  0.4862093E-001  0.1392586E+03  0.7546771E-02  0.1214330E+00
         -1   -1    0    0    0  501 -0.00000000000E+00  0.00000000000E+00  0.20809849673E+03  0.20809849673E+03  0.00000000000E+00 0.  1.
          1   -1    0    0  501    0  0.00000000000E+00 -0.00000000000E+00 -0.93191235431E+02  0.93191235431E+02  0.00000000000E+00 0. -1.
         24    1    1    2    0    0  0.15199534335E+02  0.11267080895E+03  0.57513026584E+02  0.15066751878E+03  0.80419002446E+02 0. -1.
        -24    1    1    2    0    0 -0.15199534335E+02 -0.11267080895E+03  0.57394234718E+02  0.15062221339E+03  0.80419002446E+02 0.  1.
<mgrwt>
<rscale>  0 0.13925858E+03</rscale>
<asrwt>0</asrwt>
<pdfrwt beam="1">  1        1 0.14337113E-01 0.13925858E+03</pdfrwt>
<pdfrwt beam="2">  1       -1 0.32015153E-01 0.13925858E+03</pdfrwt>
<totfact> 0.34810233E+03</totfact>
</mgrwt>
</event>
<event>
 4    1  0.4862093E-001  0.1085988E+03  0.7546771E-02  0.1263187E+00
          2   -1    0    0  501    0  0.00000000000E+00  0.00000000000E+00  0.24927589425E+04  0.24927589425E+04  0.00000000000E+00 0. -1.
         -2   -1    0    0    0  501 -0.00000000000E+00 -0.00000000000E+00 -0.54252293250E+01  0.54252293250E+01  0.00000000000E+00 0.  1.
         24    1    1    2    0    0 -0.13406142217E+02  0.71740981125E+02  0.16904310412E+04  0.16939158226E+04  0.80419002446E+02 0. -1.
        -24    1    1    2    0    0  0.13406142217E+02 -0.71740981125E+02  0.79690267198E+03  0.80426834924E+03  0.80419002446E+02 0.  1.
<mgrwt>
<rscale>  0 0.10859884E+03</rscale>
<asrwt>0</asrwt>
<pdfrwt beam="1">  1        2 0.38350046E+00 0.10859884E+03</pdfrwt>
<pdfrwt beam="2">  1       -2 0.83465266E-03 0.10859884E+03</pdfrwt>
<totfact> 0.11018058E+04</totfact>
</mgrwt>
</event>
<event>
 4    1  0.4862093E-001  0.9812564E+02  0.7546771E-02  0.1284288E+00
          2   -1    0    0  501    0  0.00000000000E+00  0.00000000000E+00  0.61580195346E+03  0.61580195346E+03  0.00000000000E+00 0. -1.
         -2   -1    0    0    0  501 -0.00000000000E+00 -0.00000000000E+00 -0.17569032308E+02  0.17569032308E+02  0.00000000000E+00 0.  1.
         24    1    1    2    0    0  0.25070158533E+02  0.50328044579E+02  0.40416277565E+03  0.41590406357E+03  0.80419002446E+02 0. -1.
        -24    1    1    2    0    0 -0.25070158533E+02 -0.50328044579E+02  0.19407014551E+03  0.21746692220E+03  0.80419002446E+02 0.  1.
<mgrwt>
<rscale>  0 0.98125638E+02</rscale>
<asrwt>0</asrwt>
<pdfrwt beam="1">  1        2 0.94738745E-01 0.98125638E+02</pdfrwt>
<pdfrwt beam="2">  1       -2 0.27029285E-02 0.98125638E+02</pdfrwt>
<totfact> 0.22142762E+04</totfact>
</mgrwt>
</event>
<event>
 4    1  0.4862093E-001  0.1209083E+03  0.7546771E-02  0.1241606E+00
         -1   -1    0    0    0  501 -0.00000000000E+00  0.00000000000E+00  0.29104257127E+02  0.29104257127E+02  0.00000000000E+00 0.  1.
          1   -1    0    0  501    0  0.00000000000E+00 -0.00000000000E+00 -0.59148635485E+03  0.59148635485E+03  0.00000000000E+00 0. -1.
         24    1    1    2    0    0 -0.88036172421E+02 -0.20030588030E+02 -0.16069471834E+03  0.20110097108E+03  0.80419002446E+02 0.  1.
        -24    1    1    2    0    0  0.88036172421E+02  0.20030588030E+02 -0.40168737939E+03  0.41948964090E+03  0.80419002446E+02 0. -1.
<mgrwt>
<rscale>  0 0.12090826E+03</rscale>
<asrwt>0</asrwt>
<pdfrwt beam="1">  1        1 0.90997900E-01 0.12090826E+03</pdfrwt>
<pdfrwt beam="2">  1       -1 0.44775781E-02 0.12090826E+03</pdfrwt>
<totfact> 0.71099601E+03</totfact>
</mgrwt>
</event>
<event>
 4    1  0.4862093E-001  0.1105050E+03  0.7546771E-02  0.1259638E+00
          2   -1    0    0  501    0  0.00000000000E+00  0.00000000000E+00  0.17813642081E+04  0.17813642081E+04  0.00000000000E+00 0. -1.
         -2   -1    0    0    0  501 -0.00000000000E+00 -0.00000000000E+00 -0.14919795026E+02  0.14919795026E+02  0.00000000000E+00 0.  1.
         24    1    1    2    0    0 -0.44772228653E+02 -0.61152152143E+02  0.15435486604E+04  0.15474992152E+04  0.80419002446E+02 0. -1.
        -24    1    1    2    0    0  0.44772228653E+02  0.61152152143E+02  0.22289575264E+03  0.24878478786E+03  0.80419002446E+02 0.  1.
<mgrwt>
<rscale>  0 0.11050500E+03</rscale>
<asrwt>0</asrwt>
<pdfrwt beam="1">  1        2 0.27405586E+00 0.11050500E+03</pdfrwt>
<pdfrwt beam="2">  1       -2 0.22953545E-02 0.11050500E+03</pdfrwt>
<totfact> 0.59972830E+03</totfact>
</mgrwt>
</event>
<event>
 4    1  0.4862093E-001  0.8339028E+02  0.7546771E-02  0.1319697E+00
         -2   -1    0    0    0  501 -0.00000000000E+00  0.00000000000E+00  0.55136916527E+03  0.55136916527E+03  0.00000000000E+00 0.  1.
          2   -1    0    0  501    0  0.00000000000E+00 -0.00000000000E+00 -0.14761300234E+02  0.14761300234E+02  0.00000000000E+00 0. -1.
         24    1    1    2    0    0 -0.28752823204E+01 -0.21873622176E+02  0.16029496287E+03  0.18068872038E+03  0.80419002446E+02 0. -1.
        -24    1    1    2    0    0  0.28752823204E+01  0.21873622176E+02  0.37631290216E+03  0.38544174512E+03  0.80419002446E+02 0.  1.
<mgrwt>
<rscale>  0 0.83390279E+02</rscale>
<asrwt>0</asrwt>
<pdfrwt beam="1">  1        2 0.22709697E-02 0.83390279E+02</pdfrwt>
<pdfrwt beam="2">  1       -2 0.84826009E-01 0.83390279E+02</pdfrwt>
<totfact> 0.51658709E+03</totfact>
</mgrwt>
</event>
<event>
 4    1  0.4862093E-001  0.1060030E+03  0.7546771E-02  0.1268156E+00
          1   -1    0    0  501    0  0.00000000000E+00  0.00000000000E+00  0.11834141637E+04  0.11834141637E+04  0.00000000000E+00 0. -1.
         -1   -1    0    0    0  501 -0.00000000000E+00 -0.00000000000E+00 -0.95137660024E+01  0.95137660024E+01  0.00000000000E+00 0.  1.
         24    1    1    2    0    0 -0.59621769974E+02  0.34852035958E+02  0.61337025276E+03  0.62246261156E+03  0.80419002446E+02 0.  0.
        -24    1    1    2    0    0  0.59621769974E+02 -0.34852035958E+02  0.56053014496E+03  0.57046531817E+03  0.80419002446E+02 0.  1.
<mgrwt>
<rscale>  0 0.10600301E+03</rscale>
<asrwt>0</asrwt>
<pdfrwt beam="1">  1        1 0.18206360E+00 0.10600303E+03</pdfrwt>
<pdfrwt beam="2">  1       -1 0.14636572E-02 0.10600303E+03</pdfrwt>
<totfact> 0.12091292E+04</totfact>
</mgrwt>
</event>
<event>
 4    1  0.4862093E-001  0.1184263E+03  0.7546771E-02  0.1245716E+00
          2   -1    0    0  501    0  0.00000000000E+00  0.00000000000E+00  0.24532115814E+02  0.24532115814E+02  0.00000000000E+00 0. -1.
         -2   -1    0    0    0  501 -0.00000000000E+00 -0.00000000000E+00 -0.67863552160E+03  0.67863552160E+03  0.00000000000E+00 0.  1.
         24    1    1    2    0    0 -0.77845547806E+02  0.38699449759E+02 -0.18748249317E+03  0.22175319146E+03  0.80419002446E+02 0. -1.
        -24    1    1    2    0    0  0.77845547806E+02 -0.38699449759E+02 -0.46662091262E+03  0.48141444595E+03  0.80419002446E+02 0.  1.
<mgrwt>
<rscale>  0 0.11842632E+03</rscale>
<asrwt>0</asrwt>
<pdfrwt beam="1">  1        2 0.37741722E-02 0.11842632E+03</pdfrwt>
<pdfrwt beam="2">  1       -2 0.10440545E+00 0.11842632E+03</pdfrwt>
<totfact> 0.16937809E+03</totfact>
</mgrwt>
</event>
<event>
 4    1  0.4862093E-001  0.1474722E+03  0.7546771E-02  0.1203614E+00
         -1   -1    0    0    0  501 -0.00000000000E+00  0.00000000000E+00  0.16188271622E+02  0.16188271622E+02  0.00000000000E+00 0.  1.
          1   -1    0    0  501    0  0.00000000000E+00 -0.00000000000E+00 -0.14416565313E+04  0.14416565313E+04  0.00000000000E+00 0. -1.
         24    1    1    2    0    0 -0.39623895588E+02  0.11709301190E+03 -0.52248047297E+03  0.54289399253E+03  0.80419002446E+02 0.  1.
        -24    1    1    2    0    0  0.39623895588E+02 -0.11709301190E+03 -0.90298778666E+03  0.91495081034E+03  0.80419002446E+02 0. -1.
<mgrwt>
<rscale>  0 0.14747218E+03</rscale>
<asrwt>0</asrwt>
<pdfrwt beam="1">  1        1 0.22179339E+00 0.14747218E+03</pdfrwt>
<pdfrwt beam="2">  1       -1 0.24905025E-02 0.14747218E+03</pdfrwt>
<totfact> 0.38442540E+03</totfact>
</mgrwt>
</event>
<event>
 4    1  0.4862093E-001  0.8456429E+02  0.7546771E-02  0.1316576E+00
         -2   -1    0    0    0  501 -0.00000000000E+00  0.00000000000E+00  0.13631339499E+02  0.13631339499E+02  0.00000000000E+00 0.  1.
          2   -1    0    0  501    0  0.00000000000E+00 -0.00000000000E+00 -0.98594599185E+03  0.98594599185E+03  0.00000000000E+00 0. -1.
         24    1    1    2    0    0  0.11365370477E+02  0.23552754804E+02 -0.82803370983E+03  0.83234064209E+03  0.80419002446E+02 0. -1.
        -24    1    1    2    0    0 -0.11365370477E+02 -0.23552754804E+02 -0.14428094252E+03  0.16723668925E+03  0.80419002446E+02 0.  1.
<mgrwt>
<rscale>  0 0.84564294E+02</rscale>
<asrwt>0</asrwt>
<pdfrwt beam="1">  1        2 0.15168404E+00 0.84564294E+02</pdfrwt>
<pdfrwt beam="2">  1       -2 0.20971285E-02 0.84564294E+02</pdfrwt>
<totfact> 0.17767288E+04</totfact>
</mgrwt>
</event>
<event>
 4    1  0.4862093E-001  0.9219899E+02  0.7546771E-02  0.1297612E+00
         -2   -1    0    0    0  501 -0.00000000000E+00  0.00000000000E+00  0.76378278125E+02  0.76378278125E+02  0.00000000000E+00 0.  1.
          2   -1    0    0  501    0  0.00000000000E+00 -0.00000000000E+00 -0.11667061542E+03  0.11667061542E+03  0.00000000000E+00 0. -1.
         24    1    1    2    0    0 -0.23659049286E+02 -0.38388581018E+02  0.56965955967E+00  0.92200727937E+02  0.80419002446E+02 0. -1.
        -24    1    1    2    0    0  0.23659049286E+02  0.38388581018E+02 -0.40861996858E+02  0.10084816561E+03  0.80419002446E+02 0.  0.
<mgrwt>
<rscale>  0 0.92198980E+02</rscale>
<asrwt>0</asrwt>
<pdfrwt beam="1">  1        2 0.17949325E-01 0.92198991E+02</pdfrwt>
<pdfrwt beam="2">  1       -2 0.11750504E-01 0.92198991E+02</pdfrwt>
<totfact> 0.14477428E+04</totfact>
</mgrwt>
</event>
<event>
 4    1  0.4862093E-001  0.8277185E+02  0.7546771E-02  0.1321364E+00
         -3   -1    0    0    0  501 -0.00000000000E+00  0.00000000000E+00  0.13027454980E+03  0.13027454980E+03  0.00000000000E+00 0.  1.
          3   -1    0    0  501    0  0.00000000000E+00 -0.00000000000E+00 -0.77870243047E+02  0.77870243047E+02  0.00000000000E+00 0. -1.
         24    1    1    2    0    0 -0.18274568918E+02 -0.70713035029E+01  0.85499838084E+02  0.11900168683E+03  0.80419002446E+02 0.  0.
        -24    1    1    2    0    0  0.18274568918E+02  0.70713035029E+01 -0.33095531327E+02  0.89143106018E+02  0.80419002446E+02 0.  0.
<mgrwt>
<rscale>  0 0.82771850E+02</rscale>
<asrwt>0</asrwt>
<pdfrwt beam="1">  1        3 0.11980037E-01 0.82771850E+02</pdfrwt>
<pdfrwt beam="2">  1       -3 0.20042238E-01 0.82771850E+02</pdfrwt>
<totfact> 0.25253936E+03</totfact>
</mgrwt>
</event>
<event>
 4    1  0.4862093E-001  0.8475659E+02  0.7546771E-02  0.1316070E+00
          2   -1    0    0  501    0  0.00000000000E+00  0.00000000000E+00  0.10267807353E+04  0.10267807353E+04  0.00000000000E+00 0. -1.
         -2   -1    0    0    0  501 -0.00000000000E+00 -0.00000000000E+00 -0.81204879192E+01  0.81204879192E+01  0.00000000000E+00 0.  1.
         24    1    1    2    0    0 -0.84404313335E+01 -0.25401168078E+02  0.31680146017E+03  0.32794335081E+03  0.80419002446E+02 0.  1.
        -24    1    1    2    0    0  0.84404313335E+01  0.25401168078E+02  0.70185878721E+03  0.70695787240E+03  0.80419002446E+02 0.  0.
<mgrwt>
<rscale>  0 0.84756581E+02</rscale>
<asrwt>0</asrwt>
<pdfrwt beam="1">  1        2 0.15796616E+00 0.84756591E+02</pdfrwt>
<pdfrwt beam="2">  1       -2 0.12493066E-02 0.84756591E+02</pdfrwt>
<totfact> 0.35219744E+04</totfact>
</mgrwt>
</event>
<event>
 4    1  0.4862093E-001  0.8824016E+02  0.7546771E-02  0.1307170E+00
          2   -1    0    0  501    0  0.00000000000E+00  0.00000000000E+00  0.18970629544E+03  0.18970629544E+03  0.00000000000E+00 0. -1.
         -2   -1    0    0    0  501 -0.00000000000E+00 -0.00000000000E+00 -0.44418641367E+02  0.44418641367E+02  0.00000000000E+00 0.  1.
         24    1    1    2    0    0 -0.32006977893E+02  0.17165634192E+02  0.40377963412E+02  0.97039690409E+02  0.80419002446E+02 0. -1.
        -24    1    1    2    0    0  0.32006977893E+02 -0.17165634192E+02  0.10490969066E+03  0.13708524640E+03  0.80419002446E+02 0.  0.
<mgrwt>
<rscale>  0 0.88240147E+02</rscale>
<asrwt>0</asrwt>
<pdfrwt beam="1">  1        2 0.29185584E-01 0.88240158E+02</pdfrwt>
<pdfrwt beam="2">  1       -2 0.68336372E-02 0.88240158E+02</pdfrwt>
<totfact> 0.19474304E+04</totfact>
</mgrwt>
</event>
<event>
 4    1  0.4862093E-001  0.1020908E+03  0.7546771E-02  0.1275960E+00
          2   -1    0    0  501    0  0.00000000000E+00  0.00000000000E+00  0.19736082032E+04  0.19736082032E+04  0.00000000000E+00 0. -1.
         -2   -1    0    0    0  501 -0.00000000000E+00 -0.00000000000E+00 -0.65978797247E+01  0.65978797247E+01  0.00000000000E+00 0.  1.
         24    1    1    2    0    0 -0.46389277343E+02 -0.42465772104E+02  0.14258487988E+04  0.14294989751E+04  0.80419002446E+02 0.  1.
        -24    1    1    2    0    0  0.46389277343E+02  0.42465772104E+02  0.54116152472E+03  0.55070710785E+03  0.80419002446E+02 0.  0.
<mgrwt>
<rscale>  0 0.10209076E+03</rscale>
<asrwt>0</asrwt>
<pdfrwt beam="1">  1        2 0.30363156E+00 0.10209076E+03</pdfrwt>
<pdfrwt beam="2">  1       -2 0.10150600E-02 0.10209076E+03</pdfrwt>
<totfact> 0.15402833E+04</totfact>
</mgrwt>
</event>
<event>
 4    1  0.4862093E-001  0.8256184E+02  0.7546771E-02  0.1321935E+00
         -1   -1    0    0    0  501 -0.00000000000E+00  0.00000000000E+00  0.53082348191E+01  0.53082348191E+01  0.00000000000E+00 0.  1.
          1   -1    0    0  501    0  0.00000000000E+00 -0.00000000000E+00 -0.12898330773E+04  0.12898330773E+04  0.00000000000E+00 0. -1.
         24    1    1    2    0    0  0.32316345488E+01  0.18406486846E+02 -0.59919847800E+03  0.60485971449E+03  0.80419002446E+02 0.  1.
        -24    1    1    2    0    0 -0.32316345488E+01 -0.18406486846E+02 -0.68532636450E+03  0.69028159765E+03  0.80419002446E+02 0. -1.
<mgrwt>
<rscale>  0 0.82561845E+02</rscale>
<asrwt>0</asrwt>
<pdfrwt beam="1">  1        1 0.19843609E+00 0.82561845E+02</pdfrwt>
<pdfrwt beam="2">  1       -1 0.81665057E-03 0.82561845E+02</pdfrwt>
<totfact> 0.22974773E+04</totfact>
</mgrwt>
</event>
<event>
 4    1  0.4862093E-001  0.8642318E+02  0.7546771E-02  0.1311752E+00
         -1   -1    0    0    0  501 -0.00000000000E+00  0.00000000000E+00  0.27335093237E+03  0.27335093237E+03  0.00000000000E+00 0.  1.
          1   -1    0    0  501    0  0.00000000000E+00 -0.00000000000E+00 -0.40826424297E+02  0.40826424297E+02  0.00000000000E+00 0. -1.
         24    1    1    2    0    0  0.17689994449E+02 -0.26245259171E+02  0.20660317722E+03  0.22395052651E+03  0.80419002446E+02 0.  0.
        -24    1    1    2    0    0 -0.17689994449E+02  0.26245259171E+02  0.25921330852E+02  0.90226830156E+02  0.80419002446E+02 0.  0.
<mgrwt>
<rscale>  0 0.86423177E+02</rscale>
<asrwt>0</asrwt>
<pdfrwt beam="1">  1        1 0.62809885E-02 0.86423177E+02</pdfrwt>
<pdfrwt beam="2">  1       -1 0.42053988E-01 0.86423177E+02</pdfrwt>
<totfact> 0.62608731E+03</totfact>
</mgrwt>
</event>
<event>
 4    1  0.4862093E-001  0.1711106E+03  0.7546771E-02  0.1176695E+00
          2   -1    0    0  501    0  0.00000000000E+00  0.00000000000E+00  0.17787010493E+04  0.17787010493E+04  0.00000000000E+00 0. -1.
         -2   -1    0    0    0  501 -0.00000000000E+00 -0.00000000000E+00 -0.31415810523E+02  0.31415810523E+02  0.00000000000E+00 0.  1.
         24    1    1    2    0    0  0.12967495215E+03  0.77434068211E+02  0.14980899734E+04  0.15078303660E+04  0.80419002446E+02 0. -1.
        -24    1    1    2    0    0 -0.12967495215E+03 -0.77434068211E+02  0.24919526537E+03  0.30228649386E+03  0.80419002446E+02 0.  1.
<mgrwt>
<rscale>  0 0.17111062E+03</rscale>
<asrwt>0</asrwt>
<pdfrwt beam="1">  1        2 0.27364624E+00 0.17111062E+03</pdfrwt>
<pdfrwt beam="2">  1       -2 0.48332030E-02 0.17111062E+03</pdfrwt>
<totfact> 0.20116355E+03</totfact>
</mgrwt>
</event>
<event>
 4    1  0.4862093E-001  0.8487577E+02  0.7546771E-02  0.1315758E+00
          1   -1    0    0  501    0  0.00000000000E+00  0.00000000000E+00  0.10386763854E+03  0.10386763854E+03  0.00000000000E+00 0. -1.
         -1   -1    0    0    0  501 -0.00000000000E+00 -0.00000000000E+00 -0.11383011939E+03  0.11383011939E+03  0.00000000000E+00 0.  1.
         24    1    1    2    0    0  0.22973733131E+02  0.14452960694E+02 -0.73018462872E+02  0.11196245961E+03  0.80419002446E+02 0.  1.
        -24    1    1    2    0    0 -0.22973733131E+02 -0.14452960694E+02  0.63055982030E+02  0.10573529832E+03  0.80419002446E+02 0. -1.
<mgrwt>
<rscale>  0 0.84875771E+02</rscale>
<asrwt>0</asrwt>
<pdfrwt beam="1">  1        1 0.15979637E-01 0.84875771E+02</pdfrwt>
<pdfrwt beam="2">  1       -1 0.17512326E-01 0.84875771E+02</pdfrwt>
<totfact> 0.77965472E+03</totfact>
</mgrwt>
</event>
<event>
 4    1  0.4862093E-001  0.8979451E+02  0.7546771E-02  0.1303350E+00
          1   -1    0    0  501    0  0.00000000000E+00  0.00000000000E+00  0.18928434551E+04  0.18928434551E+04  0.00000000000E+00 0. -1.
         -1   -1    0    0    0  501 -0.00000000000E+00 -0.00000000000E+00 -0.62815608273E+01  0.62815608273E+01  0.00000000000E+00 0.  1.
         24    1    1    2    0    0 -0.29739427015E+02  0.26672091755E+02  0.14819964369E+04  0.14847142785E+04  0.80419002446E+02 0. -1.
        -24    1    1    2    0    0  0.29739427015E+02 -0.26672091755E+02  0.40456545735E+03  0.41441073735E+03  0.80419002446E+02 0.  1.
<mgrwt>
<rscale>  0 0.89794499E+02</rscale>
<asrwt>0</asrwt>
<pdfrwt beam="1">  1        1 0.29120623E+00 0.89794510E+02</pdfrwt>
<pdfrwt beam="2">  1       -1 0.96639548E-03 0.89794510E+02</pdfrwt>
<totfact> 0.75529816E+03</totfact>
</mgrwt>
</event>
<event>
 4    1  0.4862093E-001  0.9304329E+02  0.7546771E-02  0.1295645E+00
         -2   -1    0    0    0  501 -0.00000000000E+00  0.00000000000E+00  0.49490675994E+02  0.49490675994E+02  0.00000000000E+00 0.  1.
          2   -1    0    0  501    0  0.00000000000E+00 -0.00000000000E+00 -0.56019940362E+03  0.56019940362E+03  0.00000000000E+00 0. -1.
         24    1    1    2    0    0  0.46196865992E+02 -0.74623619119E+01 -0.50816425771E+03  0.51661200726E+03  0.80419002446E+02 0. -1.
        -24    1    1    2    0    0 -0.46196865992E+02  0.74623619119E+01 -0.25444699179E+01  0.93078072361E+02  0.80419002446E+02 0.  1.
<mgrwt>
<rscale>  0 0.93043287E+02</rscale>
<asrwt>0</asrwt>
<pdfrwt beam="1">  1        2 0.86184523E-01 0.93043287E+02</pdfrwt>
<pdfrwt beam="2">  1       -2 0.76139502E-02 0.93043287E+02</pdfrwt>
<totfact> 0.52753729E+03</totfact>
</mgrwt>
</event>
<event>
 4    1  0.4862093E-001  0.9505704E+02  0.7546771E-02  0.1291048E+00
         -1   -1    0    0    0  501 -0.00000000000E+00  0.00000000000E+00  0.56360320736E+02  0.56360320736E+02  0.00000000000E+00 0.  1.
          1   -1    0    0  501    0  0.00000000000E+00 -0.00000000000E+00 -0.58189163690E+03  0.58189163690E+03  0.00000000000E+00 0. -1.
         24    1    1    2    0    0 -0.38214119880E+02  0.33291222575E+02  0.88628752533E+01  0.95469319527E+02  0.80419002446E+02 0.  1.
        -24    1    1    2    0    0  0.38214119880E+02 -0.33291222575E+02 -0.53439419141E+03  0.54278263810E+03  0.80419002446E+02 0. -1.
<mgrwt>
<rscale>  0 0.95057038E+02</rscale>
<asrwt>0</asrwt>
<pdfrwt beam="1">  1        1 0.89521785E-01 0.95057038E+02</pdfrwt>
<pdfrwt beam="2">  1       -1 0.86708190E-02 0.95057038E+02</pdfrwt>
<totfact> 0.26934077E+03</totfact>
</mgrwt>
</event>
<event>
 4    1  0.4862093E-001  0.8125672E+02  0.7546771E-02  0.1325522E+00
         -3   -1    0    0    0  501 -0.00000000000E+00  0.00000000000E+00  0.72907768594E+01  0.72907768594E+01  0.00000000000E+00 0.  1.
          3   -1    0    0  501    0  0.00000000000E+00 -0.00000000000E+00 -0.11696392571E+04  0.11696392571E+04  0.00000000000E+00 0. -1.
         24    1    1    2    0    0  0.10632313886E+02 -0.47321524461E+01 -0.30158882190E+03  0.31234351732E+03  0.80419002446E+02 0.  1.
        -24    1    1    2    0    0 -0.10632313886E+02  0.47321524461E+01 -0.86075965834E+03  0.86458651664E+03  0.80419002446E+02 0.  0.
<mgrwt>
<rscale>  0 0.81256725E+02</rscale>
<asrwt>0</asrwt>
<pdfrwt beam="1">  1        3 0.17994437E+00 0.81256725E+02</pdfrwt>
<pdfrwt beam="2">  1       -3 0.11216588E-02 0.81256725E+02</pdfrwt>
<totfact> 0.10476327E+03</totfact>
</mgrwt>
</event>
<event>
 4    1  0.4862093E-001  0.8728339E+02  0.7546771E-02  0.1309567E+00
          1   -1    0    0  501    0  0.00000000000E+00  0.00000000000E+00  0.72196899498E+03  0.72196899498E+03  0.00000000000E+00 0. -1.
         -1   -1    0    0    0  501 -0.00000000000E+00 -0.00000000000E+00 -0.30412192630E+02  0.30412192630E+02  0.00000000000E+00 0.  1.
         24    1    1    2    0    0 -0.29704678753E+02  0.16395335145E+02  0.41778699077E+02  0.96766991300E+02  0.80419002446E+02 0.  1.
        -24    1    1    2    0    0  0.29704678753E+02 -0.16395335145E+02  0.64977810327E+03  0.65561419631E+03  0.80419002446E+02 0. -1.
<mgrwt>
<rscale>  0 0.87283394E+02</rscale>
<asrwt>0</asrwt>
<pdfrwt beam="1">  1        1 0.11107214E+00 0.87283394E+02</pdfrwt>
<pdfrwt beam="2">  1       -1 0.46787994E-02 0.87283394E+02</pdfrwt>
<totfact> 0.49644361E+03</totfact>
</mgrwt>
</event>
<event>
 4    1  0.4862093E-001  0.8758509E+02  0.7546771E-02  0.1308807E+00
          2   -1    0    0  501    0  0.00000000000E+00  0.00000000000E+00  0.14143552782E+04  0.14143552782E+04  0.00000000000E+00 0. -1.
         -2   -1    0    0    0  501 -0.00000000000E+00 -0.00000000000E+00 -0.55159670843E+01  0.55159670843E+01  0.00000000000E+00 0.  1.
         24    1    1    2    0    0  0.88094055792E+01 -0.33560781161E+02  0.79620012325E+03  0.80100298619E+03  0.80419002446E+02 0. -1.
        -24    1    1    2    0    0 -0.88094055792E+01  0.33560781161E+02  0.61263918791E+03  0.61886825914E+03  0.80419002446E+02 0.  1.
<mgrwt>
<rscale>  0 0.87585088E+02</rscale>
<asrwt>0</asrwt>
<pdfrwt beam="1">  1        2 0.21759283E+00 0.87585088E+02</pdfrwt>
<pdfrwt beam="2">  1       -2 0.84861145E-03 0.87585088E+02</pdfrwt>
<totfact> 0.37669979E+04</totfact>
</mgrwt>
</event>
<event>
 4    1  0.4862093E-001  0.1014426E+03  0.7546771E-02  0.1277291E+00
          1   -1    0    0  501    0  0.00000000000E+00  0.00000000000E+00  0.19712634191E+02  0.19712634191E+02  0.00000000000E+00 0. -1.
         -1   -1    0    0    0  501 -0.00000000000E+00 -0.00000000000E+00 -0.53824042330E+03  0.53824042330E+03  0.00000000000E+00 0.  1.
         24    1    1    2    0    0 -0.52819304888E+02  0.32148219422E+02 -0.30767728186E+03  0.32396899961E+03  0.80419002446E+02 0.  1.
        -24    1    1    2    0    0  0.52819304888E+02 -0.32148219422E+02 -0.21085050725E+03  0.23398405788E+03  0.80419002446E+02 0.  0.
<mgrwt>
<rscale>  0 0.10144261E+03</rscale>
<asrwt>0</asrwt>
<pdfrwt beam="1">  1        1 0.30327134E-02 0.10144261E+03</pdfrwt>
<pdfrwt beam="2">  1       -1 0.82806207E-01 0.10144261E+03</pdfrwt>
<totfact> 0.47596363E+03</totfact>
</mgrwt>
</event>
<event>
 4    1  0.4862093E-001  0.8333885E+02  0.7546771E-02  0.1319835E+00
          2   -1    0    0  501    0  0.00000000000E+00  0.00000000000E+00  0.59329210672E+03  0.59329210672E+03  0.00000000000E+00 0. -1.
         -2   -1    0    0    0  501 -0.00000000000E+00 -0.00000000000E+00 -0.11708700456E+02  0.11708700456E+02  0.00000000000E+00 0.  1.
         24    1    1    2    0    0  0.10140510908E+02  0.19373018509E+02  0.28662213446E+03  0.29849222389E+03  0.80419002446E+02 0.  0.
        -24    1    1    2    0    0 -0.10140510908E+02 -0.19373018509E+02  0.29496127180E+03  0.30650858328E+03  0.80419002446E+02 0. -1.
<mgrwt>
<rscale>  0 0.83338835E+02</rscale>
<asrwt>0</asrwt>
<pdfrwt beam="1">  1        2 0.91275685E-01 0.83338846E+02</pdfrwt>
<pdfrwt beam="2">  1       -2 0.18013390E-02 0.83338846E+02</pdfrwt>
<totfact> 0.40692665E+04</totfact>
</mgrwt>
</event>
<event>
 4    1  0.4862093E-001  0.8915045E+02  0.7546771E-02  0.1304922E+00
         -1   -1    0    0    0  501 -0.00000000000E+00  0.00000000000E+00  0.59620521454E+02  0.59620521454E+02  0.00000000000E+00 0.  1.
          1   -1    0    0  501    0  0.00000000000E+00 -0.00000000000E+00 -0.42881208010E+03  0.42881208010E+03  0.00000000000E+00 0. -1.
         24    1    1    2    0    0  0.29462629249E+02  0.24749567839E+02  0.18137002324E+02  0.90976669747E+02  0.80419002446E+02 0.  1.
        -24    1    1    2    0    0 -0.29462629249E+02 -0.24749567839E+02 -0.38732856098E+03  0.39745593181E+03  0.80419002446E+02 0. -1.
<mgrwt>
<rscale>  0 0.89150455E+02</rscale>
<asrwt>0</asrwt>
<pdfrwt beam="1">  1        1 0.65971088E-01 0.89150455E+02</pdfrwt>
<pdfrwt beam="2">  1       -1 0.91723881E-02 0.89150455E+02</pdfrwt>
<totfact> 0.36556195E+03</totfact>
</mgrwt>
</event>
<event>
 4    1  0.4862093E-001  0.1136601E+03  0.7546771E-02  0.1253938E+00
         -2   -1    0    0    0  501 -0.00000000000E+00  0.00000000000E+00  0.43500202412E+02  0.43500202412E+02  0.00000000000E+00 0.  1.
          2   -1    0    0  501    0  0.00000000000E+00 -0.00000000000E+00 -0.29928339002E+03  0.29928339002E+03  0.00000000000E+00 0. -1.
         24    1    1    2    0    0 -0.24730388147E+02  0.76418634811E+02 -0.11285001392E+03  0.16016785396E+03  0.80419002446E+02 0.  1.
        -24    1    1    2    0    0  0.24730388147E+02 -0.76418634811E+02 -0.14293317368E+03  0.18261573847E+03  0.80419002446E+02 0. -1.
<mgrwt>
<rscale>  0 0.11366010E+03</rscale>
<asrwt>0</asrwt>
<pdfrwt beam="1">  1        2 0.46043599E-01 0.11366012E+03</pdfrwt>
<pdfrwt beam="2">  1       -2 0.66923387E-02 0.11366012E+03</pdfrwt>
<totfact> 0.12713422E+04</totfact>
</mgrwt>
</event>
<event>
 4    1  0.4862093E-001  0.9240199E+02  0.7546771E-02  0.1297137E+00
         -3   -1    0    0    0  501 -0.00000000000E+00  0.00000000000E+00  0.47133690513E+03  0.47133690513E+03  0.00000000000E+00 0.  1.
          3   -1    0    0  501    0  0.00000000000E+00 -0.00000000000E+00 -0.22656998222E+02  0.22656998222E+02  0.00000000000E+00 0. -1.
         24    1    1    2    0    0  0.37634683536E+02 -0.25584034258E+02  0.33493306439E+03  0.34744537095E+03  0.80419002446E+02 0.  1.
        -24    1    1    2    0    0 -0.37634683536E+02  0.25584034258E+02  0.11374684251E+03  0.14654853240E+03  0.80419002446E+02 0. -1.
<mgrwt>
<rscale>  0 0.92401992E+02</rscale>
<asrwt>0</asrwt>
<pdfrwt beam="1">  1        3 0.34856924E-02 0.92401992E+02</pdfrwt>
<pdfrwt beam="2">  1       -3 0.72513363E-01 0.92401992E+02</pdfrwt>
<totfact> 0.15928247E+03</totfact>
</mgrwt>
</event>
<event>
 4    1  0.4862093E-001  0.1059047E+03  0.7546771E-02  0.1268347E+00
          1   -1    0    0  501    0  0.00000000000E+00  0.00000000000E+00  0.34198301077E+02  0.34198301077E+02  0.00000000000E+00 0. -1.
         -1   -1    0    0    0  501 -0.00000000000E+00 -0.00000000000E+00 -0.33598373357E+03  0.33598373357E+03  0.00000000000E+00 0.  1.
         24    1    1    2    0    0 -0.57706000476E+02 -0.37664518653E+02 -0.17948862961E+03  0.20840341305E+03  0.80419002446E+02 0.  1.
        -24    1    1    2    0    0  0.57706000476E+02  0.37664518653E+02 -0.12229680288E+03  0.16177862159E+03  0.80419002446E+02 0. -1.
<mgrwt>
<rscale>  0 0.10590474E+03</rscale>
<asrwt>0</asrwt>
<pdfrwt beam="1">  1        1 0.52612771E-02 0.10590474E+03</pdfrwt>
<pdfrwt beam="2">  1       -1 0.51689805E-01 0.10590474E+03</pdfrwt>
<totfact> 0.55919079E+03</totfact>
</mgrwt>
</event>
<event>
 4    1  0.4862093E-001  0.8617558E+02  0.7546771E-02  0.1312387E+00
         -2   -1    0    0    0  501 -0.00000000000E+00  0.00000000000E+00  0.76491143523E+01  0.76491143523E+01  0.00000000000E+00 0.  1.
          2   -1    0    0  501    0  0.00000000000E+00 -0.00000000000E+00 -0.10011866337E+04  0.10011866337E+04  0.00000000000E+00 0. -1.
         24    1    1    2    0    0  0.30644341371E+02  0.44649640149E+01 -0.40898034093E+03  0.41796070005E+03  0.80419002446E+02 0.  0.
        -24    1    1    2    0    0 -0.30644341371E+02 -0.44649640149E+01 -0.58455717841E+03  0.59087504800E+03  0.80419002446E+02 0.  1.
<mgrwt>
<rscale>  0 0.86175573E+02</rscale>
<asrwt>0</asrwt>
<pdfrwt beam="1">  1        2 0.15402868E+00 0.86175584E+02</pdfrwt>
<pdfrwt beam="2">  1       -2 0.11767871E-02 0.86175584E+02</pdfrwt>
<totfact> 0.39739792E+04</totfact>
</mgrwt>
</event>
<event>
 4    1  0.4862093E-001  0.1024372E+03  0.7546771E-02  0.1275253E+00
          2   -1    0    0  501    0  0.00000000000E+00  0.00000000000E+00  0.80844951092E+03  0.80844951092E+03  0.00000000000E+00 0. -1.
         -2   -1    0    0    0  501 -0.00000000000E+00 -0.00000000000E+00 -0.24225744255E+02  0.24225744255E+02  0.00000000000E+00 0.  1.
         24    1    1    2    0    0  0.60657025976E+02  0.18624812729E+02  0.67577859323E+03  0.68349841365E+03  0.80419002446E+02 0. -1.
        -24    1    1    2    0    0 -0.60657025976E+02 -0.18624812729E+02  0.10844517344E+03  0.14917684152E+03  0.80419002446E+02 0.  1.
<mgrwt>
<rscale>  0 0.10243717E+03</rscale>
<asrwt>0</asrwt>
<pdfrwt beam="1">  1        2 0.12437683E+00 0.10243717E+03</pdfrwt>
<pdfrwt beam="2">  1       -2 0.37270382E-02 0.10243717E+03</pdfrwt>
<totfact> 0.10087223E+04</totfact>
</mgrwt>
</event>
<event>
 4    1  0.4862093E-001  0.9453508E+02  0.7546771E-02  0.1292227E+00
         -3   -1    0    0    0  501 -0.00000000000E+00  0.00000000000E+00  0.40161855273E+03  0.40161855273E+03  0.00000000000E+00 0.  1.
          3   -1    0    0  501    0  0.00000000000E+00 -0.00000000000E+00 -0.47232158995E+02  0.47232158995E+02  0.00000000000E+00 0. -1.
         24    1    1    2    0    0 -0.14081375162E+02  0.47659003036E+02  0.34040411299E+03  0.35328719449E+03  0.80419002446E+02 0.  1.
        -24    1    1    2    0    0  0.14081375162E+02 -0.47659003036E+02  0.13982280745E+02  0.95563517234E+02  0.80419002446E+02 0. -1.
<mgrwt>
<rscale>  0 0.94535082E+02</rscale>
<asrwt>0</asrwt>
<pdfrwt beam="1">  1        3 0.72664862E-02 0.94535082E+02</pdfrwt>
<pdfrwt beam="2">  1       -3 0.61787468E-01 0.94535082E+02</pdfrwt>
<totfact> 0.70448679E+02</totfact>
</mgrwt>
</event>
<event>
 4    1  0.4862093E-001  0.9834932E+02  0.7546771E-02  0.1283806E+00
          1   -1    0    0  501    0  0.00000000000E+00  0.00000000000E+00  0.28304311901E+04  0.28304311901E+04  0.00000000000E+00 0. -1.
         -1   -1    0    0    0  501 -0.00000000000E+00 -0.00000000000E+00 -0.75345809032E+01  0.75345809032E+01  0.00000000000E+00 0.  1.
         24    1    1    2    0    0 -0.54301794167E+02 -0.16021467067E+02  0.36250997646E+03  0.37561425857E+03  0.80419002446E+02 0.  0.
        -24    1    1    2    0    0  0.54301794167E+02  0.16021467067E+02  0.24603866328E+04  0.24623515124E+04  0.80419002446E+02 0.  1.
<mgrwt>
<rscale>  0 0.98349317E+02</rscale>
<asrwt>0</asrwt>
<pdfrwt beam="1">  1        1 0.43545010E+00 0.98349317E+02</pdfrwt>
<pdfrwt beam="2">  1       -1 0.11591685E-02 0.98349317E+02</pdfrwt>
<totfact> 0.14672434E+03</totfact>
</mgrwt>
</event>
<event>
 4    1  0.4862093E-001  0.9433767E+02  0.7546771E-02  0.1292675E+00
         -2   -1    0    0    0  501 -0.00000000000E+00  0.00000000000E+00  0.17389437356E+02  0.17389437356E+02  0.00000000000E+00 0.  1.
          2   -1    0    0  501    0  0.00000000000E+00 -0.00000000000E+00 -0.90361912472E+03  0.90361912472E+03  0.00000000000E+00 0. -1.
         24    1    1    2    0    0 -0.15219802172E+02 -0.46912011596E+02 -0.74636004862E+03  0.75229842306E+03  0.80419002446E+02 0. -1.
        -24    1    1    2    0    0  0.15219802172E+02  0.46912011596E+02 -0.13986963875E+03  0.16871013902E+03  0.80419002446E+02 0.  1.
<mgrwt>
<rscale>  0 0.94337666E+02</rscale>
<asrwt>0</asrwt>
<pdfrwt beam="1">  1        2 0.13901834E+00 0.94337666E+02</pdfrwt>
<pdfrwt beam="2">  1       -2 0.26752979E-02 0.94337666E+02</pdfrwt>
<totfact> 0.14143403E+04</totfact>
</mgrwt>
</event>
<event>
 4    1  0.4862093E-001  0.1284633E+03  0.7546771E-02  0.1229754E+00
         -2   -1    0    0    0  501 -0.00000000000E+00  0.00000000000E+00  0.21302335239E+03  0.21302335239E+03  0.00000000000E+00 0.  1.
          2   -1    0    0  501    0  0.00000000000E+00 -0.00000000000E+00 -0.92662593123E+02  0.92662593123E+02  0.00000000000E+00 0. -1.
         24    1    1    2    0    0  0.13192570799E+01  0.10016911556E+03 -0.17090745408E+01  0.12847462412E+03  0.80419002446E+02 0. -1.
        -24    1    1    2    0    0 -0.13192570799E+01 -0.10016911556E+03  0.12206983381E+03  0.17721132140E+03  0.80419002446E+02 0.  1.
<mgrwt>
<rscale>  0 0.12846326E+03</rscale>
<asrwt>0</asrwt>
<pdfrwt beam="1">  1        2 0.14255784E-01 0.12846326E+03</pdfrwt>
<pdfrwt beam="2">  1       -2 0.32772823E-01 0.12846326E+03</pdfrwt>
<totfact> 0.34407886E+03</totfact>
</mgrwt>
</event>
<event>
 4    1  0.4862093E-001  0.8552176E+02  0.7546771E-02  0.1314074E+00
         -2   -1    0    0    0  501 -0.00000000000E+00  0.00000000000E+00  0.75606238272E+03  0.75606238272E+03  0.00000000000E+00 0.  1.
          2   -1    0    0  501    0  0.00000000000E+00 -0.00000000000E+00 -0.10344774854E+02  0.10344774854E+02  0.00000000000E+00 0. -1.
         24    1    1    2    0    0 -0.23999485103E+02  0.16455279240E+02  0.47045536036E+03  0.47816546670E+03  0.80419002446E+02 0.  1.
        -24    1    1    2    0    0  0.23999485103E+02 -0.16455279240E+02  0.27526224750E+03  0.28824169087E+03  0.80419002446E+02 0. -1.
<mgrwt>
<rscale>  0 0.85521747E+02</rscale>
<asrwt>0</asrwt>
<pdfrwt beam="1">  1        2 0.15915044E-02 0.85521758E+02</pdfrwt>
<pdfrwt beam="2">  1       -2 0.11631725E+00 0.85521758E+02</pdfrwt>
<totfact> 0.40741656E+03</totfact>
</mgrwt>
</event>
<event>
 4    1  0.4862093E-001  0.8227899E+02  0.7546771E-02  0.1322706E+00
         -1   -1    0    0    0  501 -0.00000000000E+00  0.00000000000E+00  0.66315417341E+02  0.66315417341E+02  0.00000000000E+00 0.  1.
          1   -1    0    0  501    0  0.00000000000E+00 -0.00000000000E+00 -0.13698993288E+04  0.13698993288E+04  0.00000000000E+00 0. -1.
         24    1    1    2    0    0 -0.16627365816E+02  0.51133446699E+01  0.39040654706E+02  0.91071423959E+02  0.80419002446E+02 0.  1.
        -24    1    1    2    0    0  0.16627365816E+02 -0.51133446699E+01 -0.13426245662E+04  0.13451433222E+04  0.80419002446E+02 0. -1.
<mgrwt>
<rscale>  0 0.82278986E+02</rscale>
<asrwt>0</asrwt>
<pdfrwt beam="1">  1        1 0.21075373E+00 0.82278986E+02</pdfrwt>
<pdfrwt beam="2">  1       -1 0.10202373E-01 0.82278986E+02</pdfrwt>
<totfact> 0.53487330E+02</totfact>
</mgrwt>
</event>
<event>
 4    1  0.4862093E-001  0.8378288E+02  0.7546771E-02  0.1318646E+00
         -2   -1    0    0    0  501 -0.00000000000E+00  0.00000000000E+00  0.24828109914E+02  0.24828109914E+02  0.00000000000E+00 0.  1.
          2   -1    0    0  501    0  0.00000000000E+00 -0.00000000000E+00 -0.31928452318E+03  0.31928452318E+03  0.00000000000E+00 0. -1.
         24    1    1    2    0    0 -0.23359890122E+02  0.25827038820E+01 -0.20544812138E+03  0.22187496785E+03  0.80419002446E+02 0. -1.
        -24    1    1    2    0    0  0.23359890122E+02 -0.25827038820E+01 -0.89008291895E+02  0.12223766525E+03  0.80419002446E+02 0.  1.
<mgrwt>
<rscale>  0 0.83782879E+02</rscale>
<asrwt>0</asrwt>
<pdfrwt beam="1">  1        2 0.49120698E-01 0.83782879E+02</pdfrwt>
<pdfrwt beam="2">  1       -2 0.38197090E-02 0.83782879E+02</pdfrwt>
<totfact> 0.26573429E+04</totfact>
</mgrwt>
</event>
<event>
 4    1  0.4862093E-001  0.8483514E+02  0.7546771E-02  0.1315864E+00
          2   -1    0    0  501    0  0.00000000000E+00  0.00000000000E+00  0.20118123530E+04  0.20118123530E+04  0.00000000000E+00 0. -1.
         -2   -1    0    0    0  501 -0.00000000000E+00 -0.00000000000E+00 -0.40753827799E+01  0.40753827799E+01  0.00000000000E+00 0.  1.
         24    1    1    2    0    0 -0.81093179653E+01  0.25768648258E+02  0.13562164139E+04  0.13588671611E+04  0.80419002446E+02 0. -1.
        -24    1    1    2    0    0  0.81093179653E+01 -0.25768648258E+02  0.65152055633E+03  0.65702057468E+03  0.80419002446E+02 0.  1.
<mgrwt>
<rscale>  0 0.84835136E+02</rscale>
<asrwt>0</asrwt>
<pdfrwt beam="1">  1        2 0.30950880E+00 0.84835136E+02</pdfrwt>
<pdfrwt beam="2">  1       -2 0.62698357E-03 0.84835136E+02</pdfrwt>
<totfact> 0.28761857E+04</totfact>
</mgrwt>
</event>
<event>
 4    1  0.4862093E-001  0.1211642E+03  0.7546771E-02  0.1241189E+00
         -1   -1    0    0    0  501 -0.00000000000E+00  0.00000000000E+00  0.11148431140E+03  0.11148431140E+03  0.00000000000E+00 0.  1.
          1   -1    0    0  501    0  0.00000000000E+00 -0.00000000000E+00 -0.19001377870E+03  0.19001377870E+03  0.00000000000E+00 0. -1.
         24    1    1    2    0    0  0.90162133053E+02 -0.91837964102E+01  0.44258039954E+02  0.12899435030E+03  0.80419002446E+02 0.  1.
        -24    1    1    2    0    0 -0.90162133053E+02  0.91837964102E+01 -0.12278750726E+03  0.17250373981E+03  0.80419002446E+02 0. -1.
<mgrwt>
<rscale>  0 0.12116422E+03</rscale>
<asrwt>0</asrwt>
<pdfrwt beam="1">  1        1 0.29232889E-01 0.12116422E+03</pdfrwt>
<pdfrwt beam="2">  1       -1 0.17151432E-01 0.12116422E+03</pdfrwt>
<totfact> 0.38745088E+03</totfact>
</mgrwt>
</event>
<event>
 4    1  0.4862093E-001  0.8097641E+02  0.7546771E-02  0.1326303E+00
          2   -1    0    0  501    0  0.00000000000E+00  0.00000000000E+00  0.17235536129E+03  0.17235536129E+03  0.00000000000E+00 0. -1.
         -2   -1    0    0    0  501 -0.00000000000E+00 -0.00000000000E+00 -0.40860123579E+02  0.40860123579E+02  0.00000000000E+00 0.  1.
         24    1    1    2    0    0 -0.45381736253E+00  0.94740083318E+01  0.93732526661E+02  0.12386672391E+03  0.80419002446E+02 0.  0.
        -24    1    1    2    0    0  0.45381736253E+00 -0.94740083318E+01  0.37762711048E+02  0.89348760955E+02  0.80419002446E+02 0.  0.
<mgrwt>
<rscale>  0 0.80976409E+02</rscale>
<asrwt>0</asrwt>
<pdfrwt beam="1">  1        2 0.26516209E-01 0.80976409E+02</pdfrwt>
<pdfrwt beam="2">  1       -2 0.62861730E-02 0.80976409E+02</pdfrwt>
<totfact> 0.24240281E+04</totfact>
</mgrwt>
</event>
<event>
 4    1  0.4862093E-001  0.8219701E+02  0.7546771E-02  0.1322930E+00
         -1   -1    0    0    0  501 -0.00000000000E+00  0.00000000000E+00  0.15706986652E+03  0.15706986652E+03  0.00000000000E+00 0.  1.
          1   -1    0    0  501    0  0.00000000000E+00 -0.00000000000E+00 -0.43786058203E+02  0.43786058203E+02  0.00000000000E+00 0. -1.
         24    1    1    2    0    0  0.14889990213E+01  0.16938496863E+02  0.43314167253E+02  0.92911047961E+02  0.80419002446E+02 0.  0.
        -24    1    1    2    0    0 -0.14889990213E+01 -0.16938496863E+02  0.69969641065E+02  0.10794487676E+03  0.80419002446E+02 0.  0.
<mgrwt>
<rscale>  0 0.82197004E+02</rscale>
<asrwt>0</asrwt>
<pdfrwt beam="1">  1        1 0.67363168E-02 0.82197014E+02</pdfrwt>
<pdfrwt beam="2">  1       -1 0.24164594E-01 0.82197014E+02</pdfrwt>
<totfact> 0.14351913E+04</totfact>
</mgrwt>
</event>
<event>
 4    1  0.4862093E-001  0.8576554E+02  0.7546771E-02  0.1313443E+00
          2   -1    0    0  501    0  0.00000000000E+00  0.00000000000E+00  0.34036321435E+02  0.34036321435E+02  0.00000000000E+00 0. -1.
         -2   -1    0    0    0  501 -0.00000000000E+00 -0.00000000000E+00 -0.26906884060E+03  0.26906884060E+03  0.00000000000E+00 0.  1.
         24    1    1    2    0    0  0.20218305474E+02 -0.21902780544E+02 -0.50282992085E+02  0.99418845896E+02  0.80419002446E+02 0. -1.
        -24    1    1    2    0    0 -0.20218305474E+02  0.21902780544E+02 -0.18474952707E+03  0.20368631613E+03  0.80419002446E+02 0.  0.
<mgrwt>
<rscale>  0 0.85765539E+02</rscale>
<asrwt>0</asrwt>
<pdfrwt beam="1">  1        2 0.52363572E-02 0.85765539E+02</pdfrwt>
<pdfrwt beam="2">  1       -2 0.41395206E-01 0.85765539E+02</pdfrwt>
<totfact> 0.74357505E+03</totfact>
</mgrwt>
</event>
<event>
 4    1  0.4862093E-001  0.8678699E+02  0.7546771E-02  0.1310824E+00
          2   -1    0    0  501    0  0.00000000000E+00  0.00000000000E+00  0.93054396970E+03  0.93054396970E+03  0.00000000000E+00 0. -1.
         -2   -1    0    0    0  501 -0.00000000000E+00 -0.00000000000E+00 -0.15200536880E+02  0.15200536880E+02  0.00000000000E+00 0.  1.
         24    1    1    2    0    0  0.30503150404E+02  0.11589795683E+02  0.78099588293E+03  0.78580312461E+03  0.80419002446E+02 0. -1.
        -24    1    1    2    0    0 -0.30503150404E+02 -0.11589795683E+02  0.13434754989E+03  0.15994138196E+03  0.80419002446E+02 0.  1.
<mgrwt>
<rscale>  0 0.86786989E+02</rscale>
<asrwt>0</asrwt>
<pdfrwt beam="1">  1        2 0.14316057E+00 0.86786989E+02</pdfrwt>
<pdfrwt beam="2">  1       -2 0.23385449E-02 0.86786989E+02</pdfrwt>
<totfact> 0.16428871E+04</totfact>
</mgrwt>
</event>
<event>
 4    1  0.4862093E-001  0.1628927E+03  0.7546771E-02  0.1185469E+00
         -1   -1    0    0    0  501 -0.00000000000E+00  0.00000000000E+00  0.56703841794E+03  0.56703841794E+03  0.00000000000E+00 0.  1.
          1   -1    0    0  501    0  0.00000000000E+00 -0.00000000000E+00 -0.11351220678E+03  0.11351220678E+03  0.00000000000E+00 0. -1.
         24    1    1    2    0    0  0.12000914797E+03 -0.75263639520E+02  0.48763732406E+03  0.51412468021E+03  0.80419002446E+02 0.  1.
        -24    1    1    2    0    0 -0.12000914797E+03  0.75263639520E+02 -0.34111112897E+02  0.16642594451E+03  0.80419002446E+02 0. -1.
<mgrwt>
<rscale>  0 0.16289269E+03</rscale>
<asrwt>0</asrwt>
<pdfrwt beam="1">  1        1 0.17463417E-01 0.16289269E+03</pdfrwt>
<pdfrwt beam="2">  1       -1 0.87236678E-01 0.16289269E+03</pdfrwt>
<totfact> 0.41626216E+02</totfact>
</mgrwt>
</event>
<event>
 4    1  0.4862093E-001  0.9505159E+02  0.7546771E-02  0.1291060E+00
         -1   -1    0    0    0  501 -0.00000000000E+00  0.00000000000E+00  0.76959692450E+02  0.76959692450E+02  0.00000000000E+00 0.  1.
          1   -1    0    0  501    0  0.00000000000E+00 -0.00000000000E+00 -0.38000253708E+03  0.38000253708E+03  0.00000000000E+00 0. -1.
         24    1    1    2    0    0  0.48855385341E+02  0.13443975894E+02  0.38415476653E+02  0.10252099280E+03  0.80419002446E+02 0.  1.
        -24    1    1    2    0    0 -0.48855385341E+02 -0.13443975894E+02 -0.34145832128E+03  0.35444123673E+03  0.80419002446E+02 0. -1.
<mgrwt>
<rscale>  0 0.95051592E+02</rscale>
<asrwt>0</asrwt>
<pdfrwt beam="1">  1        1 0.58461928E-01 0.95051592E+02</pdfrwt>
<pdfrwt beam="2">  1       -1 0.11839953E-01 0.95051592E+02</pdfrwt>
<totfact> 0.28964365E+03</totfact>
</mgrwt>
</event>
<event>
 4    1  0.4862093E-001  0.8164548E+02  0.7546771E-02  0.1324446E+00
          2   -1    0    0  501    0  0.00000000000E+00  0.00000000000E+00  0.22553441041E+03  0.22553441041E+03  0.00000000000E+00 0. -1.
         -2   -1    0    0    0  501 -0.00000000000E+00 -0.00000000000E+00 -0.35171590533E+02  0.35171590533E+02  0.00000000000E+00 0.  1.
         24    1    1    2    0    0  0.69440233660E+01  0.12269860229E+02  0.14726577075E+03  0.16838406136E+03  0.80419002446E+02 0.  0.
        -24    1    1    2    0    0 -0.69440233660E+01 -0.12269860229E+02  0.43097049123E+02  0.92321939581E+02  0.80419002446E+02 0.  1.
<mgrwt>
<rscale>  0 0.81645483E+02</rscale>
<asrwt>0</asrwt>
<pdfrwt beam="1">  1        2 0.34697601E-01 0.81645483E+02</pdfrwt>
<pdfrwt beam="2">  1       -2 0.54110141E-02 0.81645483E+02</pdfrwt>
<totfact> 0.22794346E+04</totfact>
</mgrwt>
</event>
<event>
 4    1  0.4862093E-001  0.9186963E+02  0.7546771E-02  0.1298386E+00
          2   -1    0    0  501    0  0.00000000000E+00  0.00000000000E+00  0.64322487677E+02  0.64322487677E+02  0.00000000000E+00 0. -1.
         -2   -1    0    0    0  501 -0.00000000000E+00 -0.00000000000E+00 -0.49992050866E+03  0.49992050866E+03  0.00000000000E+00 0.  1.
         24    1    1    2    0    0 -0.43856033459E+02 -0.70328663565E+01  0.24485663123E+02  0.95076687642E+02  0.80419002446E+02 0. -1.
        -24    1    1    2    0    0  0.43856033459E+02  0.70328663565E+01 -0.46008368411E+03  0.46916630870E+03  0.80419002446E+02 0.  1.
<mgrwt>
<rscale>  0 0.91869630E+02</rscale>
<asrwt>0</asrwt>
<pdfrwt beam="1">  1        2 0.98957674E-02 0.91869630E+02</pdfrwt>
<pdfrwt beam="2">  1       -2 0.76910847E-01 0.91869630E+02</pdfrwt>
<totfact> 0.96856283E+02</totfact>
</mgrwt>
</event>
<event>
 4    1  0.4862093E-001  0.1393242E+03  0.7546771E-02  0.1214241E+00
         -1   -1    0    0    0  501 -0.00000000000E+00  0.00000000000E+00  0.12018605556E+02  0.12018605556E+02  0.00000000000E+00 0.  1.
          1   -1    0    0  501    0  0.00000000000E+00 -0.00000000000E+00 -0.16236283118E+04  0.16236283118E+04  0.00000000000E+00 0. -1.
         24    1    1    2    0    0 -0.75023605461E+02  0.85530488609E+02 -0.74652499626E+03  0.75941476931E+03  0.80419002446E+02 0.  1.
        -24    1    1    2    0    0  0.75023605461E+02 -0.85530488609E+02 -0.86508470996E+03  0.87623214801E+03  0.80419002446E+02 0. -1.
<mgrwt>
<rscale>  0 0.13932416E+03</rscale>
<asrwt>0</asrwt>
<pdfrwt beam="1">  1        1 0.24978890E+00 0.13932416E+03</pdfrwt>
<pdfrwt beam="2">  1       -1 0.18490167E-02 0.13932416E+03</pdfrwt>
<totfact> 0.45030567E+03</totfact>
</mgrwt>
</event>
<event>
 4    1  0.4862093E-001  0.8065827E+02  0.7546771E-02  0.1327194E+00
         -2   -1    0    0    0  501 -0.00000000000E+00  0.00000000000E+00  0.91746558987E+02  0.91746558987E+02  0.00000000000E+00 0.  1.
          2   -1    0    0  501    0  0.00000000000E+00 -0.00000000000E+00 -0.59592122846E+03  0.59592122846E+03  0.00000000000E+00 0. -1.
         24    1    1    2    0    0 -0.51151783761E+01  0.35178110179E+01 -0.57481672632E+03  0.58044812417E+03  0.80419002446E+02 0.  0.
        -24    1    1    2    0    0  0.51151783761E+01 -0.35178110179E+01  0.70642056843E+02  0.10721966328E+03  0.80419002446E+02 0.  1.
<mgrwt>
<rscale>  0 0.80658267E+02</rscale>
<asrwt>0</asrwt>
<pdfrwt beam="1">  1        2 0.91680193E-01 0.80658267E+02</pdfrwt>
<pdfrwt beam="2">  1       -2 0.14114855E-01 0.80658267E+02</pdfrwt>
<totfact> 0.18685885E+03</totfact>
</mgrwt>
</event>
<event>
 4    1  0.4862093E-001  0.1215130E+03  0.7546771E-02  0.1240622E+00
          4   -1    0    0  501    0  0.00000000000E+00  0.00000000000E+00  0.13149949076E+03  0.13149949076E+03  0.00000000000E+00 0. -1.
         -4   -1    0    0    0  501 -0.00000000000E+00 -0.00000000000E+00 -0.13547618249E+03  0.13547618249E+03  0.00000000000E+00 0.  1.
         24    1    1    2    0    0  0.15414972266E+02 -0.89780590681E+02 -0.57218174771E+02  0.13431050335E+03  0.80419002446E+02 0. -1.
        -24    1    1    2    0    0 -0.15414972266E+02  0.89780590681E+02  0.53241483041E+02  0.13266516990E+03  0.80419002446E+02 0.  0.
<mgrwt>
<rscale>  0 0.12151294E+03</rscale>
<asrwt>0</asrwt>
<pdfrwt beam="1">  1        4 0.20230691E-01 0.12151296E+03</pdfrwt>
<pdfrwt beam="2">  1       -4 0.20842490E-01 0.12151296E+03</pdfrwt>
<totfact> 0.74752038E+02</totfact>
</mgrwt>
</event>
<event>
 4    1  0.4862093E-001  0.8471471E+02  0.7546771E-02  0.1316180E+00
         -2   -1    0    0    0  501 -0.00000000000E+00  0.00000000000E+00  0.71837431760E+01  0.71837431760E+01  0.00000000000E+00 0.  1.
          2   -1    0    0  501    0  0.00000000000E+00 -0.00000000000E+00 -0.10126904835E+04  0.10126904835E+04  0.00000000000E+00 0. -1.
         24    1    1    2    0    0  0.26621575527E+02 -0.80838453921E+00 -0.44346803743E+03  0.45148696321E+03  0.80419002446E+02 0. -1.
        -24    1    1    2    0    0 -0.26621575527E+02  0.80838453921E+00 -0.56203870289E+03  0.56838726346E+03  0.80419002446E+02 0.  0.
<mgrwt>
<rscale>  0 0.84714695E+02</rscale>
<asrwt>0</asrwt>
<pdfrwt beam="1">  1        2 0.15579855E+00 0.84714705E+02</pdfrwt>
<pdfrwt beam="2">  1       -2 0.11051911E-02 0.84714705E+02</pdfrwt>
<totfact> 0.42690882E+04</totfact>
</mgrwt>
</event>
<event>
 4    1  0.4862093E-001  0.2006173E+03  0.7546771E-02  0.1149219E+00
         -1   -1    0    0    0  501 -0.00000000000E+00  0.00000000000E+00  0.18563153360E+02  0.18563153360E+02  0.00000000000E+00 0.  1.
          1   -1    0    0  501    0  0.00000000000E+00 -0.00000000000E+00 -0.21965859621E+04  0.21965859621E+04  0.00000000000E+00 0. -1.
         24    1    1    2    0    0  0.16406926959E+03 -0.82833206922E+02 -0.12150795547E+04  0.12315297827E+04  0.80419002446E+02 0.  1.
        -24    1    1    2    0    0 -0.16406926959E+03  0.82833206922E+02 -0.96294325406E+03  0.98361933281E+03  0.80419002446E+02 0. -1.
<mgrwt>
<rscale>  0 0.20061728E+03</rscale>
<asrwt>0</asrwt>
<pdfrwt beam="1">  1        1 0.33793625E+00 0.20061730E+03</pdfrwt>
<pdfrwt beam="2">  1       -1 0.28558702E-02 0.20061730E+03</pdfrwt>
<totfact> 0.10265629E+03</totfact>
</mgrwt>
</event>
<event>
 4    1  0.4862093E-001  0.8743725E+02  0.7546771E-02  0.1309179E+00
         -2   -1    0    0    0  501 -0.00000000000E+00  0.00000000000E+00  0.48165960830E+01  0.48165960830E+01  0.00000000000E+00 0.  1.
          2   -1    0    0  501    0  0.00000000000E+00 -0.00000000000E+00 -0.18943067877E+04  0.18943067877E+04  0.00000000000E+00 0. -1.
         24    1    1    2    0    0 -0.30191598898E+02 -0.16325542097E+02 -0.13270310326E+04  0.13299085057E+04  0.80419002446E+02 0. -1.
        -24    1    1    2    0    0  0.30191598898E+02  0.16325542097E+02 -0.56245915902E+03  0.56921487813E+03  0.80419002446E+02 0.  1.
<mgrwt>
<rscale>  0 0.87437246E+02</rscale>
<asrwt>0</asrwt>
<pdfrwt beam="1">  1        2 0.29143237E+00 0.87437246E+02</pdfrwt>
<pdfrwt beam="2">  1       -2 0.74101337E-03 0.87437246E+02</pdfrwt>
<totfact> 0.26098192E+04</totfact>
</mgrwt>
</event>
<event>
 4    1  0.4862093E-001  0.8809026E+02  0.7546771E-02  0.1307543E+00
         -1   -1    0    0    0  501 -0.00000000000E+00  0.00000000000E+00  0.36543924128E+03  0.36543924128E+03  0.00000000000E+00 0.  1.
          1   -1    0    0  501    0  0.00000000000E+00 -0.00000000000E+00 -0.52457911961E+02  0.52457911961E+02  0.00000000000E+00 0. -1.
         24    1    1    2    0    0  0.35411938694E+02 -0.62187004325E+01  0.31769421075E+03  0.32968091412E+03  0.80419002446E+02 0. -1.
        -24    1    1    2    0    0 -0.35411938694E+02  0.62187004325E+01 -0.47128814391E+01  0.88216239112E+02  0.80419002446E+02 0.  0.
<mgrwt>
<rscale>  0 0.88090258E+02</rscale>
<asrwt>0</asrwt>
<pdfrwt beam="1">  1        1 0.80704482E-02 0.88090258E+02</pdfrwt>
<pdfrwt beam="2">  1       -1 0.56221420E-01 0.88090258E+02</pdfrwt>
<totfact> 0.26669623E+03</totfact>
</mgrwt>
</event>
<event>
 4    1  0.4862093E-001  0.1225667E+03  0.7546771E-02  0.1238922E+00
         -1   -1    0    0    0  501 -0.00000000000E+00  0.00000000000E+00  0.50028625027E+02  0.50028625027E+02  0.00000000000E+00 0.  1.
          1   -1    0    0  501    0  0.00000000000E+00 -0.00000000000E+00 -0.33249130351E+04  0.33249130351E+04  0.00000000000E+00 0. -1.
         24    1    1    2    0    0  0.56890201678E+02  0.72930757532E+02 -0.27973787467E+02  0.12571849180E+03  0.80419002446E+02 0.  1.
        -24    1    1    2    0    0 -0.56890201678E+02 -0.72930757532E+02 -0.32469106226E+04  0.32492231684E+04  0.80419002446E+02 0. -1.
<mgrwt>
<rscale>  0 0.12256674E+03</rscale>
<asrwt>0</asrwt>
<pdfrwt beam="1">  1        1 0.51152521E+00 0.12256674E+03</pdfrwt>
<pdfrwt beam="2">  1       -1 0.76967097E-02 0.12256674E+03</pdfrwt>
<totfact> 0.42219690E+01</totfact>
</mgrwt>
</event>
<event>
 4    1  0.4862093E-001  0.9134276E+02  0.7546771E-02  0.1299632E+00
          1   -1    0    0  501    0  0.00000000000E+00  0.00000000000E+00  0.11230347482E+04  0.11230347482E+04  0.00000000000E+00 0. -1.
         -1   -1    0    0    0  501 -0.00000000000E+00 -0.00000000000E+00 -0.10895524340E+02  0.10895524340E+02  0.00000000000E+00 0.  1.
         24    1    1    2    0    0 -0.56098100169E+00 -0.43312454296E+02  0.23628838730E+03  0.25332923504E+03  0.80419002446E+02 0.  0.
        -24    1    1    2    0    0  0.56098100169E+00  0.43312454296E+02  0.87585083655E+03  0.88060103750E+03  0.80419002446E+02 0.  0.
<mgrwt>
<rscale>  0 0.91342758E+02</rscale>
<asrwt>0</asrwt>
<pdfrwt beam="1">  1        1 0.17277449E+00 0.91342758E+02</pdfrwt>
<pdfrwt beam="2">  1       -1 0.16762354E-02 0.91342758E+02</pdfrwt>
<totfact> 0.10855222E+04</totfact>
</mgrwt>
</event>
<event>
 4    1  0.4862093E-001  0.1210532E+03  0.7546771E-02  0.1241370E+00
          3   -1    0    0  501    0  0.00000000000E+00  0.00000000000E+00  0.58751704874E+02  0.58751704874E+02  0.00000000000E+00 0. -1.
         -3   -1    0    0    0  501 -0.00000000000E+00 -0.00000000000E+00 -0.25642063592E+03  0.25642063592E+03  0.00000000000E+00 0.  1.
         24    1    1    2    0    0  0.62919904072E+02 -0.65021072569E+02 -0.12487199882E+03  0.17391631968E+03  0.80419002446E+02 0. -1.
        -24    1    1    2    0    0 -0.62919904072E+02  0.65021072569E+02 -0.72796932230E+02  0.14125602112E+03  0.80419002446E+02 0.  1.
<mgrwt>
<rscale>  0 0.12105317E+03</rscale>
<asrwt>0</asrwt>
<pdfrwt beam="1">  1        3 0.90387238E-02 0.12105317E+03</pdfrwt>
<pdfrwt beam="2">  1       -3 0.39449329E-01 0.12105317E+03</pdfrwt>
<totfact> 0.12567156E+03</totfact>
</mgrwt>
</event>
<event>
 4    1  0.4862093E-001  0.8589811E+02  0.7546771E-02  0.1313100E+00
          4   -1    0    0  501    0  0.00000000000E+00  0.00000000000E+00  0.14403882630E+04  0.14403882630E+04  0.00000000000E+00 0. -1.
         -4   -1    0    0    0  501 -0.00000000000E+00 -0.00000000000E+00 -0.11114359566E+02  0.11114359566E+02  0.00000000000E+00 0.  1.
         24    1    1    2    0    0 -0.30139172571E+02 -0.17028880317E+01  0.12475102879E+04  0.12504640754E+04  0.80419002446E+02 0.  0.
        -24    1    1    2    0    0  0.30139172571E+02  0.17028880317E+01  0.18176361551E+03  0.20103854712E+03  0.80419002446E+02 0.  0.
<mgrwt>
<rscale>  0 0.85898111E+02</rscale>
<asrwt>0</asrwt>
<pdfrwt beam="1">  1        4 0.22159805E+00 0.85898111E+02</pdfrwt>
<pdfrwt beam="2">  1       -4 0.17099026E-02 0.85898111E+02</pdfrwt>
<totfact> 0.21617602E+02</totfact>
</mgrwt>
</event>
<event>
 4    1  0.4862093E-001  0.8623321E+02  0.7546771E-02  0.1312239E+00
          3   -1    0    0  501    0  0.00000000000E+00  0.00000000000E+00  0.35315328682E+03  0.35315328682E+03  0.00000000000E+00 0. -1.
         -3   -1    0    0    0  501 -0.00000000000E+00 -0.00000000000E+00 -0.99555318361E+02  0.99555318361E+02  0.00000000000E+00 0.  1.
         24    1    1    2    0    0  0.82639076942E+01 -0.30010974670E+02 -0.74197343954E+02  0.11376032953E+03  0.80419002446E+02 0.  1.
        -24    1    1    2    0    0 -0.82639076942E+01  0.30010974670E+02  0.32779531242E+03  0.33894827565E+03  0.80419002446E+02 0. -1.
<mgrwt>
<rscale>  0 0.86233211E+02</rscale>
<asrwt>0</asrwt>
<pdfrwt beam="1">  1        3 0.54331274E-01 0.86233211E+02</pdfrwt>
<pdfrwt beam="2">  1       -3 0.15316203E-01 0.86233211E+02</pdfrwt>
<totfact> 0.26420863E+02</totfact>
</mgrwt>
</event>
<event>
 4    1  0.4862093E-001  0.8066583E+02  0.7546771E-02  0.1327172E+00
          2   -1    0    0  501    0  0.00000000000E+00  0.00000000000E+00  0.13518071021E+04  0.13518071021E+04  0.00000000000E+00 0. -1.
         -2   -1    0    0    0  501 -0.00000000000E+00 -0.00000000000E+00 -0.14610603051E+02  0.14610603051E+02  0.00000000000E+00 0.  1.
         24    1    1    2    0    0 -0.55376039247E+01  0.30158157535E+01  0.12280561210E+04  0.12307025686E+04  0.80419002446E+02 0.  0.
        -24    1    1    2    0    0  0.55376039247E+01 -0.30158157535E+01  0.10914037808E+03  0.13571513653E+03  0.80419002446E+02 0.  1.
<mgrwt>
<rscale>  0 0.80665830E+02</rscale>
<asrwt>0</asrwt>
<pdfrwt beam="1">  1        2 0.20797022E+00 0.80665830E+02</pdfrwt>
<pdfrwt beam="2">  1       -2 0.22477862E-02 0.80665830E+02</pdfrwt>
<totfact> 0.10098270E+04</totfact>
</mgrwt>
</event>
<event>
 4    1  0.4862093E-001  0.8933412E+02  0.7546771E-02  0.1304472E+00
         -1   -1    0    0    0  501 -0.00000000000E+00  0.00000000000E+00  0.82367619109E+02  0.82367619109E+02  0.00000000000E+00 0.  1.
          1   -1    0    0  501    0  0.00000000000E+00 -0.00000000000E+00 -0.17712417729E+03  0.17712417729E+03  0.00000000000E+00 0. -1.
         24    1    1    2    0    0  0.33902507268E+02  0.19078485428E+02  0.39945973585E+02  0.97858394455E+02  0.80419002446E+02 0.  1.
        -24    1    1    2    0    0 -0.33902507268E+02 -0.19078485428E+02 -0.13470253177E+03  0.16163340194E+03  0.80419002446E+02 0. -1.
<mgrwt>
<rscale>  0 0.89334118E+02</rscale>
<asrwt>0</asrwt>
<pdfrwt beam="1">  1        1 0.27249873E-01 0.89334118E+02</pdfrwt>
<pdfrwt beam="2">  1       -1 0.12671941E-01 0.89334118E+02</pdfrwt>
<totfact> 0.66267893E+03</totfact>
</mgrwt>
</event>
<event>
 4    1  0.4862093E-001  0.9580749E+02  0.7546771E-02  0.1289368E+00
         -2   -1    0    0    0  501 -0.00000000000E+00  0.00000000000E+00  0.55666089163E+03  0.55666089163E+03  0.00000000000E+00 0.  1.
          2   -1    0    0  501    0  0.00000000000E+00 -0.00000000000E+00 -0.17789930025E+02  0.17789930025E+02  0.00000000000E+00 0. -1.
         24    1    1    2    0    0  0.16030869342E+02  0.49546656812E+02  0.19177959330E+03  0.21437930949E+03  0.80419002446E+02 0. -1.
        -24    1    1    2    0    0 -0.16030869342E+02 -0.49546656812E+02  0.34709136831E+03  0.36007151217E+03  0.80419002446E+02 0.  1.
<mgrwt>
<rscale>  0 0.95807494E+02</rscale>
<asrwt>0</asrwt>
<pdfrwt beam="1">  1        2 0.27369127E-02 0.95807494E+02</pdfrwt>
<pdfrwt beam="2">  1       -2 0.85640124E-01 0.95807494E+02</pdfrwt>
<totfact> 0.39968467E+03</totfact>
</mgrwt>
</event>
<event>
 4    1  0.4862093E-001  0.1262931E+03  0.7546771E-02  0.1233062E+00
         -2   -1    0    0    0  501 -0.00000000000E+00  0.00000000000E+00  0.94838301507E+01  0.94838301507E+01  0.00000000000E+00 0.  1.
          2   -1    0    0  501    0  0.00000000000E+00 -0.00000000000E+00 -0.28091785074E+04  0.28091785074E+04  0.00000000000E+00 0. -1.
         24    1    1    2    0    0  0.44043380711E+02 -0.86849878256E+02 -0.22926544306E+04  0.22961302826E+04  0.80419002446E+02 0. -1.
        -24    1    1    2    0    0 -0.44043380711E+02  0.86849878256E+02 -0.50704024670E+03  0.52253205497E+03  0.80419002446E+02 0.  1.
<mgrwt>
<rscale>  0 0.12629306E+03</rscale>
<asrwt>0</asrwt>
<pdfrwt beam="1">  1        2 0.43218083E+00 0.12629306E+03</pdfrwt>
<pdfrwt beam="2">  1       -2 0.14590524E-02 0.12629306E+03</pdfrwt>
<totfact> 0.33480788E+03</totfact>
</mgrwt>
</event>
<event>
 4    1  0.4862093E-001  0.1775499E+03  0.7546771E-02  0.1170196E+00
          1   -1    0    0  501    0  0.00000000000E+00  0.00000000000E+00  0.87881957276E+03  0.87881957276E+03  0.00000000000E+00 0. -1.
         -1   -1    0    0    0  501 -0.00000000000E+00 -0.00000000000E+00 -0.35950151708E+02  0.35950151708E+02  0.00000000000E+00 0.  1.
         24    1    1    2    0    0 -0.15408603679E+03  0.36252188213E+02  0.44292604610E+03  0.47718699285E+03  0.80419002446E+02 0.  1.
        -24    1    1    2    0    0  0.15408603679E+03 -0.36252188213E+02  0.39994337496E+03  0.43758273162E+03  0.80419002446E+02 0. -1.
<mgrwt>
<rscale>  0 0.17754986E+03</rscale>
<asrwt>0</asrwt>
<pdfrwt beam="1">  1        1 0.13520299E+00 0.17754988E+03</pdfrwt>
<pdfrwt beam="2">  1       -1 0.55307932E-02 0.17754988E+03</pdfrwt>
<totfact> 0.29697357E+03</totfact>
</mgrwt>
</event>
<event>
 4    1  0.4862093E-001  0.1155255E+03  0.7546771E-02  0.1250667E+00
         -2   -1    0    0    0  501 -0.00000000000E+00  0.00000000000E+00  0.10535328173E+02  0.10535328173E+02  0.00000000000E+00 0.  1.
          2   -1    0    0  501    0  0.00000000000E+00 -0.00000000000E+00 -0.12685168972E+04  0.12685168972E+04  0.00000000000E+00 0. -1.
         24    1    1    2    0    0 -0.82935403950E+02  0.80237116702E+00 -0.60545464217E+03  0.61637769648E+03  0.80419002446E+02 0. -1.
        -24    1    1    2    0    0  0.82935403950E+02 -0.80237116702E+00 -0.65252692690E+03  0.66267452895E+03  0.80419002446E+02 0.  0.
<mgrwt>
<rscale>  0 0.11552551E+03</rscale>
<asrwt>0</asrwt>
<pdfrwt beam="1">  1        2 0.19515655E+00 0.11552553E+03</pdfrwt>
<pdfrwt beam="2">  1       -2 0.16208189E-02 0.11552553E+03</pdfrwt>
<totfact> 0.18297900E+04</totfact>
</mgrwt>
</event>
<event>
 4    1  0.4862093E-001  0.8227794E+02  0.7546771E-02  0.1322708E+00
         -2   -1    0    0    0  501 -0.00000000000E+00  0.00000000000E+00  0.28541245302E+03  0.28541245302E+03  0.00000000000E+00 0.  1.
          2   -1    0    0  501    0  0.00000000000E+00 -0.00000000000E+00 -0.34573549130E+02  0.34573549130E+02  0.00000000000E+00 0. -1.
         24    1    1    2    0    0  0.17308158361E+02 -0.16944220498E+01  0.35772071627E+02  0.89717893839E+02  0.80419002446E+02 0. -1.
        -24    1    1    2    0    0 -0.17308158361E+02  0.16944220498E+01  0.21506683227E+03  0.23026810832E+03  0.80419002446E+02 0.  1.
<mgrwt>
<rscale>  0 0.82277940E+02</rscale>
<asrwt>0</asrwt>
<pdfrwt beam="1">  1        2 0.53190077E-02 0.82277940E+02</pdfrwt>
<pdfrwt beam="2">  1       -2 0.43909607E-01 0.82277940E+02</pdfrwt>
<totfact> 0.64898479E+03</totfact>
</mgrwt>
</event>
<event>
 4    1  0.4862093E-001  0.8777594E+02  0.7546771E-02  0.1308329E+00
          1   -1    0    0  501    0  0.00000000000E+00  0.00000000000E+00  0.75998700253E+02  0.75998700253E+02  0.00000000000E+00 0. -1.
         -1   -1    0    0    0  501 -0.00000000000E+00 -0.00000000000E+00 -0.12132109076E+03  0.12132109076E+03  0.00000000000E+00 0.  1.
         24    1    1    2    0    0 -0.29848146726E+02 -0.18614183582E+02 -0.62661744030E+02  0.10784762312E+03  0.80419002446E+02 0.  1.
        -24    1    1    2    0    0  0.29848146726E+02  0.18614183582E+02  0.17339353518E+02  0.89472167897E+02  0.80419002446E+02 0. -1.
<mgrwt>
<rscale>  0 0.87775940E+02</rscale>
<asrwt>0</asrwt>
<pdfrwt beam="1">  1        1 0.11692108E-01 0.87775940E+02</pdfrwt>
<pdfrwt beam="2">  1       -1 0.18664783E-01 0.87775940E+02</pdfrwt>
<totfact> 0.10567408E+04</totfact>
</mgrwt>
</event>
<event>
 4    1  0.4862093E-001  0.1033595E+03  0.7546771E-02  0.1273386E+00
         -1   -1    0    0    0  501 -0.00000000000E+00  0.00000000000E+00  0.80315994661E+02  0.80315994661E+02  0.00000000000E+00 0.  1.
          1   -1    0    0  501    0  0.00000000000E+00 -0.00000000000E+00 -0.27687364911E+03  0.27687364911E+03  0.00000000000E+00 0. -1.
         24    1    1    2    0    0 -0.76641973650E+00 -0.64926048173E+02  0.30456201388E+02  0.10775330755E+03  0.80419002446E+02 0.  1.
        -24    1    1    2    0    0  0.76641973650E+00  0.64926048173E+02 -0.22701385584E+03  0.24943633622E+03  0.80419002446E+02 0. -1.
<mgrwt>
<rscale>  0 0.10335954E+03</rscale>
<asrwt>0</asrwt>
<pdfrwt beam="1">  1        1 0.42595946E-01 0.10335954E+03</pdfrwt>
<pdfrwt beam="2">  1       -1 0.12356307E-01 0.10335954E+03</pdfrwt>
<totfact> 0.40228406E+03</totfact>
</mgrwt>
</event>
<event>
 4    1  0.4862093E-001  0.9165383E+02  0.7546771E-02  0.1298895E+00
          1   -1    0    0  501    0  0.00000000000E+00  0.00000000000E+00  0.34099986523E+03  0.34099986523E+03  0.00000000000E+00 0. -1.
         -1   -1    0    0    0  501 -0.00000000000E+00 -0.00000000000E+00 -0.24635959879E+02  0.24635959879E+02  0.00000000000E+00 0.  1.
         24    1    1    2    0    0 -0.18924324527E+02 -0.39687198237E+02  0.15950394300E+03  0.18396175567E+03  0.80419002446E+02 0. -1.
        -24    1    1    2    0    0  0.18924324527E+02  0.39687198237E+02  0.15685996235E+03  0.18167406944E+03  0.80419002446E+02 0.  1.
<mgrwt>
<rscale>  0 0.91653815E+02</rscale>
<asrwt>0</asrwt>
<pdfrwt beam="1">  1        1 0.52461514E-01 0.91653827E+02</pdfrwt>
<pdfrwt beam="2">  1       -1 0.37901479E-02 0.91653827E+02</pdfrwt>
<totfact> 0.17894472E+04</totfact>
</mgrwt>
</event>
<event>
 4    1  0.4862093E-001  0.1054885E+03  0.7546771E-02  0.1269160E+00
         -3   -1    0    0    0  501 -0.00000000000E+00  0.00000000000E+00  0.43247741724E+03  0.43247741724E+03  0.00000000000E+00 0.  1.
          3   -1    0    0  501    0  0.00000000000E+00 -0.00000000000E+00 -0.26152927687E+02  0.26152927687E+02  0.00000000000E+00 0. -1.
         24    1    1    2    0    0  0.23212913700E+02 -0.64200944937E+02  0.23230969461E+03  0.25513841509E+03  0.80419002446E+02 0.  1.
        -24    1    1    2    0    0 -0.23212913700E+02  0.64200944937E+02  0.17401479495E+03  0.20349192984E+03  0.80419002446E+02 0. -1.
<mgrwt>
<rscale>  0 0.10548847E+03</rscale>
<asrwt>0</asrwt>
<pdfrwt beam="1">  1        3 0.40235277E-02 0.10548847E+03</pdfrwt>
<pdfrwt beam="2">  1       -3 0.66534982E-01 0.10548847E+03</pdfrwt>
<totfact> 0.15669427E+03</totfact>
</mgrwt>
</event>
<event>
 4    1  0.4862093E-001  0.8813207E+02  0.7546771E-02  0.1307439E+00
          2   -1    0    0  501    0  0.00000000000E+00  0.00000000000E+00  0.46079917759E+03  0.46079917759E+03  0.00000000000E+00 0. -1.
         -2   -1    0    0    0  501 -0.00000000000E+00 -0.00000000000E+00 -0.17868820934E+02  0.17868820934E+02  0.00000000000E+00 0.  1.
         24    1    1    2    0    0  0.10471866633E+02 -0.34501963604E+02  0.27844336092E+03  0.29205815633E+03  0.80419002446E+02 0. -1.
        -24    1    1    2    0    0 -0.10471866633E+02  0.34501963604E+02  0.16448699573E+03  0.18660984219E+03  0.80419002446E+02 0.  1.
<mgrwt>
<rscale>  0 0.88132068E+02</rscale>
<asrwt>0</asrwt>
<pdfrwt beam="1">  1        2 0.70892172E-01 0.88132068E+02</pdfrwt>
<pdfrwt beam="2">  1       -2 0.27490497E-02 0.88132068E+02</pdfrwt>
<totfact> 0.29349032E+04</totfact>
</mgrwt>
</event>
<event>
 4    1  0.4862093E-001  0.1161417E+03  0.7546771E-02  0.1249601E+00
          2   -1    0    0  501    0  0.00000000000E+00  0.00000000000E+00  0.42618967782E+03  0.42618967782E+03  0.00000000000E+00 0. -1.
         -2   -1    0    0    0  501 -0.00000000000E+00 -0.00000000000E+00 -0.34106317487E+02  0.34106317487E+02  0.00000000000E+00 0.  1.
         24    1    1    2    0    0 -0.46384225454E+02 -0.69786636427E+02  0.25780568208E+03  0.28275900810E+03  0.80419002446E+02 0. -1.
        -24    1    1    2    0    0  0.46384225454E+02  0.69786636427E+02  0.13427767825E+03  0.17753698720E+03  0.80419002446E+02 0.  0.
<mgrwt>
<rscale>  0 0.11614167E+03</rscale>
<asrwt>0</asrwt>
<pdfrwt beam="1">  1        2 0.65567639E-01 0.11614167E+03</pdfrwt>
<pdfrwt beam="2">  1       -2 0.52471261E-02 0.11614167E+03</pdfrwt>
<totfact> 0.12648674E+04</totfact>
</mgrwt>
</event>
<event>
 4    1  0.4862093E-001  0.9251941E+02  0.7546771E-02  0.1296863E+00
         -1   -1    0    0    0  501 -0.00000000000E+00  0.00000000000E+00  0.15161132181E+03  0.15161132181E+03  0.00000000000E+00 0.  1.
          1   -1    0    0  501    0  0.00000000000E+00 -0.00000000000E+00 -0.65365728486E+02  0.65365728486E+02  0.00000000000E+00 0. -1.
         24    1    1    2    0    0  0.45207589970E+02 -0.69928269885E+01  0.83169331137E+02  0.12440650874E+03  0.80419002446E+02 0. -1.
        -24    1    1    2    0    0 -0.45207589970E+02  0.69928269885E+01  0.30762621816E+01  0.92570541554E+02  0.80419002446E+02 0.  1.
<mgrwt>
<rscale>  0 0.92519413E+02</rscale>
<asrwt>0</asrwt>
<pdfrwt beam="1">  1        1 0.10056266E-01 0.92519413E+02</pdfrwt>
<pdfrwt beam="2">  1       -1 0.23324819E-01 0.92519413E+02</pdfrwt>
<totfact> 0.90597181E+03</totfact>
</mgrwt>
</event>
<event>
 4    1  0.4862093E-001  0.8283845E+02  0.7546771E-02  0.1321184E+00
         -2   -1    0    0    0  501 -0.00000000000E+00  0.00000000000E+00  0.14656808323E+03  0.14656808323E+03  0.00000000000E+00 0.  1.
          2   -1    0    0  501    0  0.00000000000E+00 -0.00000000000E+00 -0.49938758030E+02  0.49938758030E+02  0.00000000000E+00 0. -1.
         24    1    1    2    0    0  0.19855840011E+02  0.85915793157E+00  0.23757877824E+02  0.86177985866E+02  0.80419002446E+02 0.  0.
        -24    1    1    2    0    0 -0.19855840011E+02 -0.85915793157E+00  0.72871447372E+02  0.11032885539E+03  0.80419002446E+02 0.  0.
<mgrwt>
<rscale>  0 0.82838448E+02</rscale>
<asrwt>0</asrwt>
<pdfrwt beam="1">  1        2 0.76828859E-02 0.82838448E+02</pdfrwt>
<pdfrwt beam="2">  1       -2 0.22548936E-01 0.82838448E+02</pdfrwt>
<totfact> 0.13521198E+04</totfact>
</mgrwt>
</event>
<event>
 4    1  0.4862093E-001  0.8356336E+02  0.7546771E-02  0.1319233E+00
         -1   -1    0    0    0  501 -0.00000000000E+00  0.00000000000E+00  0.27161173070E+03  0.27161173070E+03  0.00000000000E+00 0.  1.
          1   -1    0    0  501    0  0.00000000000E+00 -0.00000000000E+00 -0.42634989597E+02  0.42634989597E+02  0.00000000000E+00 0. -1.
         24    1    1    2    0    0  0.65363228843E+01  0.21746170736E+02  0.21348858976E+03  0.22926014344E+03  0.80419002446E+02 0.  0.
        -24    1    1    2    0    0 -0.65363228843E+01 -0.21746170736E+02  0.15488151337E+02  0.84986576850E+02  0.80419002446E+02 0. -1.
<mgrwt>
<rscale>  0 0.83563362E+02</rscale>
<asrwt>0</asrwt>
<pdfrwt beam="1">  1        1 0.65592293E-02 0.83563362E+02</pdfrwt>
<pdfrwt beam="2">  1       -1 0.41786419E-01 0.83563362E+02</pdfrwt>
<totfact> 0.59574358E+03</totfact>
</mgrwt>
</event>
<event>
 4    1  0.4862093E-001  0.9029464E+02  0.7546771E-02  0.1302140E+00
          1   -1    0    0  501    0  0.00000000000E+00  0.00000000000E+00  0.13792362940E+03  0.13792362940E+03  0.00000000000E+00 0. -1.
         -1   -1    0    0    0  501 -0.00000000000E+00 -0.00000000000E+00 -0.12425841461E+03  0.12425841461E+03  0.00000000000E+00 0.  1.
         24    1    1    2    0    0  0.32423727314E+02 -0.25191422289E+02 -0.88085910677E+02  0.12614376506E+03  0.80419002446E+02 0.  1.
        -24    1    1    2    0    0 -0.32423727314E+02  0.25191422289E+02  0.10175112547E+03  0.13603827895E+03  0.80419002446E+02 0. -1.
<mgrwt>
<rscale>  0 0.90294639E+02</rscale>
<asrwt>0</asrwt>
<pdfrwt beam="1">  1        1 0.21219020E-01 0.90294639E+02</pdfrwt>
<pdfrwt beam="2">  1       -1 0.19116679E-01 0.90294639E+02</pdfrwt>
<totfact> 0.47744671E+03</totfact>
</mgrwt>
</event>
<event>
 4    1  0.4862093E-001  0.8376943E+02  0.7546771E-02  0.1318682E+00
         -2   -1    0    0    0  501 -0.00000000000E+00  0.00000000000E+00  0.29258526521E+01  0.29258526521E+01  0.00000000000E+00 0.  1.
          2   -1    0    0  501    0  0.00000000000E+00 -0.00000000000E+00 -0.31036740803E+04  0.31036740803E+04  0.00000000000E+00 0. -1.
         24    1    1    2    0    0 -0.20236113707E+02  0.11857517212E+02 -0.22908335884E+04  0.22923646844E+04  0.80419002446E+02 0. -1.
        -24    1    1    2    0    0  0.20236113707E+02 -0.11857517212E+02 -0.80991463934E+03  0.81423524855E+03  0.80419002446E+02 0.  1.
<mgrwt>
<rscale>  0 0.83769427E+02</rscale>
<asrwt>0</asrwt>
<pdfrwt beam="1">  1        2 0.47748739E+00 0.83769427E+02</pdfrwt>
<pdfrwt beam="2">  1       -2 0.45013206E-03 0.83769427E+02</pdfrwt>
<totfact> 0.12011668E+04</totfact>
</mgrwt>
</event>
<event>
 4    1  0.4862093E-001  0.1064032E+03  0.7546771E-02  0.1267379E+00
         -1   -1    0    0    0  501 -0.00000000000E+00  0.00000000000E+00  0.48752206876E+03  0.48752206876E+03  0.00000000000E+00 0.  1.
          1   -1    0    0  501    0  0.00000000000E+00 -0.00000000000E+00 -0.27169353315E+02  0.27169353315E+02  0.00000000000E+00 0. -1.
         24    1    1    2    0    0  0.33467976359E+02 -0.61109133820E+02  0.32825715753E+03  0.34507159997E+03  0.80419002446E+02 0.  0.
        -24    1    1    2    0    0 -0.33467976359E+02  0.61109133820E+02  0.13209555791E+03  0.16961982211E+03  0.80419002446E+02 0.  1.
<mgrwt>
<rscale>  0 0.10640323E+03</rscale>
<asrwt>0</asrwt>
<pdfrwt beam="1">  1        1 0.41799008E-02 0.10640323E+03</pdfrwt>
<pdfrwt beam="2">  1       -1 0.75003389E-01 0.10640323E+03</pdfrwt>
<totfact> 0.37613524E+03</totfact>
</mgrwt>
</event>
<event>
 4    1  0.4862093E-001  0.9748422E+02  0.7546771E-02  0.1285677E+00
          1   -1    0    0  501    0  0.00000000000E+00  0.00000000000E+00  0.40640227595E+03  0.40640227595E+03  0.00000000000E+00 0. -1.
         -1   -1    0    0    0  501 -0.00000000000E+00 -0.00000000000E+00 -0.60783364293E+02  0.60783364293E+02  0.00000000000E+00 0.  1.
         24    1    1    2    0    0  0.48735793175E+02 -0.25705636858E+02 -0.10422491948E+02  0.98039795978E+02  0.80419002446E+02 0.  1.
        -24    1    1    2    0    0 -0.48735793175E+02  0.25705636858E+02  0.35604140361E+03  0.36914584427E+03  0.80419002446E+02 0. -1.
<mgrwt>
<rscale>  0 0.97484221E+02</rscale>
<asrwt>0</asrwt>
<pdfrwt beam="1">  1        1 0.62523425E-01 0.97484221E+02</pdfrwt>
<pdfrwt beam="2">  1       -1 0.93512871E-02 0.97484221E+02</pdfrwt>
<totfact> 0.38159737E+03</totfact>
</mgrwt>
</event>
<event>
 4    1  0.4862093E-001  0.8972027E+02  0.7546771E-02  0.1303531E+00
          4   -1    0    0  501    0  0.00000000000E+00  0.00000000000E+00  0.77291817524E+01  0.77291817524E+01  0.00000000000E+00 0. -1.
         -4   -1    0    0    0  501 -0.00000000000E+00 -0.00000000000E+00 -0.10886254409E+04  0.10886254409E+04  0.00000000000E+00 0.  1.
         24    1    1    2    0    0  0.22931608846E+02 -0.32506128974E+02 -0.65453626674E+03  0.66065683039E+03  0.80419002446E+02 0.  1.
        -24    1    1    2    0    0 -0.22931608846E+02  0.32506128974E+02 -0.42635999244E+03  0.43569779230E+03  0.80419002446E+02 0.  0.
<mgrwt>
<rscale>  0 0.89720260E+02</rscale>
<asrwt>0</asrwt>
<pdfrwt beam="1">  1        4 0.11891052E-02 0.89720271E+02</pdfrwt>
<pdfrwt beam="2">  1       -4 0.16748080E+00 0.89720271E+02</pdfrwt>
<totfact> 0.81952292E+02</totfact>
</mgrwt>
</event>
<event>
 4    1  0.4862093E-001  0.8142661E+02  0.7546771E-02  0.1325051E+00
         -1   -1    0    0    0  501 -0.00000000000E+00  0.00000000000E+00  0.31503028288E+02  0.31503028288E+02  0.00000000000E+00 0.  1.
          1   -1    0    0  501    0  0.00000000000E+00 -0.00000000000E+00 -0.31333152433E+03  0.31333152433E+03  0.00000000000E+00 0. -1.
         24    1    1    2    0    0  0.10931875475E+02  0.66008045095E+01 -0.42123731433E+02  0.91677157601E+02  0.80419002446E+02 0.  1.
        -24    1    1    2    0    0 -0.10931875475E+02 -0.66008045095E+01 -0.23970476461E+03  0.25315739502E+03  0.80419002446E+02 0.  0.
<mgrwt>
<rscale>  0 0.81426608E+02</rscale>
<asrwt>0</asrwt>
<pdfrwt beam="1">  1        1 0.48204849E-01 0.81426608E+02</pdfrwt>
<pdfrwt beam="2">  1       -1 0.48466198E-02 0.81426608E+02</pdfrwt>
<totfact> 0.13716519E+04</totfact>
</mgrwt>
</event>
<event>
 4    1  0.4862093E-001  0.1190260E+03  0.7546771E-02  0.1244712E+00
         -1   -1    0    0    0  501 -0.00000000000E+00  0.00000000000E+00  0.31166289287E+02  0.31166289287E+02  0.00000000000E+00 0.  1.
          1   -1    0    0  501    0  0.00000000000E+00 -0.00000000000E+00 -0.45547734723E+03  0.45547734723E+03  0.00000000000E+00 0. -1.
         24    1    1    2    0    0 -0.19723620417E+02 -0.85504123214E+02 -0.22302866998E+03  0.25280225449E+03  0.80419002446E+02 0.  0.
        -24    1    1    2    0    0  0.19723620417E+02  0.85504123214E+02 -0.20128238797E+03  0.23384138203E+03  0.80419002446E+02 0.  0.
<mgrwt>
<rscale>  0 0.11902603E+03</rscale>
<asrwt>0</asrwt>
<pdfrwt beam="1">  1        1 0.70073437E-01 0.11902604E+03</pdfrwt>
<pdfrwt beam="2">  1       -1 0.47948138E-02 0.11902604E+03</pdfrwt>
<totfact> 0.90432749E+03</totfact>
</mgrwt>
</event>
<event>
 4    1  0.4862093E-001  0.8242664E+02  0.7546771E-02  0.1322303E+00
         -1   -1    0    0    0  501 -0.00000000000E+00  0.00000000000E+00  0.29238783170E+02  0.29238783170E+02  0.00000000000E+00 0.  1.
          1   -1    0    0  501    0  0.00000000000E+00 -0.00000000000E+00 -0.23402646681E+03  0.23402646681E+03  0.00000000000E+00 0. -1.
         24    1    1    2    0    0 -0.13875171952E+02  0.11593551592E+02 -0.11347621334E+03  0.14025333430E+03  0.80419002446E+02 0.  0.
        -24    1    1    2    0    0  0.13875171952E+02 -0.11593551592E+02 -0.91311470300E+02  0.12301191567E+03  0.80419002446E+02 0.  0.
<mgrwt>
<rscale>  0 0.82426625E+02</rscale>
<asrwt>0</asrwt>
<pdfrwt beam="1">  1        1 0.36004072E-01 0.82426635E+02</pdfrwt>
<pdfrwt beam="2">  1       -1 0.44982743E-02 0.82426635E+02</pdfrwt>
<totfact> 0.21830105E+04</totfact>
</mgrwt>
</event>
<event>
 4    1  0.4862093E-001  0.8480129E+02  0.7546771E-02  0.1315953E+00
          2   -1    0    0  501    0  0.00000000000E+00  0.00000000000E+00  0.32936784357E+04  0.32936784357E+04  0.00000000000E+00 0. -1.
         -2   -1    0    0    0  501 -0.00000000000E+00 -0.00000000000E+00 -0.12822367873E+02  0.12822367873E+02  0.00000000000E+00 0.  1.
         24    1    1    2    0    0 -0.16362153235E+02 -0.21361714960E+02  0.31463596540E+04  0.31475022369E+04  0.80419002446E+02 0. -1.
        -24    1    1    2    0    0  0.16362153235E+02  0.21361714960E+02  0.13449641387E+03  0.15899856673E+03  0.80419002446E+02 0. -1.
<mgrwt>
<rscale>  0 0.84801291E+02</rscale>
<asrwt>0</asrwt>
<pdfrwt beam="1">  1        2 0.50671908E+00 0.84801291E+02</pdfrwt>
<pdfrwt beam="2">  1       -2 0.19726746E-02 0.84801291E+02</pdfrwt>
<totfact> 0.11504454E+03</totfact>
</mgrwt>
</event>
<event>
 4    1  0.4862093E-001  0.1277667E+03  0.7546771E-02  0.1230808E+00
         -2   -1    0    0    0  501 -0.00000000000E+00  0.00000000000E+00  0.15880567655E+02  0.15880567655E+02  0.00000000000E+00 0.  1.
          2   -1    0    0  501    0  0.00000000000E+00 -0.00000000000E+00 -0.15554692320E+04  0.15554692320E+04  0.00000000000E+00 0. -1.
         24    1    1    2    0    0  0.30067286897E+02  0.94620715650E+02 -0.12273392120E+04  0.12339715875E+04  0.80419002446E+02 0.  1.
        -24    1    1    2    0    0 -0.30067286897E+02 -0.94620715650E+02 -0.31224945236E+03  0.33737821214E+03  0.80419002446E+02 0.  0.
<mgrwt>
<rscale>  0 0.12776673E+03</rscale>
<asrwt>0</asrwt>
<pdfrwt beam="1">  1        2 0.23930298E+00 0.12776673E+03</pdfrwt>
<pdfrwt beam="2">  1       -2 0.24431640E-02 0.12776673E+03</pdfrwt>
<totfact> 0.71742489E+03</totfact>
</mgrwt>
</event>
<event>
 4    1  0.4862093E-001  0.8121025E+02  0.7546771E-02  0.1325652E+00
          3   -1    0    0  501    0  0.00000000000E+00  0.00000000000E+00  0.45319747553E+02  0.45319747553E+02  0.00000000000E+00 0. -1.
         -3   -1    0    0    0  501 -0.00000000000E+00 -0.00000000000E+00 -0.16965271924E+03  0.16965271924E+03  0.00000000000E+00 0.  1.
         24    1    1    2    0    0  0.37143706992E-01  0.11308590795E+02 -0.21630435553E+02  0.84041521298E+02  0.80419002446E+02 0.  0.
        -24    1    1    2    0    0 -0.37143706992E-01 -0.11308590795E+02 -0.10270253613E+03  0.13093094549E+03  0.80419002446E+02 0.  1.
<mgrwt>
<rscale>  0 0.81210241E+02</rscale>
<asrwt>0</asrwt>
<pdfrwt beam="1">  1        3 0.69722688E-02 0.81210251E+02</pdfrwt>
<pdfrwt beam="2">  1       -3 0.26100419E-01 0.81210251E+02</pdfrwt>
<totfact> 0.37963897E+03</totfact>
</mgrwt>
</event>
<event>
 4    1  0.4862093E-001  0.1113539E+03  0.7546771E-02  0.1258083E+00
         -1   -1    0    0    0  501 -0.00000000000E+00  0.00000000000E+00  0.20793301234E+03  0.20793301234E+03  0.00000000000E+00 0.  1.
          1   -1    0    0  501    0  0.00000000000E+00 -0.00000000000E+00 -0.11652688386E+04  0.11652688386E+04  0.00000000000E+00 0. -1.
         24    1    1    2    0    0 -0.76354830781E+02  0.10120364747E+02  0.19013375078E+03  0.22034187325E+03  0.80419002446E+02 0.  1.
        -24    1    1    2    0    0  0.76354830781E+02 -0.10120364747E+02 -0.11474695771E+04  0.11528599777E+04  0.80419002446E+02 0. -1.
<mgrwt>
<rscale>  0 0.11135393E+03</rscale>
<asrwt>0</asrwt>
<pdfrwt beam="1">  1        1 0.17927213E+00 0.11135393E+03</pdfrwt>
<pdfrwt beam="2">  1       -1 0.31989695E-01 0.11135393E+03</pdfrwt>
<totfact> 0.11838272E+02</totfact>
</mgrwt>
</event>
<event>
 4    1  0.4862093E-001  0.9472958E+02  0.7546771E-02  0.1291786E+00
          1   -1    0    0  501    0  0.00000000000E+00  0.00000000000E+00  0.38799244690E+02  0.38799244690E+02  0.00000000000E+00 0. -1.
         -1   -1    0    0    0  501 -0.00000000000E+00 -0.00000000000E+00 -0.35702376099E+03  0.35702376099E+03  0.00000000000E+00 0.  1.
         24    1    1    2    0    0  0.31159303184E+02  0.39186423359E+02 -0.27656322411E+03  0.29233698164E+03  0.80419002446E+02 0.  1.
        -24    1    1    2    0    0 -0.31159303184E+02 -0.39186423359E+02 -0.41661292195E+02  0.10348602404E+03  0.80419002446E+02 0. -1.
<mgrwt>
<rscale>  0 0.94729583E+02</rscale>
<asrwt>0</asrwt>
<pdfrwt beam="1">  1        1 0.59691144E-02 0.94729583E+02</pdfrwt>
<pdfrwt beam="2">  1       -1 0.54926734E-01 0.94729583E+02</pdfrwt>
<totfact> 0.41832906E+03</totfact>
</mgrwt>
</event>
<event>
 4    1  0.4862093E-001  0.1014717E+03  0.7546771E-02  0.1277231E+00
         -3   -1    0    0    0  501 -0.00000000000E+00  0.00000000000E+00  0.21458697478E+04  0.21458697478E+04  0.00000000000E+00 0.  1.
          3   -1    0    0  501    0  0.00000000000E+00 -0.00000000000E+00 -0.47984301050E+01  0.47984301050E+01  0.00000000000E+00 0. -1.
         24    1    1    2    0    0  0.30705401479E+02  0.53725777348E+02  0.10764284512E+04  0.10812005861E+04  0.80419002446E+02 0.  0.
        -24    1    1    2    0    0 -0.30705401479E+02 -0.53725777348E+02  0.10646428665E+04  0.10694675918E+04  0.80419002446E+02 0.  0.
<mgrwt>
<rscale>  0 0.10147166E+03</rscale>
<asrwt>0</asrwt>
<pdfrwt beam="1">  1        3 0.73822173E-03 0.10147166E+03</pdfrwt>
<pdfrwt beam="2">  1       -3 0.33013304E+00 0.10147166E+03</pdfrwt>
<totfact> 0.30465722E+02</totfact>
</mgrwt>
</event>
<event>
 4    1  0.4862093E-001  0.8507013E+02  0.7546771E-02  0.1315249E+00
         -3   -1    0    0    0  501 -0.00000000000E+00  0.00000000000E+00  0.18572040332E+02  0.18572040332E+02  0.00000000000E+00 0.  1.
          3   -1    0    0  501    0  0.00000000000E+00 -0.00000000000E+00 -0.42848404670E+03  0.42848404670E+03  0.00000000000E+00 0. -1.
         24    1    1    2    0    0  0.24326423884E+02 -0.13339302543E+02 -0.13767833486E+03  0.16184020432E+03  0.80419002446E+02 0.  1.
        -24    1    1    2    0    0 -0.24326423884E+02  0.13339302543E+02 -0.27223367151E+03  0.28521588271E+03  0.80419002446E+02 0. -1.
<mgrwt>
<rscale>  0 0.85070135E+02</rscale>
<asrwt>0</asrwt>
<pdfrwt beam="1">  1        3 0.65920614E-01 0.85070135E+02</pdfrwt>
<pdfrwt beam="2">  1       -3 0.28572374E-02 0.85070135E+02</pdfrwt>
<totfact> 0.25951863E+03</totfact>
</mgrwt>
</event>
<event>
 4    1  0.4862093E-001  0.1391219E+03  0.7546771E-02  0.1214515E+00
          2   -1    0    0  501    0  0.00000000000E+00  0.00000000000E+00  0.23390758414E+04  0.23390758414E+04  0.00000000000E+00 0. -1.
         -2   -1    0    0    0  501 -0.00000000000E+00 -0.00000000000E+00 -0.11062698044E+02  0.11062698044E+02  0.00000000000E+00 0.  1.
         24    1    1    2    0    0 -0.54968807914E+02  0.99328347830E+02  0.17539186783E+04  0.17594276446E+04  0.80419002446E+02 0. -1.
        -24    1    1    2    0    0  0.54968807914E+02 -0.99328347830E+02  0.57409446498E+03  0.59071089477E+03  0.80419002446E+02 0.  1.
<mgrwt>
<rscale>  0 0.13912191E+03</rscale>
<asrwt>0</asrwt>
<pdfrwt beam="1">  1        2 0.35985743E+00 0.13912191E+03</pdfrwt>
<pdfrwt beam="2">  1       -2 0.17019554E-02 0.13912191E+03</pdfrwt>
<totfact> 0.48058863E+03</totfact>
</mgrwt>
</event>
<event>
 4    1  0.4862093E-001  0.1057761E+03  0.7546771E-02  0.1268598E+00
         -2   -1    0    0    0  501 -0.00000000000E+00  0.00000000000E+00  0.14452318811E+02  0.14452318811E+02  0.00000000000E+00 0.  1.
          2   -1    0    0  501    0  0.00000000000E+00 -0.00000000000E+00 -0.90152271311E+03  0.90152271311E+03  0.00000000000E+00 0. -1.
         24    1    1    2    0    0  0.50808830879E+02  0.46258196058E+02 -0.61566924182E+03  0.62468967438E+03  0.80419002446E+02 0. -1.
        -24    1    1    2    0    0 -0.50808830879E+02 -0.46258196058E+02 -0.27140115248E+03  0.29128535755E+03  0.80419002446E+02 0.  1.
<mgrwt>
<rscale>  0 0.10577606E+03</rscale>
<asrwt>0</asrwt>
<pdfrwt beam="1">  1        2 0.13869582E+00 0.10577606E+03</pdfrwt>
<pdfrwt beam="2">  1       -2 0.22234334E-02 0.10577606E+03</pdfrwt>
<totfact> 0.18712529E+04</totfact>
</mgrwt>
</event>
<event>
 4    1  0.4862093E-001  0.9165650E+02  0.7546771E-02  0.1298889E+00
         -2   -1    0    0    0  501 -0.00000000000E+00  0.00000000000E+00  0.77931972147E+01  0.77931972147E+01  0.00000000000E+00 0.  1.
          2   -1    0    0  501    0  0.00000000000E+00 -0.00000000000E+00 -0.11497752293E+04  0.11497752293E+04  0.00000000000E+00 0. -1.
         24    1    1    2    0    0  0.21946793219E+02 -0.38105584509E+02 -0.71562056004E+03  0.72146635349E+03  0.80419002446E+02 0.  1.
        -24    1    1    2    0    0 -0.21946793219E+02  0.38105584509E+02 -0.42636147209E+03  0.43610207307E+03  0.80419002446E+02 0. -1.
<mgrwt>
<rscale>  0 0.91656496E+02</rscale>
<asrwt>0</asrwt>
<pdfrwt beam="1">  1        2 0.17688840E+00 0.91656496E+02</pdfrwt>
<pdfrwt beam="2">  1       -2 0.11989540E-02 0.91656496E+02</pdfrwt>
<totfact> 0.32074133E+04</totfact>
</mgrwt>
</event>
<event>
 4    1  0.4862093E-001  0.1072597E+03  0.7546771E-02  0.1265730E+00
         -4   -1    0    0    0  501 -0.00000000000E+00  0.00000000000E+00  0.11700985510E+03  0.11700985510E+03  0.00000000000E+00 0.  1.
          4   -1    0    0  501    0  0.00000000000E+00 -0.00000000000E+00 -0.99495041082E+02  0.99495041082E+02  0.00000000000E+00 0. -1.
         24    1    1    2    0    0  0.60858362449E+02  0.36519813696E+02 -0.29963772075E+01  0.10730159040E+03  0.80419002446E+02 0.  1.
        -24    1    1    2    0    0 -0.60858362449E+02 -0.36519813696E+02  0.20511191222E+02  0.10920330577E+03  0.80419002446E+02 0. -1.
<mgrwt>
<rscale>  0 0.10725975E+03</rscale>
<asrwt>0</asrwt>
<pdfrwt beam="1">  1        4 0.15306929E-01 0.10725975E+03</pdfrwt>
<pdfrwt beam="2">  1       -4 0.18001516E-01 0.10725975E+03</pdfrwt>
<totfact> 0.15460982E+03</totfact>
</mgrwt>
</event>
<event>
 4    1  0.4862093E-001  0.8644488E+02  0.7546771E-02  0.1311697E+00
         -1   -1    0    0    0  501 -0.00000000000E+00  0.00000000000E+00  0.43612796624E+03  0.43612796624E+03  0.00000000000E+00 0.  1.
          1   -1    0    0  501    0  0.00000000000E+00 -0.00000000000E+00 -0.17330444471E+02  0.17330444471E+02  0.00000000000E+00 0. -1.
         24    1    1    2    0    0 -0.15561922990E+02 -0.27628310317E+02  0.18527315901E+03  0.20444768618E+03  0.80419002446E+02 0.  0.
        -24    1    1    2    0    0  0.15561922990E+02  0.27628310317E+02  0.23352436275E+03  0.24901072453E+03  0.80419002446E+02 0. -1.
<mgrwt>
<rscale>  0 0.86444866E+02</rscale>
<asrwt>0</asrwt>
<pdfrwt beam="1">  1        1 0.26662226E-02 0.86444876E+02</pdfrwt>
<pdfrwt beam="2">  1       -1 0.67096602E-01 0.86444876E+02</pdfrwt>
<totfact> 0.85065048E+03</totfact>
</mgrwt>
</event>
<event>
 4    1  0.4862093E-001  0.8112780E+02  0.7546771E-02  0.1325881E+00
         -2   -1    0    0    0  501 -0.00000000000E+00  0.00000000000E+00  0.15846733151E+03  0.15846733151E+03  0.00000000000E+00 0.  1.
          2   -1    0    0  501    0  0.00000000000E+00 -0.00000000000E+00 -0.65513873155E+02  0.65513873155E+02  0.00000000000E+00 0. -1.
         24    1    1    2    0    0 -0.96970812469E+01  0.45244127780E+01 -0.21278365227E+02  0.83871857478E+02  0.80419002446E+02 0.  0.
        -24    1    1    2    0    0  0.96970812469E+01 -0.45244127780E+01  0.11423182358E+03  0.14010934718E+03  0.80419002446E+02 0.  1.
<mgrwt>
<rscale>  0 0.81127798E+02</rscale>
<asrwt>0</asrwt>
<pdfrwt beam="1">  1        2 0.10079057E-01 0.81127798E+02</pdfrwt>
<pdfrwt beam="2">  1       -2 0.24379589E-01 0.81127798E+02</pdfrwt>
<totfact> 0.84686485E+03</totfact>
</mgrwt>
</event>
<event>
 4    1  0.4862093E-001  0.8245165E+02  0.7546771E-02  0.1322235E+00
          1   -1    0    0  501    0  0.00000000000E+00  0.00000000000E+00  0.38541162597E+02  0.38541162597E+02  0.00000000000E+00 0. -1.
         -1   -1    0    0    0  501 -0.00000000000E+00 -0.00000000000E+00 -0.21882986671E+03  0.21882986671E+03  0.00000000000E+00 0.  1.
         24    1    1    2    0    0  0.78565879530E+01  0.16411339694E+02 -0.14681570662E+03  0.16838386416E+03  0.80419002446E+02 0.  1.
        -24    1    1    2    0    0 -0.78565879530E+01 -0.16411339694E+02 -0.33472997490E+02  0.88987165143E+02  0.80419002446E+02 0.  0.
<mgrwt>
<rscale>  0 0.82451646E+02</rscale>
<asrwt>0</asrwt>
<pdfrwt beam="1">  1        1 0.59294098E-02 0.82451646E+02</pdfrwt>
<pdfrwt beam="2">  1       -1 0.33666132E-01 0.82451646E+02</pdfrwt>
<totfact> 0.98570690E+03</totfact>
</mgrwt>
</event>
<event>
 4    1  0.4862093E-001  0.9539537E+02  0.7546771E-02  0.1290288E+00
          2   -1    0    0  501    0  0.00000000000E+00  0.00000000000E+00  0.42922545398E+03  0.42922545398E+03  0.00000000000E+00 0. -1.
         -2   -1    0    0    0  501 -0.00000000000E+00 -0.00000000000E+00 -0.21208275961E+02  0.21208275961E+02  0.00000000000E+00 0.  1.
         24    1    1    2    0    0 -0.45650214526E+02 -0.23433264555E+02  0.20799774235E+03  0.22883036676E+03  0.80419002446E+02 0.  0.
        -24    1    1    2    0    0  0.45650214526E+02  0.23433264555E+02  0.20001943567E+03  0.22160336318E+03  0.80419002446E+02 0.  0.
<mgrwt>
<rscale>  0 0.95395366E+02</rscale>
<asrwt>0</asrwt>
<pdfrwt beam="1">  1        2 0.66034678E-01 0.95395366E+02</pdfrwt>
<pdfrwt beam="2">  1       -2 0.32628120E-02 0.95395366E+02</pdfrwt>
<totfact> 0.24883837E+04</totfact>
</mgrwt>
</event>
<event>
 4    1  0.4862093E-001  0.8298121E+02  0.7546771E-02  0.1320798E+00
         -1   -1    0    0    0  501 -0.00000000000E+00  0.00000000000E+00  0.44821138571E+03  0.44821138571E+03  0.00000000000E+00 0.  1.
          1   -1    0    0  501    0  0.00000000000E+00 -0.00000000000E+00 -0.16638743310E+02  0.16638743310E+02  0.00000000000E+00 0. -1.
         24    1    1    2    0    0 -0.13710656780E+02 -0.15188119248E+02  0.15142836319E+03  0.17267433570E+03  0.80419002446E+02 0.  0.
        -24    1    1    2    0    0  0.13710656780E+02  0.15188119248E+02  0.28014427920E+03  0.29217579332E+03  0.80419002446E+02 0.  0.
<mgrwt>
<rscale>  0 0.82981195E+02</rscale>
<asrwt>0</asrwt>
<pdfrwt beam="1">  1        1 0.25598070E-02 0.82981206E+02</pdfrwt>
<pdfrwt beam="2">  1       -1 0.68955589E-01 0.82981206E+02</pdfrwt>
<totfact> 0.84959506E+03</totfact>
</mgrwt>
</event>
<event>
 4    1  0.4862093E-001  0.1048638E+03  0.7546771E-02  0.1270388E+00
          1   -1    0    0  501    0  0.00000000000E+00  0.00000000000E+00  0.10927905792E+03  0.10927905792E+03  0.00000000000E+00 0. -1.
         -1   -1    0    0    0  501 -0.00000000000E+00 -0.00000000000E+00 -0.22675193013E+03  0.22675193013E+03  0.00000000000E+00 0.  1.
         24    1    1    2    0    0  0.13442833159E+02 -0.65943158050E+02 -0.18404313069E+03  0.21182138647E+03  0.80419002446E+02 0.  1.
        -24    1    1    2    0    0 -0.13442833159E+02  0.65943158050E+02  0.66570258485E+02  0.12420960159E+03  0.80419002446E+02 0. -1.
<mgrwt>
<rscale>  0 0.10486384E+03</rscale>
<asrwt>0</asrwt>
<pdfrwt beam="1">  1        1 0.16812163E-01 0.10486384E+03</pdfrwt>
<pdfrwt beam="2">  1       -1 0.34884911E-01 0.10486384E+03</pdfrwt>
<totfact> 0.24147269E+03</totfact>
</mgrwt>
</event>
<event>
 4    1  0.4862093E-001  0.8157514E+02  0.7546771E-02  0.1324640E+00
         -1   -1    0    0    0  501 -0.00000000000E+00  0.00000000000E+00  0.12617879072E+02  0.12617879072E+02  0.00000000000E+00 0.  1.
          1   -1    0    0  501    0  0.00000000000E+00 -0.00000000000E+00 -0.20707521131E+04  0.20707521131E+04  0.00000000000E+00 0. -1.
         24    1    1    2    0    0 -0.85141639657E+01 -0.10714302137E+02 -0.12976272165E+03  0.15327383059E+03  0.80419002446E+02 0.  1.
        -24    1    1    2    0    0  0.85141639657E+01  0.10714302137E+02 -0.19283715123E+04  0.19300961616E+04  0.80419002446E+02 0. -1.
<mgrwt>
<rscale>  0 0.81575138E+02</rscale>
<asrwt>0</asrwt>
<pdfrwt beam="1">  1        1 0.31857692E+00 0.81575138E+02</pdfrwt>
<pdfrwt beam="2">  1       -1 0.19412142E-02 0.81575138E+02</pdfrwt>
<totfact> 0.21735685E+03</totfact>
</mgrwt>
</event>
<event>
 4    1  0.4862093E-001  0.1410415E+03  0.7546771E-02  0.1211934E+00
          3   -1    0    0  501    0  0.00000000000E+00  0.00000000000E+00  0.12056521538E+03  0.12056521538E+03  0.00000000000E+00 0. -1.
         -3   -1    0    0    0  501 -0.00000000000E+00 -0.00000000000E+00 -0.28318976855E+03  0.28318976855E+03  0.00000000000E+00 0.  1.
         24    1    1    2    0    0 -0.11247613894E+03  0.27831762336E+02  0.49108725085E+02  0.14934648191E+03  0.80419002446E+02 0. -1.
        -24    1    1    2    0    0  0.11247613894E+03 -0.27831762336E+02 -0.21173327825E+03  0.25440850202E+03  0.80419002446E+02 0.  1.
<mgrwt>
<rscale>  0 0.14104152E+03</rscale>
<asrwt>0</asrwt>
<pdfrwt beam="1">  1        3 0.18548495E-01 0.14104154E+03</pdfrwt>
<pdfrwt beam="2">  1       -3 0.43567656E-01 0.14104154E+03</pdfrwt>
<totfact> 0.31531130E+02</totfact>
</mgrwt>
</event>
<event>
 4    1  0.4862093E-001  0.9326653E+02  0.7546771E-02  0.1295129E+00
         -2   -1    0    0    0  501 -0.00000000000E+00  0.00000000000E+00  0.22317305460E+02  0.22317305460E+02  0.00000000000E+00 0.  1.
          2   -1    0    0  501    0  0.00000000000E+00 -0.00000000000E+00 -0.71390005110E+03  0.71390005110E+03  0.00000000000E+00 0. -1.
         24    1    1    2    0    0  0.42505235535E+02 -0.20609088556E+02 -0.59382817093E+03  0.60110776248E+03  0.80419002446E+02 0. -1.
        -24    1    1    2    0    0 -0.42505235535E+02  0.20609088556E+02 -0.97754574711E+02  0.13510959407E+03  0.80419002446E+02 0.  1.
<mgrwt>
<rscale>  0 0.93266530E+02</rscale>
<asrwt>0</asrwt>
<pdfrwt beam="1">  1        2 0.10983076E+00 0.93266530E+02</pdfrwt>
<pdfrwt beam="2">  1       -2 0.34334321E-02 0.93266530E+02</pdfrwt>
<totfact> 0.13122384E+04</totfact>
</mgrwt>
</event>
<event>
 4    1  0.4862093E-001  0.8206238E+02  0.7546771E-02  0.1323299E+00
          2   -1    0    0  501    0  0.00000000000E+00  0.00000000000E+00  0.91001180653E+03  0.91001180653E+03  0.00000000000E+00 0. -1.
         -2   -1    0    0    0  501 -0.00000000000E+00 -0.00000000000E+00 -0.98565369737E+01  0.98565369737E+01  0.00000000000E+00 0.  1.
         24    1    1    2    0    0  0.15979514108E+02  0.34165299695E+01  0.67968243162E+03  0.68461846408E+03  0.80419002446E+02 0. -1.
        -24    1    1    2    0    0 -0.15979514108E+02 -0.34165299695E+01  0.22047283794E+03  0.23524987943E+03  0.80419002446E+02 0.  1.
<mgrwt>
<rscale>  0 0.82062376E+02</rscale>
<asrwt>0</asrwt>
<pdfrwt beam="1">  1        2 0.14000175E+00 0.82062376E+02</pdfrwt>
<pdfrwt beam="2">  1       -2 0.15163910E-02 0.82062376E+02</pdfrwt>
<totfact> 0.31270134E+04</totfact>
</mgrwt>
</event>
<event>
 4    1  0.4862093E-001  0.8402053E+02  0.7546771E-02  0.1318014E+00
         -2   -1    0    0    0  501 -0.00000000000E+00  0.00000000000E+00  0.34057723439E+01  0.34057723439E+01  0.00000000000E+00 0.  1.
          2   -1    0    0  501    0  0.00000000000E+00 -0.00000000000E+00 -0.35938361883E+04  0.35938361883E+04  0.00000000000E+00 0. -1.
         24    1    1    2    0    0  0.14249372154E+02 -0.19727871635E+02 -0.29653389059E+04  0.29665289947E+04  0.80419002446E+02 0. -1.
        -24    1    1    2    0    0 -0.14249372154E+02  0.19727871635E+02 -0.62509151003E+03  0.63071296593E+03  0.80419002446E+02 0.  1.
<mgrwt>
<rscale>  0 0.84020530E+02</rscale>
<asrwt>0</asrwt>
<pdfrwt beam="1">  1        2 0.55289707E+00 0.84020530E+02</pdfrwt>
<pdfrwt beam="2">  1       -2 0.52396574E-03 0.84020530E+02</pdfrwt>
<totfact> 0.48615378E+03</totfact>
</mgrwt>
</event>
<event>
 4    1  0.4862093E-001  0.1370556E+03  0.7546771E-02  0.1217347E+00
          3   -1    0    0  501    0  0.00000000000E+00  0.00000000000E+00  0.15745397085E+04  0.15745397085E+04  0.00000000000E+00 0. -1.
         -3   -1    0    0    0  501 -0.00000000000E+00 -0.00000000000E+00 -0.26572782018E+02  0.26572782018E+02  0.00000000000E+00 0.  1.
         24    1    1    2    0    0 -0.90971358218E+02  0.63570710861E+02  0.17971139331E+03  0.22600978770E+03  0.80419002446E+02 0.  1.
        -24    1    1    2    0    0  0.90971358218E+02 -0.63570710861E+02  0.13682555332E+04  0.13751027028E+04  0.80419002446E+02 0. -1.
<mgrwt>
<rscale>  0 0.13705561E+03</rscale>
<asrwt>0</asrwt>
<pdfrwt beam="1">  1        3 0.24223681E+00 0.13705561E+03</pdfrwt>
<pdfrwt beam="2">  1       -3 0.40881215E-02 0.13705561E+03</pdfrwt>
<totfact> 0.68705962E+01</totfact>
</mgrwt>
</event>
<event>
 4    1  0.4862093E-001  0.8305215E+02  0.7546771E-02  0.1320606E+00
          2   -1    0    0  501    0  0.00000000000E+00  0.00000000000E+00  0.33162014605E+03  0.33162014605E+03  0.00000000000E+00 0. -1.
         -2   -1    0    0    0  501 -0.00000000000E+00 -0.00000000000E+00 -0.37169664132E+02  0.37169664132E+02  0.00000000000E+00 0.  1.
         24    1    1    2    0    0  0.39285084684E+01  0.20371825978E+02  0.26959554177E+03  0.28209823922E+03  0.80419002446E+02 0. -1.
        -24    1    1    2    0    0 -0.39285084684E+01 -0.20371825978E+02  0.24854940150E+02  0.86691570967E+02  0.80419002446E+02 0.  1.
<mgrwt>
<rscale>  0 0.83052155E+02</rscale>
<asrwt>0</asrwt>
<pdfrwt beam="1">  1        2 0.51018482E-01 0.83052155E+02</pdfrwt>
<pdfrwt beam="2">  1       -2 0.57184101E-02 0.83052155E+02</pdfrwt>
<totfact> 0.14059308E+04</totfact>
</mgrwt>
</event>
<event>
 4    1  0.4862093E-001  0.8692582E+02  0.7546771E-02  0.1310472E+00
         -1   -1    0    0    0  501 -0.00000000000E+00  0.00000000000E+00  0.19049534656E+02  0.19049534656E+02  0.00000000000E+00 0.  1.
          1   -1    0    0  501    0  0.00000000000E+00 -0.00000000000E+00 -0.96104371712E+03  0.96104371712E+03  0.00000000000E+00 0. -1.
         24    1    1    2    0    0 -0.28033745660E+02 -0.17406623260E+02 -0.95458210297E+02  0.12910603122E+03  0.80419002446E+02 0.  1.
        -24    1    1    2    0    0  0.28033745660E+02  0.17406623260E+02 -0.84653597216E+03  0.85098722056E+03  0.80419002446E+02 0. -1.
<mgrwt>
<rscale>  0 0.86925815E+02</rscale>
<asrwt>0</asrwt>
<pdfrwt beam="1">  1        1 0.14785285E+00 0.86925815E+02</pdfrwt>
<pdfrwt beam="2">  1       -1 0.29306981E-02 0.86925815E+02</pdfrwt>
<totfact> 0.63411252E+03</totfact>
</mgrwt>
</event>
<event>
 4    1  0.4862093E-001  0.9380516E+02  0.7546771E-02  0.1293890E+00
         -4   -1    0    0    0  501 -0.00000000000E+00  0.00000000000E+00  0.44946966342E+02  0.44946966342E+02  0.00000000000E+00 0.  1.
          4   -1    0    0  501    0  0.00000000000E+00 -0.00000000000E+00 -0.61641117534E+03  0.61641117534E+03  0.00000000000E+00 0. -1.
         24    1    1    2    0    0  0.22854608210E+02  0.42542432940E+02 -0.55889753582E+03  0.56671497529E+03  0.80419002446E+02 0. -1.
        -24    1    1    2    0    0 -0.22854608210E+02 -0.42542432940E+02 -0.12566673185E+02  0.94643166400E+02  0.80419002446E+02 0.  1.
<mgrwt>
<rscale>  0 0.93805158E+02</rscale>
<asrwt>0</asrwt>
<pdfrwt beam="1">  1        4 0.94832487E-01 0.93805158E+02</pdfrwt>
<pdfrwt beam="2">  1       -4 0.69149180E-02 0.93805158E+02</pdfrwt>
<totfact> 0.21164338E+02</totfact>
</mgrwt>
</event>
<event>
 4    1  0.4862093E-001  0.9808718E+02  0.7546771E-02  0.1284371E+00
         -2   -1    0    0    0  501 -0.00000000000E+00  0.00000000000E+00  0.19744066393E+02  0.19744066393E+02  0.00000000000E+00 0.  1.
          2   -1    0    0  501    0  0.00000000000E+00 -0.00000000000E+00 -0.22466119141E+04  0.22466119141E+04  0.00000000000E+00 0. -1.
         24    1    1    2    0    0 -0.42443393269E+02  0.36775493195E+02 -0.21162163298E+04  0.21184882934E+04  0.80419002446E+02 0. -1.
        -24    1    1    2    0    0  0.42443393269E+02 -0.36775493195E+02 -0.11065151786E+03  0.14786768711E+03  0.80419002446E+02 0.  1.
<mgrwt>
<rscale>  0 0.98087178E+02</rscale>
<asrwt>0</asrwt>
<pdfrwt beam="1">  1        2 0.34563241E+00 0.98087178E+02</pdfrwt>
<pdfrwt beam="2">  1       -2 0.30375504E-02 0.98087178E+02</pdfrwt>
<totfact> 0.23154635E+03</totfact>
</mgrwt>
</event>
<event>
 4    1  0.4862093E-001  0.8305798E+02  0.7546771E-02  0.1320591E+00
         -2   -1    0    0    0  501 -0.00000000000E+00  0.00000000000E+00  0.86408830731E+02  0.86408830731E+02  0.00000000000E+00 0.  1.
          2   -1    0    0  501    0  0.00000000000E+00 -0.00000000000E+00 -0.42888309051E+03  0.42888309051E+03  0.00000000000E+00 0. -1.
         24    1    1    2    0    0  0.16882871323E+02 -0.12098769767E+02 -0.40366875784E+03  0.41212509458E+03  0.80419002446E+02 0. -1.
        -24    1    1    2    0    0 -0.16882871323E+02  0.12098769767E+02  0.61194498065E+02  0.10316682665E+03  0.80419002446E+02 0.  1.
<mgrwt>
<rscale>  0 0.83057977E+02</rscale>
<asrwt>0</asrwt>
<pdfrwt beam="1">  1        2 0.65982014E-01 0.83057977E+02</pdfrwt>
<pdfrwt beam="2">  1       -2 0.13293666E-01 0.83057977E+02</pdfrwt>
<totfact> 0.29367669E+03</totfact>
</mgrwt>
</event>
<event>
 4    1  0.4862093E-001  0.9731692E+02  0.7546771E-02  0.1286041E+00
          2   -1    0    0  501    0  0.00000000000E+00  0.00000000000E+00  0.17568631346E+02  0.17568631346E+02  0.00000000000E+00 0. -1.
         -2   -1    0    0    0  501 -0.00000000000E+00 -0.00000000000E+00 -0.61442497374E+03  0.61442497374E+03  0.00000000000E+00 0.  1.
         24    1    1    2    0    0  0.43530599269E+02 -0.33293456215E+02 -0.18775891465E+03  0.21148047967E+03  0.80419002446E+02 0. -1.
        -24    1    1    2    0    0 -0.43530599269E+02  0.33293456215E+02 -0.40909742774E+03  0.42051312541E+03  0.80419002446E+02 0.  1.
<mgrwt>
<rscale>  0 0.97316922E+02</rscale>
<asrwt>0</asrwt>
<pdfrwt beam="1">  1        2 0.27028667E-02 0.97316922E+02</pdfrwt>
<pdfrwt beam="2">  1       -2 0.94526909E-01 0.97316922E+02</pdfrwt>
<totfact> 0.32656247E+03</totfact>
</mgrwt>
</event>
<event>
 4    1  0.4862093E-001  0.8105988E+02  0.7546771E-02  0.1326070E+00
         -2   -1    0    0    0  501 -0.00000000000E+00  0.00000000000E+00  0.95663033189E+01  0.95663033189E+01  0.00000000000E+00 0.  1.
          2   -1    0    0  501    0  0.00000000000E+00 -0.00000000000E+00 -0.79658323244E+03  0.79658323244E+03  0.00000000000E+00 0. -1.
         24    1    1    2    0    0  0.92014122100E+01 -0.43384105005E+01 -0.54310476372E+03  0.54912064988E+03  0.80419002446E+02 0. -1.
        -24    1    1    2    0    0 -0.92014122100E+01  0.43384105005E+01 -0.24391216540E+03  0.25702888588E+03  0.80419002446E+02 0.  0.
<mgrwt>
<rscale>  0 0.81059878E+02</rscale>
<asrwt>0</asrwt>
<pdfrwt beam="1">  1        2 0.12255129E+00 0.81059878E+02</pdfrwt>
<pdfrwt beam="2">  1       -2 0.14717387E-02 0.81059878E+02</pdfrwt>
<totfact> 0.38466172E+04</totfact>
</mgrwt>
</event>
<event>
 4    1  0.4862093E-001  0.8099556E+02  0.7546771E-02  0.1326250E+00
          1   -1    0    0  501    0  0.00000000000E+00  0.00000000000E+00  0.50216343915E+03  0.50216343915E+03  0.00000000000E+00 0. -1.
         -1   -1    0    0    0  501 -0.00000000000E+00 -0.00000000000E+00 -0.17064631460E+02  0.17064631460E+02  0.00000000000E+00 0.  1.
         24    1    1    2    0    0  0.56297034312E+01 -0.78340281294E+01  0.11684745780E+03  0.14217457546E+03  0.80419002446E+02 0.  1.
        -24    1    1    2    0    0 -0.56297034312E+01  0.78340281294E+01  0.36825134989E+03  0.37705349516E+03  0.80419002446E+02 0.  0.
<mgrwt>
<rscale>  0 0.80995565E+02</rscale>
<asrwt>0</asrwt>
<pdfrwt beam="1">  1        1 0.77255902E-01 0.80995565E+02</pdfrwt>
<pdfrwt beam="2">  1       -1 0.26253283E-02 0.80995565E+02</pdfrwt>
<totfact> 0.18494881E+04</totfact>
</mgrwt>
</event>
<event>
 4    1  0.4862093E-001  0.1118843E+03  0.7546771E-02  0.1257120E+00
         -1   -1    0    0    0  501 -0.00000000000E+00  0.00000000000E+00  0.14301493751E+03  0.14301493751E+03  0.00000000000E+00 0.  1.
          1   -1    0    0  501    0  0.00000000000E+00 -0.00000000000E+00 -0.92913029099E+02  0.92913029099E+02  0.00000000000E+00 0. -1.
         24    1    1    2    0    0 -0.69569711010E+02 -0.34798602094E+02  0.53444708970E+02  0.12399371060E+03  0.80419002446E+02 0.  1.
        -24    1    1    2    0    0  0.69569711010E+02  0.34798602094E+02 -0.33428005603E+01  0.11193425601E+03  0.80419002446E+02 0. -1.
<mgrwt>
<rscale>  0 0.11188433E+03</rscale>
<asrwt>0</asrwt>
<pdfrwt beam="1">  1        1 0.14294312E-01 0.11188433E+03</pdfrwt>
<pdfrwt beam="2">  1       -1 0.22002298E-01 0.11188433E+03</pdfrwt>
<totfact> 0.64015822E+03</totfact>
</mgrwt>
</event>
<event>
 4    1  0.4862093E-001  0.9123476E+02  0.7546771E-02  0.1299889E+00
         -1   -1    0    0    0  501 -0.00000000000E+00  0.00000000000E+00  0.35473652734E+01  0.35473652734E+01  0.00000000000E+00 0.  1.
          1   -1    0    0  501    0  0.00000000000E+00 -0.00000000000E+00 -0.28742826199E+04  0.28742826199E+04  0.00000000000E+00 0. -1.
         24    1    1    2    0    0 -0.27645816962E+02 -0.33049576320E+02 -0.81875726949E+03  0.82382476777E+03  0.80419002446E+02 0. -1.
        -24    1    1    2    0    0  0.27645816962E+02  0.33049576320E+02 -0.20519779851E+04  0.20540052174E+04  0.80419002446E+02 0.  0.
<mgrwt>
<rscale>  0 0.91234761E+02</rscale>
<asrwt>0</asrwt>
<pdfrwt beam="1">  1        1 0.44219592E+00 0.91234761E+02</pdfrwt>
<pdfrwt beam="2">  1       -1 0.54575024E-03 0.91234761E+02</pdfrwt>
<totfact> 0.39603727E+03</totfact>
</mgrwt>
</event>
<event>
 4    1  0.4862093E-001  0.8075898E+02  0.7546771E-02  0.1326911E+00
         -1   -1    0    0    0  501 -0.00000000000E+00  0.00000000000E+00  0.13891168015E+03  0.13891168015E+03  0.00000000000E+00 0.  1.
          1   -1    0    0  501    0  0.00000000000E+00 -0.00000000000E+00 -0.67595990693E+02  0.67595990693E+02  0.00000000000E+00 0. -1.
         24    1    1    2    0    0 -0.67308447364E+01  0.30808845049E+01  0.92720944274E+02  0.12296009752E+03  0.80419002446E+02 0.  1.
        -24    1    1    2    0    0  0.67308447364E+01 -0.30808845049E+01 -0.21405254818E+02  0.83547573324E+02  0.80419002446E+02 0.  0.
<mgrwt>
<rscale>  0 0.80758975E+02</rscale>
<asrwt>0</asrwt>
<pdfrwt beam="1">  1        1 0.10399383E-01 0.80758975E+02</pdfrwt>
<pdfrwt beam="2">  1       -1 0.21371028E-01 0.80758975E+02</pdfrwt>
<totfact> 0.98468566E+03</totfact>
</mgrwt>
</event>
<event>
 4    1  0.4862093E-001  0.1007285E+03  0.7546771E-02  0.1278771E+00
          1   -1    0    0  501    0  0.00000000000E+00  0.00000000000E+00  0.11187888896E+03  0.11187888896E+03  0.00000000000E+00 0. -1.
         -1   -1    0    0    0  501 -0.00000000000E+00 -0.00000000000E+00 -0.20274430364E+03  0.20274430364E+03  0.00000000000E+00 0.  1.
         24    1    1    2    0    0  0.59845119186E+02 -0.98781461117E+01 -0.16238312953E+03  0.19108770963E+03  0.80419002446E+02 0.  1.
        -24    1    1    2    0    0 -0.59845119186E+02  0.98781461117E+01  0.71517714854E+02  0.12353548297E+03  0.80419002446E+02 0. -1.
<mgrwt>
<rscale>  0 0.10072851E+03</rscale>
<asrwt>0</asrwt>
<pdfrwt beam="1">  1        1 0.17212137E-01 0.10072851E+03</pdfrwt>
<pdfrwt beam="2">  1       -1 0.31191431E-01 0.10072851E+03</pdfrwt>
<totfact> 0.28250498E+03</totfact>
</mgrwt>
</event>
<event>
 4    1  0.4862093E-001  0.1029748E+03  0.7546771E-02  0.1274162E+00
          1   -1    0    0  501    0  0.00000000000E+00  0.00000000000E+00  0.23351414452E+02  0.23351414452E+02  0.00000000000E+00 0. -1.
         -1   -1    0    0    0  501 -0.00000000000E+00 -0.00000000000E+00 -0.79125514598E+03  0.79125514598E+03  0.00000000000E+00 0.  1.
         24    1    1    2    0    0 -0.20286804589E+02  0.61033164886E+02 -0.64982605382E+03  0.65793443278E+03  0.80419002446E+02 0.  1.
        -24    1    1    2    0    0  0.20286804589E+02 -0.61033164886E+02 -0.11807767770E+03  0.15667212765E+03  0.80419002446E+02 0. -1.
<mgrwt>
<rscale>  0 0.10297484E+03</rscale>
<asrwt>0</asrwt>
<pdfrwt beam="1">  1        1 0.35925253E-02 0.10297484E+03</pdfrwt>
<pdfrwt beam="2">  1       -1 0.12173156E+00 0.10297484E+03</pdfrwt>
<totfact> 0.16240037E+03</totfact>
</mgrwt>
</event>
<event>
 4    1  0.4862093E-001  0.1403435E+03  0.7546771E-02  0.1212868E+00
          1   -1    0    0  501    0  0.00000000000E+00  0.00000000000E+00  0.19465569266E+02  0.19465569266E+02  0.00000000000E+00 0. -1.
         -1   -1    0    0    0  501 -0.00000000000E+00 -0.00000000000E+00 -0.12677979838E+04  0.12677979838E+04  0.00000000000E+00 0.  1.
         24    1    1    2    0    0  0.88939051069E+02  0.72930887511E+02 -0.91335814168E+03  0.92407758337E+03  0.80419002446E+02 0.  1.
        -24    1    1    2    0    0 -0.88939051069E+02 -0.72930887511E+02 -0.33497427289E+03  0.36318596973E+03  0.80419002446E+02 0. -1.
<mgrwt>
<rscale>  0 0.14034345E+03</rscale>
<asrwt>0</asrwt>
<pdfrwt beam="1">  1        1 0.29947028E-02 0.14034345E+03</pdfrwt>
<pdfrwt beam="2">  1       -1 0.19504585E+00 0.14034345E+03</pdfrwt>
<totfact> 0.61011893E+02</totfact>
</mgrwt>
</event>
<event>
 4    1  0.4862093E-001  0.8287839E+02  0.7546771E-02  0.1321076E+00
          2   -1    0    0  501    0  0.00000000000E+00  0.00000000000E+00  0.63123967873E+02  0.63123967873E+02  0.00000000000E+00 0. -1.
         -2   -1    0    0    0  501 -0.00000000000E+00 -0.00000000000E+00 -0.13796129116E+03  0.13796129116E+03  0.00000000000E+00 0.  1.
         24    1    1    2    0    0  0.81691874098E+01  0.18299600211E+02  0.87943384038E+01  0.83343670025E+02  0.80419002446E+02 0. -1.
        -24    1    1    2    0    0 -0.81691874098E+01 -0.18299600211E+02 -0.83631661691E+02  0.11774158901E+03  0.80419002446E+02 0.  0.
<mgrwt>
<rscale>  0 0.82878386E+02</rscale>
<asrwt>0</asrwt>
<pdfrwt beam="1">  1        2 0.97113798E-02 0.82878386E+02</pdfrwt>
<pdfrwt beam="2">  1       -2 0.21224814E-01 0.82878386E+02</pdfrwt>
<totfact> 0.11238253E+04</totfact>
</mgrwt>
</event>
<event>
 4    1  0.4862093E-001  0.8383278E+02  0.7546771E-02  0.1318513E+00
         -2   -1    0    0    0  501 -0.00000000000E+00  0.00000000000E+00  0.71963039193E+01  0.71963039193E+01  0.00000000000E+00 0.  1.
          2   -1    0    0  501    0  0.00000000000E+00 -0.00000000000E+00 -0.21759898703E+04  0.21759898703E+04  0.00000000000E+00 0. -1.
         24    1    1    2    0    0 -0.23571555078E+02  0.22585845155E+01 -0.18948200528E+04  0.18966736588E+04  0.80419002446E+02 0. -1.
        -24    1    1    2    0    0  0.23571555078E+02 -0.22585845155E+01 -0.27397351358E+03  0.28651251546E+03  0.80419002446E+02 0.  1.
<mgrwt>
<rscale>  0 0.83832782E+02</rscale>
<asrwt>0</asrwt>
<pdfrwt beam="1">  1        2 0.33476809E+00 0.83832782E+02</pdfrwt>
<pdfrwt beam="2">  1       -2 0.11071223E-02 0.83832782E+02</pdfrwt>
<totfact> 0.10667936E+04</totfact>
</mgrwt>
</event>
<event>
 4    1  0.4862093E-001  0.8519793E+02  0.7546771E-02  0.1314916E+00
          2   -1    0    0  501    0  0.00000000000E+00  0.00000000000E+00  0.14310503118E+04  0.14310503118E+04  0.00000000000E+00 0. -1.
         -2   -1    0    0    0  501 -0.00000000000E+00 -0.00000000000E+00 -0.48946558825E+02  0.48946558825E+02  0.00000000000E+00 0.  1.
         24    1    1    2    0    0 -0.22140945169E+02 -0.17356557381E+02  0.13916592700E+04  0.13942647565E+04  0.80419002446E+02 0. -1.
        -24    1    1    2    0    0  0.22140945169E+02  0.17356557381E+02 -0.95555169831E+01  0.85732114148E+02  0.80419002446E+02 0.  1.
<mgrwt>
<rscale>  0 0.85197931E+02</rscale>
<asrwt>0</asrwt>
<pdfrwt beam="1">  1        2 0.22016155E+00 0.85197931E+02</pdfrwt>
<pdfrwt beam="2">  1       -2 0.75302409E-02 0.85197931E+02</pdfrwt>
<totfact> 0.15541259E+03</totfact>
</mgrwt>
</event>
<event>
 4    1  0.4862093E-001  0.9496411E+02  0.7546771E-02  0.1291257E+00
          3   -1    0    0  501    0  0.00000000000E+00  0.00000000000E+00  0.22246222574E+02  0.22246222574E+02  0.00000000000E+00 0. -1.
         -3   -1    0    0    0  501 -0.00000000000E+00 -0.00000000000E+00 -0.58029797937E+03  0.58029797937E+03  0.00000000000E+00 0.  1.
         24    1    1    2    0    0  0.47840825855E+02 -0.16193240141E+02 -0.44443146446E+03  0.45446397899E+03  0.80419002446E+02 0.  1.
        -24    1    1    2    0    0 -0.47840825855E+02  0.16193240141E+02 -0.11362029234E+03  0.14808022295E+03  0.80419002446E+02 0. -1.
<mgrwt>
<rscale>  0 0.94964107E+02</rscale>
<asrwt>0</asrwt>
<pdfrwt beam="1">  1        3 0.34224957E-02 0.94964107E+02</pdfrwt>
<pdfrwt beam="2">  1       -3 0.89276614E-01 0.94964107E+02</pdfrwt>
<totfact> 0.10520169E+03</totfact>
</mgrwt>
</event>
<event>
 4    1  0.4862093E-001  0.8466835E+02  0.7546771E-02  0.1316302E+00
          1   -1    0    0  501    0  0.00000000000E+00  0.00000000000E+00  0.17032939345E+03  0.17032939345E+03  0.00000000000E+00 0. -1.
         -1   -1    0    0    0  501 -0.00000000000E+00 -0.00000000000E+00 -0.66229401166E+02  0.66229401166E+02  0.00000000000E+00 0.  1.
         24    1    1    2    0    0  0.17350823067E+02 -0.20011545038E+02 -0.19361793796E+02  0.86853946423E+02  0.80419002446E+02 0. -1.
        -24    1    1    2    0    0 -0.17350823067E+02  0.20011545038E+02  0.12346178608E+03  0.14970484819E+03  0.80419002446E+02 0.  0.
<mgrwt>
<rscale>  0 0.84668347E+02</rscale>
<asrwt>0</asrwt>
<pdfrwt beam="1">  1        1 0.26204522E-01 0.84668347E+02</pdfrwt>
<pdfrwt beam="2">  1       -1 0.10189139E-01 0.84668347E+02</pdfrwt>
<totfact> 0.96409763E+03</totfact>
</mgrwt>
</event>
<event>
 4    1  0.4862093E-001  0.1149037E+03  0.7546771E-02  0.1251749E+00
         -2   -1    0    0    0  501 -0.00000000000E+00  0.00000000000E+00  0.27310513263E+02  0.27310513263E+02  0.00000000000E+00 0.  1.
          2   -1    0    0  501    0  0.00000000000E+00 -0.00000000000E+00 -0.13722903666E+04  0.13722903666E+04  0.00000000000E+00 0. -1.
         24    1    1    2    0    0  0.35269802368E+02  0.74105890699E+02 -0.12356952532E+04  0.12410260339E+04  0.80419002446E+02 0. -1.
        -24    1    1    2    0    0 -0.35269802368E+02 -0.74105890699E+02 -0.10928460007E+03  0.15857484593E+03  0.80419002446E+02 0.  1.
<mgrwt>
<rscale>  0 0.11490369E+03</rscale>
<asrwt>0</asrwt>
<pdfrwt beam="1">  1        2 0.21112159E+00 0.11490369E+03</pdfrwt>
<pdfrwt beam="2">  1       -2 0.42016175E-02 0.11490369E+03</pdfrwt>
<totfact> 0.40166413E+03</totfact>
</mgrwt>
</event>
<event>
 4    1  0.4862093E-001  0.1308358E+03  0.7546771E-02  0.1226221E+00
         -1   -1    0    0    0  501 -0.00000000000E+00  0.00000000000E+00  0.59676818819E+02  0.59676818819E+02  0.00000000000E+00 0.  1.
          1   -1    0    0  501    0  0.00000000000E+00 -0.00000000000E+00 -0.12286783489E+04  0.12286783489E+04  0.00000000000E+00 0. -1.
         24    1    1    2    0    0  0.66691261618E+02  0.78759602289E+02 -0.20508085264E+02  0.13243336756E+03  0.80419002446E+02 0.  1.
        -24    1    1    2    0    0 -0.66691261618E+02 -0.78759602289E+02 -0.11484934449E+04  0.11559218002E+04  0.80419002446E+02 0. -1.
<mgrwt>
<rscale>  0 0.13083583E+03</rscale>
<asrwt>0</asrwt>
<pdfrwt beam="1">  1        1 0.18902743E+00 0.13083583E+03</pdfrwt>
<pdfrwt beam="2">  1       -1 0.91810493E-02 0.13083583E+03</pdfrwt>
<totfact> 0.77180875E+02</totfact>
</mgrwt>
</event>
<event>
 4    1  0.4862093E-001  0.9153292E+02  0.7546771E-02  0.1299181E+00
          2   -1    0    0  501    0  0.00000000000E+00  0.00000000000E+00  0.63617851063E+02  0.63617851063E+02  0.00000000000E+00 0. -1.
         -2   -1    0    0    0  501 -0.00000000000E+00 -0.00000000000E+00 -0.13214311807E+03  0.13214311807E+03  0.00000000000E+00 0.  1.
         24    1    1    2    0    0 -0.43295533428E+02  0.60457614242E+01 -0.39950811559E+02  0.99871606298E+02  0.80419002446E+02 0. -1.
        -24    1    1    2    0    0  0.43295533428E+02 -0.60457614242E+01 -0.28574455447E+02  0.95889362833E+02  0.80419002446E+02 0.  1.
<mgrwt>
<rscale>  0 0.91532904E+02</rscale>
<asrwt>0</asrwt>
<pdfrwt beam="1">  1        2 0.97873617E-02 0.91532915E+02</pdfrwt>
<pdfrwt beam="2">  1       -2 0.20329710E-01 0.91532915E+02</pdfrwt>
<totfact> 0.12094741E+04</totfact>
</mgrwt>
</event>
<event>
 4    1  0.4862093E-001  0.8159220E+02  0.7546771E-02  0.1324593E+00
         -2   -1    0    0    0  501 -0.00000000000E+00  0.00000000000E+00  0.43713576580E+01  0.43713576580E+01  0.00000000000E+00 0.  1.
          2   -1    0    0  501    0  0.00000000000E+00 -0.00000000000E+00 -0.16272349685E+04  0.16272349685E+04  0.00000000000E+00 0. -1.
         24    1    1    2    0    0 -0.51327456769E+01 -0.12795423554E+02 -0.60489048517E+03  0.61036856320E+03  0.80419002446E+02 0.  1.
        -24    1    1    2    0    0  0.51327456769E+01  0.12795423554E+02 -0.10179731257E+04  0.10212377630E+04  0.80419002446E+02 0.  1.
<mgrwt>
<rscale>  0 0.81592191E+02</rscale>
<asrwt>0</asrwt>
<pdfrwt beam="1">  1        2 0.25034413E+00 0.81592201E+02</pdfrwt>
<pdfrwt beam="2">  1       -2 0.67251578E-03 0.81592201E+02</pdfrwt>
<totfact> 0.40456956E+04</totfact>
</mgrwt>
</event>
<event>
 4    1  0.4862093E-001  0.8125341E+02  0.7546771E-02  0.1325532E+00
         -2   -1    0    0    0  501 -0.00000000000E+00  0.00000000000E+00  0.35358084463E+01  0.35358084463E+01  0.00000000000E+00 0.  1.
          2   -1    0    0  501    0  0.00000000000E+00 -0.00000000000E+00 -0.30296816572E+04  0.30296816572E+04  0.00000000000E+00 0. -1.
         24    1    1    2    0    0 -0.75882343414E+01  0.87931138492E+01 -0.24525046547E+04  0.24538502801E+04  0.80419002446E+02 0.  0.
        -24    1    1    2    0    0  0.75882343414E+01 -0.87931138492E+01 -0.57364119410E+03  0.57936718554E+03  0.80419002446E+02 0.  0.
<mgrwt>
<rscale>  0 0.81253407E+02</rscale>
<asrwt>0</asrwt>
<pdfrwt beam="1">  1        2 0.46610520E+00 0.81253407E+02</pdfrwt>
<pdfrwt beam="2">  1       -2 0.54397015E-03 0.81253407E+02</pdfrwt>
<totfact> 0.10159796E+04</totfact>
</mgrwt>
</event>
<event>
 4    1  0.4862093E-001  0.8333074E+02  0.7546771E-02  0.1319856E+00
          2   -1    0    0  501    0  0.00000000000E+00  0.00000000000E+00  0.89484555117E+03  0.89484555117E+03  0.00000000000E+00 0. -1.
         -2   -1    0    0    0  501 -0.00000000000E+00 -0.00000000000E+00 -0.78279351821E+01  0.78279351821E+01  0.00000000000E+00 0.  1.
         24    1    1    2    0    0  0.11579705319E+02 -0.18512336666E+02  0.48555109824E+03  0.49264985653E+03  0.80419002446E+02 0.  1.
        -24    1    1    2    0    0 -0.11579705319E+02  0.18512336666E+02  0.40146651774E+03  0.41002362982E+03  0.80419002446E+02 0.  0.
<mgrwt>
<rscale>  0 0.83330739E+02</rscale>
<asrwt>0</asrwt>
<pdfrwt beam="1">  1        2 0.13766847E+00 0.83330739E+02</pdfrwt>
<pdfrwt beam="2">  1       -2 0.12042984E-02 0.83330739E+02</pdfrwt>
<totfact> 0.44387381E+04</totfact>
</mgrwt>
</event>
<event>
 4    1  0.4862093E-001  0.8151735E+02  0.7546771E-02  0.1324800E+00
          2   -1    0    0  501    0  0.00000000000E+00  0.00000000000E+00  0.52844960265E+03  0.52844960265E+03  0.00000000000E+00 0. -1.
         -2   -1    0    0    0  501 -0.00000000000E+00 -0.00000000000E+00 -0.23524918260E+02  0.23524918260E+02  0.00000000000E+00 0.  1.
         24    1    1    2    0    0  0.68700329862E+01 -0.11430901937E+02  0.44075655703E+03  0.44823143730E+03  0.80419002446E+02 0. -1.
        -24    1    1    2    0    0 -0.68700329862E+01  0.11430901937E+02  0.64168127365E+02  0.10374308361E+03  0.80419002446E+02 0.  0.
<mgrwt>
<rscale>  0 0.81517353E+02</rscale>
<asrwt>0</asrwt>
<pdfrwt beam="1">  1        2 0.81299930E-01 0.81517353E+02</pdfrwt>
<pdfrwt beam="2">  1       -2 0.36192186E-02 0.81517353E+02</pdfrwt>
<totfact> 0.16841698E+04</totfact>
</mgrwt>
</event>
<event>
 4    1  0.4862093E-001  0.1059310E+03  0.7546771E-02  0.1268296E+00
          2   -1    0    0  501    0  0.00000000000E+00  0.00000000000E+00  0.74909067453E+03  0.74909067453E+03  0.00000000000E+00 0. -1.
         -2   -1    0    0    0  501 -0.00000000000E+00 -0.00000000000E+00 -0.45018863220E+02  0.45018863220E+02  0.00000000000E+00 0.  1.
         24    1    1    2    0    0 -0.54885916955E+02 -0.41733766214E+02  0.67637165180E+03  0.68461667993E+03  0.80419002446E+02 0. -1.
        -24    1    1    2    0    0  0.54885916955E+02  0.41733766214E+02  0.27700159506E+02  0.10949285782E+03  0.80419002446E+02 0.  1.
<mgrwt>
<rscale>  0 0.10593105E+03</rscale>
<asrwt>0</asrwt>
<pdfrwt beam="1">  1        2 0.11524471E+00 0.10593105E+03</pdfrwt>
<pdfrwt beam="2">  1       -2 0.69259795E-02 0.10593105E+03</pdfrwt>
<totfact> 0.43957412E+03</totfact>
</mgrwt>
</event>
<event>
 4    1  0.4862093E-001  0.9019836E+02  0.7546771E-02  0.1302372E+00
          2   -1    0    0  501    0  0.00000000000E+00  0.00000000000E+00  0.13470737007E+04  0.13470737007E+04  0.00000000000E+00 0. -1.
         -2   -1    0    0    0  501 -0.00000000000E+00 -0.00000000000E+00 -0.97993117366E+01  0.97993117366E+01  0.00000000000E+00 0.  1.
         24    1    1    2    0    0 -0.12702334930E+02 -0.38822412529E+02  0.10888704994E+04  0.10925999768E+04  0.80419002446E+02 0. -1.
        -24    1    1    2    0    0  0.12702334930E+02  0.38822412529E+02  0.24840388962E+03  0.26427303563E+03  0.80419002446E+02 0.  1.
<mgrwt>
<rscale>  0 0.90198365E+02</rscale>
<asrwt>0</asrwt>
<pdfrwt beam="1">  1        2 0.20724196E+00 0.90198365E+02</pdfrwt>
<pdfrwt beam="2">  1       -2 0.15075875E-02 0.90198365E+02</pdfrwt>
<totfact> 0.18120130E+04</totfact>
</mgrwt>
</event>
<event>
 4    1  0.4862093E-001  0.1132206E+03  0.7546771E-02  0.1254719E+00
          4   -1    0    0  501    0  0.00000000000E+00  0.00000000000E+00  0.37658168301E+02  0.37658168301E+02  0.00000000000E+00 0. -1.
         -4   -1    0    0    0  501 -0.00000000000E+00 -0.00000000000E+00 -0.35032449271E+03  0.35032449271E+03  0.00000000000E+00 0.  1.
         24    1    1    2    0    0  0.12945601383E+02  0.78639016603E+02 -0.12368438267E+03  0.16768042819E+03  0.80419002446E+02 0. -1.
        -24    1    1    2    0    0 -0.12945601383E+02 -0.78639016603E+02 -0.18898194174E+03  0.22030223282E+03  0.80419002446E+02 0.  1.
<mgrwt>
<rscale>  0 0.11322058E+03</rscale>
<asrwt>0</asrwt>
<pdfrwt beam="1">  1        4 0.57935644E-02 0.11322058E+03</pdfrwt>
<pdfrwt beam="2">  1       -4 0.53896076E-01 0.11322058E+03</pdfrwt>
<totfact> 0.99195151E+02</totfact>
</mgrwt>
</event>
<event>
 4    1  0.4862093E-001  0.9895505E+02  0.7546771E-02  0.1282509E+00
          2   -1    0    0  501    0  0.00000000000E+00  0.00000000000E+00  0.28022113469E+03  0.28022113469E+03  0.00000000000E+00 0. -1.
         -2   -1    0    0    0  501 -0.00000000000E+00 -0.00000000000E+00 -0.48800076250E+02  0.48800076250E+02  0.00000000000E+00 0.  1.
         24    1    1    2    0    0 -0.25943208858E+02 -0.51495982564E+02  0.20337037670E+03  0.22616722216E+03  0.80419002446E+02 0. -1.
        -24    1    1    2    0    0  0.25943208858E+02  0.51495982564E+02  0.28050681731E+02  0.10285398877E+03  0.80419002446E+02 0.  1.
<mgrwt>
<rscale>  0 0.98955052E+02</rscale>
<asrwt>0</asrwt>
<pdfrwt beam="1">  1        2 0.43110943E-01 0.98955052E+02</pdfrwt>
<pdfrwt beam="2">  1       -2 0.75077042E-02 0.98955052E+02</pdfrwt>
<totfact> 0.11299885E+04</totfact>
</mgrwt>
</event>
<event>
 4    1  0.4862093E-001  0.8054248E+02  0.7546771E-02  0.1327519E+00
         -1   -1    0    0    0  501 -0.00000000000E+00  0.00000000000E+00  0.61242994371E+01  0.61242994371E+01  0.00000000000E+00 0.  1.
          1   -1    0    0  501    0  0.00000000000E+00 -0.00000000000E+00 -0.11261605381E+04  0.11261605381E+04  0.00000000000E+00 0. -1.
         24    1    1    2    0    0  0.94988052872E+00  0.43554125404E+01 -0.69802897572E+03  0.70266032960E+03  0.80419002446E+02 0.  0.
        -24    1    1    2    0    0 -0.94988052872E+00 -0.43554125404E+01 -0.42200726296E+03  0.42962450796E+03  0.80419002446E+02 0.  1.
<mgrwt>
<rscale>  0 0.80542470E+02</rscale>
<asrwt>0</asrwt>
<pdfrwt beam="1">  1        1 0.17325528E+00 0.80542480E+02</pdfrwt>
<pdfrwt beam="2">  1       -1 0.94220091E-03 0.80542480E+02</pdfrwt>
<totfact> 0.24131587E+04</totfact>
</mgrwt>
</event>
<event>
 4    1  0.4862093E-001  0.1445357E+03  0.7546771E-02  0.1207353E+00
          2   -1    0    0  501    0  0.00000000000E+00  0.00000000000E+00  0.95700162446E+02  0.95700162446E+02  0.00000000000E+00 0. -1.
         -2   -1    0    0    0  501 -0.00000000000E+00 -0.00000000000E+00 -0.22660734713E+03  0.22660734713E+03  0.00000000000E+00 0.  1.
         24    1    1    2    0    0  0.37037090261E+02  0.11424358459E+03 -0.96324501549E+02  0.17369216513E+03  0.80419002446E+02 0. -1.
        -24    1    1    2    0    0 -0.37037090261E+02 -0.11424358459E+03 -0.34582683130E+02  0.14861534444E+03  0.80419002446E+02 0.  1.
<mgrwt>
<rscale>  0 0.14453568E+03</rscale>
<asrwt>0</asrwt>
<pdfrwt beam="1">  1        2 0.14723102E-01 0.14453570E+03</pdfrwt>
<pdfrwt beam="2">  1       -2 0.34862668E-01 0.14453570E+03</pdfrwt>
<totfact> 0.29773716E+03</totfact>
</mgrwt>
</event>
<event>
 4    1  0.4862093E-001  0.9094091E+02  0.7546771E-02  0.1300589E+00
          2   -1    0    0  501    0  0.00000000000E+00  0.00000000000E+00  0.13222836934E+04  0.13222836934E+04  0.00000000000E+00 0. -1.
         -2   -1    0    0    0  501 -0.00000000000E+00 -0.00000000000E+00 -0.15478829313E+02  0.15478829313E+02  0.00000000000E+00 0.  1.
         24    1    1    2    0    0  0.25098507294E+02  0.34250527615E+02  0.11697556704E+04  0.11732853779E+04  0.80419002446E+02 0. -1.
        -24    1    1    2    0    0 -0.25098507294E+02 -0.34250527615E+02  0.13704919375E+03  0.16447714483E+03  0.80419002446E+02 0.  1.
<mgrwt>
<rscale>  0 0.90940913E+02</rscale>
<asrwt>0</asrwt>
<pdfrwt beam="1">  1        2 0.20342817E+00 0.90940913E+02</pdfrwt>
<pdfrwt beam="2">  1       -2 0.23813594E-02 0.90940913E+02</pdfrwt>
<totfact> 0.96964398E+03</totfact>
</mgrwt>
</event>
<event>
 4    1  0.4862093E-001  0.1033641E+03  0.7546771E-02  0.1273377E+00
         -2   -1    0    0    0  501 -0.00000000000E+00  0.00000000000E+00  0.10155352142E+03  0.10155352142E+03  0.00000000000E+00 0.  1.
          2   -1    0    0  501    0  0.00000000000E+00 -0.00000000000E+00 -0.19453093652E+03  0.19453093652E+03  0.00000000000E+00 0. -1.
         24    1    1    2    0    0  0.43073479858E+02  0.48596315200E+02 -0.14680585544E+03  0.17954414963E+03  0.80419002446E+02 0. -1.
        -24    1    1    2    0    0 -0.43073479858E+02 -0.48596315200E+02  0.53828440336E+02  0.11654030831E+03  0.80419002446E+02 0.  1.
<mgrwt>
<rscale>  0 0.10336413E+03</rscale>
<asrwt>0</asrwt>
<pdfrwt beam="1">  1        2 0.29927836E-01 0.10336413E+03</pdfrwt>
<pdfrwt beam="2">  1       -2 0.15623619E-01 0.10336413E+03</pdfrwt>
<totfact> 0.52721295E+03</totfact>
</mgrwt>
</event>
<event>
 4    1  0.4862093E-001  0.8450807E+02  0.7546771E-02  0.1316724E+00
         -4   -1    0    0    0  501 -0.00000000000E+00  0.00000000000E+00  0.41524120244E+02  0.41524120244E+02  0.00000000000E+00 0.  1.
          4   -1    0    0  501    0  0.00000000000E+00 -0.00000000000E+00 -0.17358628068E+03  0.17358628068E+03  0.00000000000E+00 0. -1.
         24    1    1    2    0    0 -0.38745843201E+01  0.25678449182E+02 -0.55707538197E+02  0.10121729557E+03  0.80419002446E+02 0.  0.
        -24    1    1    2    0    0  0.38745843201E+01 -0.25678449182E+02 -0.76354622242E+02  0.11389310536E+03  0.80419002446E+02 0.  0.
<mgrwt>
<rscale>  0 0.84508064E+02</rscale>
<asrwt>0</asrwt>
<pdfrwt beam="1">  1        4 0.26705581E-01 0.84508075E+02</pdfrwt>
<pdfrwt beam="2">  1       -4 0.63883262E-02 0.84508075E+02</pdfrwt>
<totfact> 0.30757919E+03</totfact>
</mgrwt>
</event>
<event>
 4    1  0.4862093E-001  0.8866359E+02  0.7546771E-02  0.1306121E+00
         -2   -1    0    0    0  501 -0.00000000000E+00  0.00000000000E+00  0.97145365734E+02  0.97145365734E+02  0.00000000000E+00 0.  1.
          2   -1    0    0  501    0  0.00000000000E+00 -0.00000000000E+00 -0.11712218585E+03  0.11712218585E+03  0.00000000000E+00 0. -1.
         24    1    1    2    0    0 -0.32336450833E+02 -0.18664656186E+02 -0.69549154957E+02  0.11268680647E+03  0.80419002446E+02 0. -1.
        -24    1    1    2    0    0  0.32336450833E+02  0.18664656186E+02  0.49572334837E+02  0.10158074512E+03  0.80419002446E+02 0.  1.
<mgrwt>
<rscale>  0 0.88663586E+02</rscale>
<asrwt>0</asrwt>
<pdfrwt beam="1">  1        2 0.18018798E-01 0.88663586E+02</pdfrwt>
<pdfrwt beam="2">  1       -2 0.14945441E-01 0.88663586E+02</pdfrwt>
<totfact> 0.97804161E+03</totfact>
</mgrwt>
</event>
<event>
 4    1  0.4862093E-001  0.8587127E+02  0.7546771E-02  0.1313170E+00
         -2   -1    0    0    0  501 -0.00000000000E+00  0.00000000000E+00  0.19014924062E+03  0.19014924062E+03  0.00000000000E+00 0.  1.
          2   -1    0    0  501    0  0.00000000000E+00 -0.00000000000E+00 -0.59401497604E+02  0.59401497604E+02  0.00000000000E+00 0. -1.
         24    1    1    2    0    0 -0.92544096951E+00 -0.30096563168E+02 -0.81446004164E+01  0.86256652067E+02  0.80419002446E+02 0.  0.
        -24    1    1    2    0    0  0.92544096951E+00  0.30096563168E+02  0.13889234343E+03  0.16329408616E+03  0.80419002446E+02 0. -1.
<mgrwt>
<rscale>  0 0.85871273E+02</rscale>
<asrwt>0</asrwt>
<pdfrwt beam="1">  1        2 0.91386921E-02 0.85871273E+02</pdfrwt>
<pdfrwt beam="2">  1       -2 0.29253729E-01 0.85871273E+02</pdfrwt>
<totfact> 0.69770551E+03</totfact>
</mgrwt>
</event>
<event>
 4    1  0.4862093E-001  0.8639733E+02  0.7546771E-02  0.1311818E+00
         -2   -1    0    0    0  501 -0.00000000000E+00  0.00000000000E+00  0.30742129431E+02  0.30742129431E+02  0.00000000000E+00 0.  1.
          2   -1    0    0  501    0  0.00000000000E+00 -0.00000000000E+00 -0.28223499955E+03  0.28223499955E+03  0.00000000000E+00 0. -1.
         24    1    1    2    0    0  0.14419482253E+02  0.28095570956E+02 -0.18423387975E+03  0.20348616901E+03  0.80419002446E+02 0. -1.
        -24    1    1    2    0    0 -0.14419482253E+02 -0.28095570956E+02 -0.67258990368E+02  0.10949095997E+03  0.80419002446E+02 0.  1.
<mgrwt>
<rscale>  0 0.86397329E+02</rscale>
<asrwt>0</asrwt>
<pdfrwt beam="1">  1        2 0.43420769E-01 0.86397329E+02</pdfrwt>
<pdfrwt beam="2">  1       -2 0.47295584E-02 0.86397329E+02</pdfrwt>
<totfact> 0.22143610E+04</totfact>
</mgrwt>
</event>
<event>
 4    1  0.4862093E-001  0.8421347E+02  0.7546771E-02  0.1317502E+00
         -1   -1    0    0    0  501 -0.00000000000E+00  0.00000000000E+00  0.19637968597E+02  0.19637968597E+02  0.00000000000E+00 0.  1.
          1   -1    0    0  501    0  0.00000000000E+00 -0.00000000000E+00 -0.37825393295E+03  0.37825393295E+03  0.00000000000E+00 0. -1.
         24    1    1    2    0    0 -0.22554992676E+01 -0.24891867880E+02 -0.13698135372E+03  0.16079738675E+03  0.80419002446E+02 0. -1.
        -24    1    1    2    0    0  0.22554992676E+01  0.24891867880E+02 -0.22163461064E+03  0.23709451480E+03  0.80419002446E+02 0. -1.
<mgrwt>
<rscale>  0 0.84213469E+02</rscale>
<asrwt>0</asrwt>
<pdfrwt beam="1">  1        1 0.58192913E-01 0.84213469E+02</pdfrwt>
<pdfrwt beam="2">  1       -1 0.30212259E-02 0.84213469E+02</pdfrwt>
<totfact> 0.21654388E+04</totfact>
</mgrwt>
</event>
<event>
 4    1  0.4862093E-001  0.1018748E+03  0.7546771E-02  0.1276402E+00
          2   -1    0    0  501    0  0.00000000000E+00  0.00000000000E+00  0.14509185761E+04  0.14509185761E+04  0.00000000000E+00 0. -1.
         -2   -1    0    0    0  501 -0.00000000000E+00 -0.00000000000E+00 -0.86228067703E+01  0.86228067703E+01  0.00000000000E+00 0.  1.
         24    1    1    2    0    0  0.71754127222E+01  0.62127026930E+02  0.10224395943E+04  0.10275024059E+04  0.80419002446E+02 0. -1.
        -24    1    1    2    0    0 -0.71754127222E+01 -0.62127026930E+02  0.41985617497E+03  0.43203897699E+03  0.80419002446E+02 0.  1.
<mgrwt>
<rscale>  0 0.10187478E+03</rscale>
<asrwt>0</asrwt>
<pdfrwt beam="1">  1        2 0.22321805E+00 0.10187478E+03</pdfrwt>
<pdfrwt beam="2">  1       -2 0.13265868E-02 0.10187478E+03</pdfrwt>
<totfact> 0.19370943E+04</totfact>
</mgrwt>
</event>
<event>
 4    1  0.4862093E-001  0.8533262E+02  0.7546771E-02  0.1314565E+00
          2   -1    0    0  501    0  0.00000000000E+00  0.00000000000E+00  0.12700977781E+04  0.12700977781E+04  0.00000000000E+00 0. -1.
         -2   -1    0    0    0  501 -0.00000000000E+00 -0.00000000000E+00 -0.63975383707E+01  0.63975383707E+01  0.00000000000E+00 0.  1.
         24    1    1    2    0    0 -0.28426715284E+02  0.25223454043E+01  0.83753151748E+03  0.84186738807E+03  0.80419002446E+02 0.  1.
        -24    1    1    2    0    0  0.28426715284E+02 -0.25223454043E+01  0.42616872223E+03  0.43462792838E+03  0.80419002446E+02 0.  1.
<mgrwt>
<rscale>  0 0.85332622E+02</rscale>
<asrwt>0</asrwt>
<pdfrwt beam="1">  1        2 0.19539946E+00 0.85332622E+02</pdfrwt>
<pdfrwt beam="2">  1       -2 0.98423768E-03 0.85332622E+02</pdfrwt>
<totfact> 0.36266620E+04</totfact>
</mgrwt>
</event>
<event>
 4    1  0.4862093E-001  0.8337379E+02  0.7546771E-02  0.1319741E+00
         -1   -1    0    0    0  501 -0.00000000000E+00  0.00000000000E+00  0.47976063892E+03  0.47976063892E+03  0.00000000000E+00 0.  1.
          1   -1    0    0  501    0  0.00000000000E+00 -0.00000000000E+00 -0.18839907647E+02  0.18839907647E+02  0.00000000000E+00 0. -1.
         24    1    1    2    0    0  0.67776541542E+01  0.20929334709E+02  0.35026670059E+03  0.36005270607E+03  0.80419002446E+02 0.  1.
        -24    1    1    2    0    0 -0.67776541542E+01 -0.20929334709E+02  0.11065403067E+03  0.13854784050E+03  0.80419002446E+02 0. -1.
<mgrwt>
<rscale>  0 0.83373794E+02</rscale>
<asrwt>0</asrwt>
<pdfrwt beam="1">  1        1 0.28984477E-02 0.83373794E+02</pdfrwt>
<pdfrwt beam="2">  1       -1 0.73809320E-01 0.83373794E+02</pdfrwt>
<totfact> 0.62772148E+03</totfact>
</mgrwt>
</event>
<event>
 4    1  0.4862093E-001  0.1109768E+03  0.7546771E-02  0.1258772E+00
         -2   -1    0    0    0  501 -0.00000000000E+00  0.00000000000E+00  0.20013558371E+02  0.20013558371E+02  0.00000000000E+00 0.  1.
          2   -1    0    0  501    0  0.00000000000E+00 -0.00000000000E+00 -0.63810887487E+03  0.63810887487E+03  0.00000000000E+00 0. -1.
         24    1    1    2    0    0 -0.75036564498E+02  0.14769311131E+02 -0.24693640134E+03  0.27072757677E+03  0.80419002446E+02 0. -1.
        -24    1    1    2    0    0  0.75036564498E+02 -0.14769311131E+02 -0.37115891516E+03  0.38739485647E+03  0.80419002446E+02 0.  0.
<mgrwt>
<rscale>  0 0.11097674E+03</rscale>
<asrwt>0</asrwt>
<pdfrwt beam="1">  1        2 0.98170589E-01 0.11097676E+03</pdfrwt>
<pdfrwt beam="2">  1       -2 0.30790092E-02 0.11097676E+03</pdfrwt>
<totfact> 0.17784974E+04</totfact>
</mgrwt>
</event>
<event>
 4    1  0.4862093E-001  0.9245174E+02  0.7546771E-02  0.1297021E+00
         -3   -1    0    0    0  501 -0.00000000000E+00  0.00000000000E+00  0.19658775247E+02  0.19658775247E+02  0.00000000000E+00 0.  1.
          3   -1    0    0  501    0  0.00000000000E+00 -0.00000000000E+00 -0.62406330227E+03  0.62406330227E+03  0.00000000000E+00 0. -1.
         24    1    1    2    0    0 -0.21823226447E+02  0.40048155700E+02 -0.12494441490E+03  0.15542982582E+03  0.80419002446E+02 0.  1.
        -24    1    1    2    0    0  0.21823226447E+02 -0.40048155700E+02 -0.47946011213E+03  0.48829225170E+03  0.80419002446E+02 0. -1.
<mgrwt>
<rscale>  0 0.92451738E+02</rscale>
<asrwt>0</asrwt>
<pdfrwt beam="1">  1        3 0.96009747E-01 0.92451738E+02</pdfrwt>
<pdfrwt beam="2">  1       -3 0.30244267E-02 0.92451738E+02</pdfrwt>
<totfact> 0.10798579E+03</totfact>
</mgrwt>
</event>
<event>
 4    1  0.4862093E-001  0.1005848E+03  0.7546771E-02  0.1279071E+00
          4   -1    0    0  501    0  0.00000000000E+00  0.00000000000E+00  0.55574434347E+03  0.55574434347E+03  0.00000000000E+00 0. -1.
         -4   -1    0    0    0  501 -0.00000000000E+00 -0.00000000000E+00 -0.20511702371E+02  0.20511702371E+02  0.00000000000E+00 0.  1.
         24    1    1    2    0    0 -0.47923324912E+02 -0.36788971654E+02  0.17099197219E+03  0.19838231780E+03  0.80419002446E+02 0.  1.
        -24    1    1    2    0    0  0.47923324912E+02  0.36788971654E+02  0.36424066891E+03  0.37787372805E+03  0.80419002446E+02 0. -1.
<mgrwt>
<rscale>  0 0.10058475E+03</rscale>
<asrwt>0</asrwt>
<pdfrwt beam="1">  1        4 0.85499119E-01 0.10058476E+03</pdfrwt>
<pdfrwt beam="2">  1       -4 0.31556469E-02 0.10058476E+03</pdfrwt>
<totfact> 0.94449782E+02</totfact>
</mgrwt>
</event>
<event>
 4    1  0.4862093E-001  0.1142926E+03  0.7546771E-02  0.1252821E+00
          2   -1    0    0  501    0  0.00000000000E+00  0.00000000000E+00  0.15685656258E+03  0.15685656258E+03  0.00000000000E+00 0. -1.
         -2   -1    0    0    0  501 -0.00000000000E+00 -0.00000000000E+00 -0.83283972747E+02  0.83283972747E+02  0.00000000000E+00 0.  1.
         24    1    1    2    0    0 -0.38461309751E+02 -0.71528299078E+02  0.35816733833E+02  0.11977322027E+03  0.80419002446E+02 0. -1.
        -24    1    1    2    0    0  0.38461309751E+02  0.71528299078E+02  0.37755855995E+02  0.12036731505E+03  0.80419002446E+02 0.  1.
<mgrwt>
<rscale>  0 0.11429256E+03</rscale>
<asrwt>0</asrwt>
<pdfrwt beam="1">  1        2 0.24131779E-01 0.11429257E+03</pdfrwt>
<pdfrwt beam="2">  1       -2 0.12812919E-01 0.11429257E+03</pdfrwt>
<totfact> 0.92484233E+03</totfact>
</mgrwt>
</event>
<event>
 4    1  0.4862093E-001  0.8608524E+02  0.7546771E-02  0.1312619E+00
         -2   -1    0    0    0  501 -0.00000000000E+00  0.00000000000E+00  0.75955822354E+02  0.75955822354E+02  0.00000000000E+00 0.  1.
          2   -1    0    0  501    0  0.00000000000E+00 -0.00000000000E+00 -0.29654125196E+03  0.29654125196E+03  0.00000000000E+00 0. -1.
         24    1    1    2    0    0  0.19963782843E+02 -0.23343082875E+02 -0.26285612396E+03  0.27659358272E+03  0.80419002446E+02 0. -1.
        -24    1    1    2    0    0 -0.19963782843E+02  0.23343082875E+02  0.42270694359E+02  0.95903491591E+02  0.80419002446E+02 0.  1.
<mgrwt>
<rscale>  0 0.86085237E+02</rscale>
<asrwt>0</asrwt>
<pdfrwt beam="1">  1        2 0.45621731E-01 0.86085237E+02</pdfrwt>
<pdfrwt beam="2">  1       -2 0.11685511E-01 0.86085237E+02</pdfrwt>
<totfact> 0.53102932E+03</totfact>
</mgrwt>
</event>
<event>
 4    1  0.4862093E-001  0.1147579E+03  0.7546771E-02  0.1252004E+00
          1   -1    0    0  501    0  0.00000000000E+00  0.00000000000E+00  0.45531982663E+02  0.45531982663E+02  0.00000000000E+00 0. -1.
         -1   -1    0    0    0  501 -0.00000000000E+00 -0.00000000000E+00 -0.36766879222E+03  0.36766879222E+03  0.00000000000E+00 0.  1.
         24    1    1    2    0    0 -0.15501572483E+02  0.80385700065E+02 -0.25649258989E+03  0.28099434896E+03  0.80419002446E+02 0.  1.
        -24    1    1    2    0    0  0.15501572483E+02 -0.80385700065E+02 -0.65644219660E+02  0.13220642592E+03  0.80419002446E+02 0. -1.
<mgrwt>
<rscale>  0 0.11475790E+03</rscale>
<asrwt>0</asrwt>
<pdfrwt beam="1">  1        1 0.70049207E-02 0.11475790E+03</pdfrwt>
<pdfrwt beam="2">  1       -1 0.56564427E-01 0.11475790E+03</pdfrwt>
<totfact> 0.32366948E+03</totfact>
</mgrwt>
</event>
<event>
 4    1  0.4862093E-001  0.1927319E+03  0.7546771E-02  0.1156020E+00
          2   -1    0    0  501    0  0.00000000000E+00  0.00000000000E+00  0.10269547981E+04  0.10269547981E+04  0.00000000000E+00 0. -1.
         -2   -1    0    0    0  501 -0.00000000000E+00 -0.00000000000E+00 -0.61471032172E+02  0.61471032172E+02  0.00000000000E+00 0.  1.
         24    1    1    2    0    0  0.94417074010E+02 -0.14752553479E+03  0.83188015715E+03  0.85391462049E+03  0.80419002446E+02 0. -1.
        -24    1    1    2    0    0 -0.94417074010E+02  0.14752553479E+03  0.13360360879E+03  0.23451120979E+03  0.80419002446E+02 0.  1.
<mgrwt>
<rscale>  0 0.19273189E+03</rscale>
<asrwt>0</asrwt>
<pdfrwt beam="1">  1        2 0.15799303E+00 0.19273189E+03</pdfrwt>
<pdfrwt beam="2">  1       -2 0.94570826E-02 0.19273189E+03</pdfrwt>
<totfact> 0.18300056E+03</totfact>
</mgrwt>
</event>
<event>
 4    1  0.4862093E-001  0.8302705E+02  0.7546771E-02  0.1320674E+00
         -2   -1    0    0    0  501 -0.00000000000E+00  0.00000000000E+00  0.32645712129E+01  0.32645712129E+01  0.00000000000E+00 0.  1.
          2   -1    0    0  501    0  0.00000000000E+00 -0.00000000000E+00 -0.21738199658E+04  0.21738199658E+04  0.00000000000E+00 0. -1.
         24    1    1    2    0    0  0.12571877680E+02  0.16377512024E+02 -0.12694288569E+04  0.12721411532E+04  0.80419002446E+02 0. -1.
        -24    1    1    2    0    0 -0.12571877680E+02 -0.16377512024E+02 -0.90112653770E+03  0.90494338381E+03  0.80419002446E+02 0.  1.
<mgrwt>
<rscale>  0 0.83027050E+02</rscale>
<asrwt>0</asrwt>
<pdfrwt beam="1">  1        2 0.33443348E+00 0.83027050E+02</pdfrwt>
<pdfrwt beam="2">  1       -2 0.50224226E-03 0.83027050E+02</pdfrwt>
<totfact> 0.32474013E+04</totfact>
</mgrwt>
</event>
<event>
 4    1  0.4862093E-001  0.9228033E+02  0.7546771E-02  0.1297422E+00
          2   -1    0    0  501    0  0.00000000000E+00  0.00000000000E+00  0.50814190721E+02  0.50814190721E+02  0.00000000000E+00 0. -1.
         -2   -1    0    0    0  501 -0.00000000000E+00 -0.00000000000E+00 -0.22795846337E+03  0.22795846337E+03  0.00000000000E+00 0.  1.
         24    1    1    2    0    0  0.34735664336E+02 -0.29015117566E+02 -0.16839306848E+02  0.93804166398E+02  0.80419002446E+02 0. -1.
        -24    1    1    2    0    0 -0.34735664336E+02  0.29015117566E+02 -0.16030496580E+03  0.18496848769E+03  0.80419002446E+02 0.  1.
<mgrwt>
<rscale>  0 0.92280330E+02</rscale>
<asrwt>0</asrwt>
<pdfrwt beam="1">  1        2 0.78175679E-02 0.92280330E+02</pdfrwt>
<pdfrwt beam="2">  1       -2 0.35070532E-01 0.92280330E+02</pdfrwt>
<totfact> 0.61405985E+03</totfact>
</mgrwt>
</event>
<event>
 4    1  0.4862093E-001  0.9016938E+02  0.7546771E-02  0.1302442E+00
         -2   -1    0    0    0  501 -0.00000000000E+00  0.00000000000E+00  0.11866008543E+02  0.11866008543E+02  0.00000000000E+00 0.  1.
          2   -1    0    0  501    0  0.00000000000E+00 -0.00000000000E+00 -0.11022775021E+04  0.11022775021E+04  0.00000000000E+00 0. -1.
         24    1    1    2    0    0  0.23905462569E+02  0.33042845645E+02 -0.88787664450E+03  0.89244352908E+03  0.80419002446E+02 0. -1.
        -24    1    1    2    0    0 -0.23905462569E+02 -0.33042845645E+02 -0.20253484904E+03  0.22169998155E+03  0.80419002446E+02 0.  1.
<mgrwt>
<rscale>  0 0.90169378E+02</rscale>
<asrwt>0</asrwt>
<pdfrwt beam="1">  1        2 0.16958122E+00 0.90169378E+02</pdfrwt>
<pdfrwt beam="2">  1       -2 0.18255391E-02 0.90169378E+02</pdfrwt>
<totfact> 0.18687228E+04</totfact>
</mgrwt>
</event>
<event>
 4    1  0.4862093E-001  0.1019273E+03  0.7546771E-02  0.1276294E+00
         -2   -1    0    0    0  501 -0.00000000000E+00  0.00000000000E+00  0.34444585425E+02  0.34444585425E+02  0.00000000000E+00 0.  1.
          2   -1    0    0  501    0  0.00000000000E+00 -0.00000000000E+00 -0.40926094900E+04  0.40926094900E+04  0.00000000000E+00 0. -1.
         24    1    1    2    0    0 -0.58315872173E+02  0.22830262901E+02 -0.40151147054E+04  0.40164082556E+04  0.80419002446E+02 0. -1.
        -24    1    1    2    0    0  0.58315872173E+02 -0.22830262901E+02 -0.43050199184E+02  0.11064581987E+03  0.80419002446E+02 0.  1.
<mgrwt>
<rscale>  0 0.10192732E+03</rscale>
<asrwt>0</asrwt>
<pdfrwt beam="1">  1        2 0.62963239E+00 0.10192732E+03</pdfrwt>
<pdfrwt beam="2">  1       -2 0.52991656E-02 0.10192732E+03</pdfrwt>
<totfact> 0.76945893E+01</totfact>
</mgrwt>
</event>
<event>
 4    1  0.4862093E-001  0.9662667E+02  0.7546771E-02  0.1287554E+00
          2   -1    0    0  501    0  0.00000000000E+00  0.00000000000E+00  0.11864598639E+03  0.11864598639E+03  0.00000000000E+00 0. -1.
         -2   -1    0    0    0  501 -0.00000000000E+00 -0.00000000000E+00 -0.94981823363E+02  0.94981823363E+02  0.00000000000E+00 0.  1.
         24    1    1    2    0    0 -0.27514844133E+02  0.45961179178E+02  0.56064502830E+02  0.11171365660E+03  0.80419002446E+02 0. -1.
        -24    1    1    2    0    0  0.27514844133E+02 -0.45961179178E+02 -0.32400339802E+02  0.10191415315E+03  0.80419002446E+02 0.  1.
<mgrwt>
<rscale>  0 0.96626666E+02</rscale>
<asrwt>0</asrwt>
<pdfrwt beam="1">  1        2 0.18253229E-01 0.96626666E+02</pdfrwt>
<pdfrwt beam="2">  1       -2 0.14612588E-01 0.96626666E+02</pdfrwt>
<totfact> 0.10075072E+04</totfact>
</mgrwt>
</event>
<event>
 4    1  0.4862093E-001  0.1453991E+03  0.7546771E-02  0.1206243E+00
         -1   -1    0    0    0  501 -0.00000000000E+00  0.00000000000E+00  0.72367870385E+03  0.72367870385E+03  0.00000000000E+00 0.  1.
          1   -1    0    0  501    0  0.00000000000E+00 -0.00000000000E+00 -0.29345033856E+02  0.29345033856E+02  0.00000000000E+00 0. -1.
         24    1    1    2    0    0  0.12112195741E+03  0.17719760997E+01  0.32191917355E+03  0.35323198994E+03  0.80419002446E+02 0.  1.
        -24    1    1    2    0    0 -0.12112195741E+03 -0.17719760997E+01  0.37241449645E+03  0.39979174777E+03  0.80419002446E+02 0. -1.
<mgrwt>
<rscale>  0 0.14539907E+03</rscale>
<asrwt>0</asrwt>
<pdfrwt beam="1">  1        1 0.45146211E-02 0.14539909E+03</pdfrwt>
<pdfrwt beam="2">  1       -1 0.11133517E+00 0.14539909E+03</pdfrwt>
<totfact> 0.14821812E+03</totfact>
</mgrwt>
</event>
<event>
 4    1  0.4862093E-001  0.8878633E+02  0.7546771E-02  0.1305818E+00
          2   -1    0    0  501    0  0.00000000000E+00  0.00000000000E+00  0.32369907852E+02  0.32369907852E+02  0.00000000000E+00 0. -1.
         -2   -1    0    0    0  501 -0.00000000000E+00 -0.00000000000E+00 -0.25578807509E+03  0.25578807509E+03  0.00000000000E+00 0.  1.
         24    1    1    2    0    0  0.20844845593E+01 -0.37569237522E+02 -0.14325119901E+03  0.16853460966E+03  0.80419002446E+02 0.  0.
        -24    1    1    2    0    0 -0.20844845593E+01  0.37569237522E+02 -0.80166968230E+02  0.11962337327E+03  0.80419002446E+02 0.  0.
<mgrwt>
<rscale>  0 0.88786320E+02</rscale>
<asrwt>0</asrwt>
<pdfrwt beam="1">  1        2 0.49799861E-02 0.88786331E+02</pdfrwt>
<pdfrwt beam="2">  1       -2 0.39352010E-01 0.88786331E+02</pdfrwt>
<totfact> 0.87538888E+03</totfact>
</mgrwt>
</event>
<event>
 4    1  0.4862093E-001  0.8963478E+02  0.7546771E-02  0.1303739E+00
          2   -1    0    0  501    0  0.00000000000E+00  0.00000000000E+00  0.39520340562E+04  0.39520340562E+04  0.00000000000E+00 0. -1.
         -2   -1    0    0    0  501 -0.00000000000E+00 -0.00000000000E+00 -0.21048998762E+01  0.21048998762E+01  0.00000000000E+00 0.  1.
         24    1    1    2    0    0  0.39375906839E+02  0.40885251882E+01  0.23404246778E+04  0.23421404882E+04  0.80419002446E+02 0.  1.
        -24    1    1    2    0    0 -0.39375906839E+02 -0.40885251882E+01  0.16095044785E+04  0.16119984678E+04  0.80419002446E+02 0. -1.
<mgrwt>
<rscale>  0 0.89634781E+02</rscale>
<asrwt>0</asrwt>
<pdfrwt beam="1">  1        2 0.60799930E+00 0.89634781E+02</pdfrwt>
<pdfrwt beam="2">  1       -2 0.32383391E-03 0.89634781E+02</pdfrwt>
<totfact> 0.53924828E+03</totfact>
</mgrwt>
</event>
<event>
 4    1  0.4862093E-001  0.8361209E+02  0.7546771E-02  0.1319103E+00
          2   -1    0    0  501    0  0.00000000000E+00  0.00000000000E+00  0.78377385974E+03  0.78377385974E+03  0.00000000000E+00 0. -1.
         -2   -1    0    0    0  501 -0.00000000000E+00 -0.00000000000E+00 -0.90956571343E+01  0.90956571343E+01  0.00000000000E+00 0.  1.
         24    1    1    2    0    0 -0.17977217148E+02  0.14162685958E+02  0.33219025683E+03  0.34255122930E+03  0.80419002446E+02 0.  0.
        -24    1    1    2    0    0  0.17977217148E+02 -0.14162685958E+02  0.44248794577E+03  0.45031828757E+03  0.80419002446E+02 0.  0.
<mgrwt>
<rscale>  0 0.83612079E+02</rscale>
<asrwt>0</asrwt>
<pdfrwt beam="1">  1        2 0.12058054E+00 0.83612089E+02</pdfrwt>
<pdfrwt beam="2">  1       -2 0.13993325E-02 0.83612089E+02</pdfrwt>
<totfact> 0.42293794E+04</totfact>
</mgrwt>
</event>
<event>
 4    1  0.4862093E-001  0.1627293E+03  0.7546771E-02  0.1185649E+00
          2   -1    0    0  501    0  0.00000000000E+00  0.00000000000E+00  0.74901008517E+03  0.74901008517E+03  0.00000000000E+00 0. -1.
         -2   -1    0    0    0  501 -0.00000000000E+00 -0.00000000000E+00 -0.16828771541E+03  0.16828771541E+03  0.00000000000E+00 0.  1.
         24    1    1    2    0    0  0.13745346177E+03  0.33468859665E+02  0.69799574419E+03  0.71671395521E+03  0.80419002446E+02 0. -1.
        -24    1    1    2    0    0 -0.13745346177E+03 -0.33468859665E+02 -0.11727337443E+03  0.20058384537E+03  0.80419002446E+02 0.  1.
<mgrwt>
<rscale>  0 0.16272933E+03</rscale>
<asrwt>0</asrwt>
<pdfrwt beam="1">  1        2 0.11523232E+00 0.16272933E+03</pdfrwt>
<pdfrwt beam="2">  1       -2 0.25890418E-01 0.16272933E+03</pdfrwt>
<totfact> 0.52142672E+02</totfact>
</mgrwt>
</event>
<event>
 4    1  0.4862093E-001  0.9077944E+02  0.7546771E-02  0.1300975E+00
          1   -1    0    0  501    0  0.00000000000E+00  0.00000000000E+00  0.21950152237E+03  0.21950152237E+03  0.00000000000E+00 0. -1.
         -1   -1    0    0    0  501 -0.00000000000E+00 -0.00000000000E+00 -0.33289223384E+03  0.33289223384E+03  0.00000000000E+00 0.  1.
         24    1    1    2    0    0 -0.30606622449E+02 -0.28929649628E+02 -0.31685164004E+03  0.32959955661E+03  0.80419002446E+02 0.  1.
        -24    1    1    2    0    0  0.30606622449E+02  0.28929649628E+02  0.20346092857E+03  0.22279419960E+03  0.80419002446E+02 0. -1.
<mgrwt>
<rscale>  0 0.90779436E+02</rscale>
<asrwt>0</asrwt>
<pdfrwt beam="1">  1        1 0.33769465E-01 0.90779436E+02</pdfrwt>
<pdfrwt beam="2">  1       -1 0.51214190E-01 0.90779436E+02</pdfrwt>
<totfact> 0.51366614E+02</totfact>
</mgrwt>
</event>
<event>
 4    1  0.4862093E-001  0.9170766E+02  0.7546771E-02  0.1298768E+00
          2   -1    0    0  501    0  0.00000000000E+00  0.00000000000E+00  0.21917086826E+03  0.21917086826E+03  0.00000000000E+00 0. -1.
         -2   -1    0    0    0  501 -0.00000000000E+00 -0.00000000000E+00 -0.55755194902E+02  0.55755194902E+02  0.00000000000E+00 0.  1.
         24    1    1    2    0    0  0.43768624271E+02 -0.52331665853E+01  0.15846036038E+03  0.18308462598E+03  0.80419002446E+02 0. -1.
        -24    1    1    2    0    0 -0.43768624271E+02  0.52331665853E+01  0.49553129780E+01  0.91841437185E+02  0.80419002446E+02 0.  1.
<mgrwt>
<rscale>  0 0.91707658E+02</rscale>
<asrwt>0</asrwt>
<pdfrwt beam="1">  1        2 0.33718595E-01 0.91707658E+02</pdfrwt>
<pdfrwt beam="2">  1       -2 0.85777224E-02 0.91707658E+02</pdfrwt>
<totfact> 0.11857814E+04</totfact>
</mgrwt>
</event>
<event>
 4    1  0.4862093E-001  0.1022143E+03  0.7546771E-02  0.1275707E+00
          1   -1    0    0  501    0  0.00000000000E+00  0.00000000000E+00  0.44411924561E+03  0.44411924561E+03  0.00000000000E+00 0. -1.
         -1   -1    0    0    0  501 -0.00000000000E+00 -0.00000000000E+00 -0.60759402269E+02  0.60759402269E+02  0.00000000000E+00 0.  1.
         24    1    1    2    0    0 -0.51096366556E+02  0.37009644302E+02 -0.59370556948E+01  0.10238660572E+03  0.80419002446E+02 0.  1.
        -24    1    1    2    0    0  0.51096366556E+02 -0.37009644302E+02  0.38929689904E+03  0.40249204216E+03  0.80419002446E+02 0. -1.
<mgrwt>
<rscale>  0 0.10221433E+03</rscale>
<asrwt>0</asrwt>
<pdfrwt beam="1">  1        1 0.68326036E-01 0.10221433E+03</pdfrwt>
<pdfrwt beam="2">  1       -1 0.93476006E-02 0.10221433E+03</pdfrwt>
<totfact> 0.34239699E+03</totfact>
</mgrwt>
</event>
<event>
 4    1  0.4862093E-001  0.8177887E+02  0.7546771E-02  0.1324078E+00
          1   -1    0    0  501    0  0.00000000000E+00  0.00000000000E+00  0.83331785296E+03  0.83331785296E+03  0.00000000000E+00 0. -1.
         -1   -1    0    0    0  501 -0.00000000000E+00 -0.00000000000E+00 -0.10987932077E+02  0.10987932077E+02  0.00000000000E+00 0.  1.
         24    1    1    2    0    0  0.11983792227E+02  0.87724840428E+01  0.19196687616E+03  0.20866016689E+03  0.80419002446E+02 0.  1.
        -24    1    1    2    0    0 -0.11983792227E+02 -0.87724840428E+01  0.63036304473E+03  0.63564561815E+03  0.80419002446E+02 0.  0.
<mgrwt>
<rscale>  0 0.81778871E+02</rscale>
<asrwt>0</asrwt>
<pdfrwt beam="1">  1        1 0.12820270E+00 0.81778871E+02</pdfrwt>
<pdfrwt beam="2">  1       -1 0.16904517E-02 0.81778871E+02</pdfrwt>
<totfact> 0.17287951E+04</totfact>
</mgrwt>
</event>
<event>
 4    1  0.4862093E-001  0.8520950E+02  0.7546771E-02  0.1314886E+00
          1   -1    0    0  501    0  0.00000000000E+00  0.00000000000E+00  0.20423144174E+04  0.20423144174E+04  0.00000000000E+00 0. -1.
         -1   -1    0    0    0  501 -0.00000000000E+00 -0.00000000000E+00 -0.39073547294E+01  0.39073547294E+01  0.00000000000E+00 0.  1.
         24    1    1    2    0    0 -0.27640753455E+02  0.54251000219E+01  0.71201742237E+03  0.71709794915E+03  0.80419002446E+02 0.  1.
        -24    1    1    2    0    0  0.27640753455E+02 -0.54251000219E+01  0.13263896403E+04  0.13291238230E+04  0.80419002446E+02 0. -1.
<mgrwt>
<rscale>  0 0.85209500E+02</rscale>
<asrwt>0</asrwt>
<pdfrwt beam="1">  1        1 0.31420137E+00 0.85209500E+02</pdfrwt>
<pdfrwt beam="2">  1       -1 0.60113313E-03 0.85209500E+02</pdfrwt>
<totfact> 0.11830387E+04</totfact>
</mgrwt>
</event>
<event>
 4    1  0.4862093E-001  0.8592317E+02  0.7546771E-02  0.1313036E+00
          1   -1    0    0  501    0  0.00000000000E+00  0.00000000000E+00  0.28517586598E+03  0.28517586598E+03  0.00000000000E+00 0. -1.
         -1   -1    0    0    0  501 -0.00000000000E+00 -0.00000000000E+00 -0.26459034647E+02  0.26459034647E+02  0.00000000000E+00 0.  1.
         24    1    1    2    0    0  0.50654355610E+01 -0.29831477137E+02  0.10647881356E+03  0.13682298548E+03  0.80419002446E+02 0.  0.
        -24    1    1    2    0    0 -0.50654355610E+01  0.29831477137E+02  0.15223801777E+03  0.17481191514E+03  0.80419002446E+02 0. -1.
<mgrwt>
<rscale>  0 0.85923173E+02</rscale>
<asrwt>0</asrwt>
<pdfrwt beam="1">  1        1 0.43873208E-01 0.85923173E+02</pdfrwt>
<pdfrwt beam="2">  1       -1 0.40706209E-02 0.85923173E+02</pdfrwt>
<totfact> 0.19936135E+04</totfact>
</mgrwt>
</event>
<event>
 4    1  0.4862093E-001  0.2034947E+03  0.7546771E-02  0.1146824E+00
         -2   -1    0    0    0  501 -0.00000000000E+00  0.00000000000E+00  0.36246604614E+02  0.36246604614E+02  0.00000000000E+00 0.  1.
          2   -1    0    0  501    0  0.00000000000E+00 -0.00000000000E+00 -0.11847883654E+04  0.11847883654E+04  0.00000000000E+00 0. -1.
         24    1    1    2    0    0 -0.10428881324E+03  0.15513452445E+03 -0.68967522334E+03  0.71907023779E+03  0.80419002446E+02 0. -1.
        -24    1    1    2    0    0  0.10428881324E+03 -0.15513452445E+03 -0.45886653740E+03  0.50196473217E+03  0.80419002446E+02 0.  1.
<mgrwt>
<rscale>  0 0.20349470E+03</rscale>
<asrwt>0</asrwt>
<pdfrwt beam="1">  1        2 0.18227512E+00 0.20349470E+03</pdfrwt>
<pdfrwt beam="2">  1       -2 0.55764010E-02 0.20349470E+03</pdfrwt>
<totfact> 0.33600746E+03</totfact>
</mgrwt>
</event>
<event>
 4    1  0.4862093E-001  0.1230506E+03  0.7546771E-02  0.1238148E+00
          1   -1    0    0  501    0  0.00000000000E+00  0.00000000000E+00  0.19932240277E+04  0.19932240277E+04  0.00000000000E+00 0. -1.
         -1   -1    0    0    0  501 -0.00000000000E+00 -0.00000000000E+00 -0.76110247067E+01  0.76110247067E+01  0.00000000000E+00 0.  1.
         24    1    1    2    0    0 -0.45490378598E+02  0.81270190935E+02  0.10365790224E+04  0.10438570324E+04  0.80419002446E+02 0.  1.
        -24    1    1    2    0    0  0.45490378598E+02 -0.81270190935E+02  0.94903398054E+03  0.95697801995E+03  0.80419002446E+02 0.  0.
<mgrwt>
<rscale>  0 0.12305055E+03</rscale>
<asrwt>0</asrwt>
<pdfrwt beam="1">  1        1 0.30664943E+00 0.12305057E+03</pdfrwt>
<pdfrwt beam="2">  1       -1 0.11709285E-02 0.12305057E+03</pdfrwt>
<totfact> 0.50288874E+03</totfact>
</mgrwt>
</event>
<event>
 4    1  0.4862093E-001  0.8338569E+02  0.7546771E-02  0.1319709E+00
         -1   -1    0    0    0  501 -0.00000000000E+00  0.00000000000E+00  0.50733874380E+02  0.50733874380E+02  0.00000000000E+00 0.  1.
          1   -1    0    0  501    0  0.00000000000E+00 -0.00000000000E+00 -0.23075677669E+03  0.23075677669E+03  0.00000000000E+00 0. -1.
         24    1    1    2    0    0  0.17905097184E+02  0.12859397711E+02 -0.32271494790E+00  0.83386310111E+02  0.80419002446E+02 0.  1.
        -24    1    1    2    0    0 -0.17905097184E+02 -0.12859397711E+02 -0.17970018736E+03  0.19810434096E+03  0.80419002446E+02 0. -1.
<mgrwt>
<rscale>  0 0.83385686E+02</rscale>
<asrwt>0</asrwt>
<pdfrwt beam="1">  1        1 0.35501043E-01 0.83385686E+02</pdfrwt>
<pdfrwt beam="2">  1       -1 0.78052113E-02 0.83385686E+02</pdfrwt>
<totfact> 0.98931825E+03</totfact>
</mgrwt>
</event>
<event>
 4    1  0.4862093E-001  0.8687677E+02  0.7546771E-02  0.1310596E+00
         -1   -1    0    0    0  501 -0.00000000000E+00  0.00000000000E+00  0.27358353394E+03  0.27358353394E+03  0.00000000000E+00 0.  1.
          1   -1    0    0  501    0  0.00000000000E+00 -0.00000000000E+00 -0.35171211377E+02  0.35171211377E+02  0.00000000000E+00 0. -1.
         24    1    1    2    0    0 -0.28182171849E+02  0.16915136406E+02  0.19089008830E+03  0.20972982243E+03  0.80419002446E+02 0.  1.
        -24    1    1    2    0    0  0.28182171849E+02 -0.16915136406E+02  0.47522234263E+02  0.99024922891E+02  0.80419002446E+02 0. -1.
<mgrwt>
<rscale>  0 0.86876767E+02</rscale>
<asrwt>0</asrwt>
<pdfrwt beam="1">  1        1 0.54109558E-02 0.86876767E+02</pdfrwt>
<pdfrwt beam="2">  1       -1 0.42089773E-01 0.86876767E+02</pdfrwt>
<totfact> 0.76389154E+03</totfact>
</mgrwt>
</event>
<event>
 4    1  0.4862093E-001  0.1795124E+03  0.7546771E-02  0.1168276E+00
         -2   -1    0    0    0  501 -0.00000000000E+00  0.00000000000E+00  0.29938747804E+02  0.29938747804E+02  0.00000000000E+00 0.  1.
          2   -1    0    0  501    0  0.00000000000E+00 -0.00000000000E+00 -0.13999560873E+04  0.13999560873E+04  0.00000000000E+00 0. -1.
         24    1    1    2    0    0 -0.13858212424E+03 -0.80947405699E+02 -0.10287424932E+04  0.10442872310E+04  0.80419002446E+02 0. -1.
        -24    1    1    2    0    0  0.13858212424E+03  0.80947405699E+02 -0.34127484636E+03  0.38560760413E+03  0.80419002446E+02 0.  1.
<mgrwt>
<rscale>  0 0.17951241E+03</rscale>
<asrwt>0</asrwt>
<pdfrwt beam="1">  1        2 0.21537779E+00 0.17951241E+03</pdfrwt>
<pdfrwt beam="2">  1       -2 0.46059627E-02 0.17951241E+03</pdfrwt>
<totfact> 0.34137785E+03</totfact>
</mgrwt>
</event>
<event>
 4    1  0.4862093E-001  0.8451739E+02  0.7546771E-02  0.1316699E+00
         -2   -1    0    0    0  501 -0.00000000000E+00  0.00000000000E+00  0.23369172336E+02  0.23369172336E+02  0.00000000000E+00 0.  1.
          2   -1    0    0  501    0  0.00000000000E+00 -0.00000000000E+00 -0.10399219592E+04  0.10399219592E+04  0.00000000000E+00 0. -1.
         24    1    1    2    0    0 -0.28383385858E+01  0.25844092173E+02 -0.95500648748E+03  0.95873905749E+03  0.80419002446E+02 0. -1.
        -24    1    1    2    0    0  0.28383385858E+01 -0.25844092173E+02 -0.61546299387E+02  0.10455207405E+03  0.80419002446E+02 0.  1.
<mgrwt>
<rscale>  0 0.84517390E+02</rscale>
<asrwt>0</asrwt>
<pdfrwt beam="1">  1        2 0.15998800E+00 0.84517390E+02</pdfrwt>
<pdfrwt beam="2">  1       -2 0.35952572E-02 0.84517390E+02</pdfrwt>
<totfact> 0.75764666E+03</totfact>
</mgrwt>
</event>
<event>
 4    1  0.4862093E-001  0.8864978E+02  0.7546771E-02  0.1306155E+00
          2   -1    0    0  501    0  0.00000000000E+00  0.00000000000E+00  0.12444107284E+03  0.12444107284E+03  0.00000000000E+00 0. -1.
         -2   -1    0    0    0  501 -0.00000000000E+00 -0.00000000000E+00 -0.67519992137E+02  0.67519992137E+02  0.00000000000E+00 0.  1.
         24    1    1    2    0    0  0.33805247581E+02  0.15772521004E+02  0.52870986889E+02  0.10321881801E+03  0.80419002446E+02 0. -1.
        -24    1    1    2    0    0 -0.33805247581E+02 -0.15772521004E+02  0.40500938177E+01  0.88742246969E+02  0.80419002446E+02 0.  0.
<mgrwt>
<rscale>  0 0.88649778E+02</rscale>
<asrwt>0</asrwt>
<pdfrwt beam="1">  1        2 0.19144780E-01 0.88649778E+02</pdfrwt>
<pdfrwt beam="2">  1       -2 0.10387691E-01 0.88649778E+02</pdfrwt>
<totfact> 0.16267102E+04</totfact>
</mgrwt>
</event>
<event>
 4    1  0.4862093E-001  0.1503965E+03  0.7546771E-02  0.1199987E+00
          1   -1    0    0  501    0  0.00000000000E+00  0.00000000000E+00  0.74654969069E+03  0.74654969069E+03  0.00000000000E+00 0. -1.
         -1   -1    0    0    0  501 -0.00000000000E+00 -0.00000000000E+00 -0.35330851505E+02  0.35330851505E+02  0.00000000000E+00 0.  1.
         24    1    1    2    0    0  0.12664786473E+03 -0.10592255334E+02  0.20806158224E+03  0.25672692783E+03  0.80419002446E+02 0.  1.
        -24    1    1    2    0    0 -0.12664786473E+03  0.10592255334E+02  0.50315725694E+03  0.52515361436E+03  0.80419002446E+02 0. -1.
<mgrwt>
<rscale>  0 0.15039645E+03</rscale>
<asrwt>0</asrwt>
<pdfrwt beam="1">  1        1 0.11485379E+00 0.15039645E+03</pdfrwt>
<pdfrwt beam="2">  1       -1 0.54355161E-02 0.15039645E+03</pdfrwt>
<totfact> 0.38898174E+03</totfact>
</mgrwt>
</event>
<event>
 4    1  0.4862093E-001  0.9197650E+02  0.7546771E-02  0.1298135E+00
         -3   -1    0    0    0  501 -0.00000000000E+00  0.00000000000E+00  0.82522328328E+03  0.82522328328E+03  0.00000000000E+00 0.  1.
          3   -1    0    0  501    0  0.00000000000E+00 -0.00000000000E+00 -0.10296834241E+02  0.10296834241E+02  0.00000000000E+00 0. -1.
         24    1    1    2    0    0 -0.32966650936E+02 -0.30094203678E+02  0.43521969350E+03  0.44483239398E+03  0.80419002446E+02 0.  1.
        -24    1    1    2    0    0  0.32966650936E+02  0.30094203678E+02  0.37970675554E+03  0.39068772354E+03  0.80419002446E+02 0. -1.
<mgrwt>
<rscale>  0 0.91976503E+02</rscale>
<asrwt>0</asrwt>
<pdfrwt beam="1">  1        3 0.15841290E-02 0.91976503E+02</pdfrwt>
<pdfrwt beam="2">  1       -3 0.12695738E+00 0.91976503E+02</pdfrwt>
<totfact> 0.15100162E+03</totfact>
</mgrwt>
</event>
<event>
 4    1  0.4862093E-001  0.9614704E+02  0.7546771E-02  0.1288613E+00
         -2   -1    0    0    0  501 -0.00000000000E+00  0.00000000000E+00  0.33775901952E+02  0.33775901952E+02  0.00000000000E+00 0.  1.
          2   -1    0    0  501    0  0.00000000000E+00 -0.00000000000E+00 -0.44224570166E+03  0.44224570166E+03  0.00000000000E+00 0. -1.
         24    1    1    2    0    0  0.34095771341E+02 -0.40181029264E+02 -0.35117210393E+03  0.36409627747E+03  0.80419002446E+02 0. -1.
        -24    1    1    2    0    0 -0.34095771341E+02  0.40181029264E+02 -0.57297695781E+02  0.11192532614E+03  0.80419002446E+02 0.  1.
<mgrwt>
<rscale>  0 0.96147037E+02</rscale>
<asrwt>0</asrwt>
<pdfrwt beam="1">  1        2 0.68037801E-01 0.96147037E+02</pdfrwt>
<pdfrwt beam="2">  1       -2 0.51962926E-02 0.96147037E+02</pdfrwt>
<totfact> 0.12145040E+04</totfact>
</mgrwt>
</event>
<event>
 4    1  0.4862093E-001  0.9314080E+02  0.7546771E-02  0.1295419E+00
          3   -1    0    0  501    0  0.00000000000E+00  0.00000000000E+00  0.70258612354E+03  0.70258612354E+03  0.00000000000E+00 0. -1.
         -3   -1    0    0    0  501 -0.00000000000E+00 -0.00000000000E+00 -0.14209060659E+02  0.14209060659E+02  0.00000000000E+00 0.  1.
         24    1    1    2    0    0  0.16017124898E+02  0.44175157757E+02  0.21446565468E+03  0.23381771927E+03  0.80419002446E+02 0.  1.
        -24    1    1    2    0    0 -0.16017124898E+02 -0.44175157757E+02  0.47391140820E+03  0.48297746493E+03  0.80419002446E+02 0. -1.
<mgrwt>
<rscale>  0 0.93140801E+02</rscale>
<asrwt>0</asrwt>
<pdfrwt beam="1">  1        3 0.10809015E+00 0.93140801E+02</pdfrwt>
<pdfrwt beam="2">  1       -3 0.21860099E-02 0.93140801E+02</pdfrwt>
<totfact> 0.13570924E+03</totfact>
</mgrwt>
</event>
<event>
 4    1  0.4862093E-001  0.1224768E+03  0.7546771E-02  0.1239066E+00
         -1   -1    0    0    0  501 -0.00000000000E+00  0.00000000000E+00  0.18339416464E+02  0.18339416464E+02  0.00000000000E+00 0.  1.
          1   -1    0    0  501    0  0.00000000000E+00 -0.00000000000E+00 -0.91461003548E+03  0.91461003548E+03  0.00000000000E+00 0. -1.
         24    1    1    2    0    0 -0.15648870933E+02 -0.91040984638E+02 -0.29648146704E+03  0.32078314217E+03  0.80419002446E+02 0.  1.
        -24    1    1    2    0    0  0.15648870933E+02  0.91040984638E+02 -0.59978915198E+03  0.61216630978E+03  0.80419002446E+02 0. -1.
<mgrwt>
<rscale>  0 0.12247679E+03</rscale>
<asrwt>0</asrwt>
<pdfrwt beam="1">  1        1 0.14070922E+00 0.12247679E+03</pdfrwt>
<pdfrwt beam="2">  1       -1 0.28214490E-02 0.12247679E+03</pdfrwt>
<totfact> 0.73942791E+03</totfact>
</mgrwt>
</event>
<event>
 4    1  0.4862093E-001  0.1771706E+03  0.7546771E-02  0.1170570E+00
          4   -1    0    0  501    0  0.00000000000E+00  0.00000000000E+00  0.58362025345E+02  0.58362025345E+02  0.00000000000E+00 0. -1.
         -4   -1    0    0    0  501 -0.00000000000E+00 -0.00000000000E+00 -0.53846380411E+03  0.53846380411E+03  0.00000000000E+00 0.  1.
         24    1    1    2    0    0 -0.15478780982E+03 -0.31031013343E+02 -0.25021145523E+03  0.30658633065E+03  0.80419002446E+02 0.  1.
        -24    1    1    2    0    0  0.15478780982E+03  0.31031013343E+02 -0.22989032354E+03  0.29023949881E+03  0.80419002446E+02 0. -1.
<mgrwt>
<rscale>  0 0.17717058E+03</rscale>
<asrwt>0</asrwt>
<pdfrwt beam="1">  1        4 0.89787736E-02 0.17717060E+03</pdfrwt>
<pdfrwt beam="2">  1       -4 0.82840581E-01 0.17717060E+03</pdfrwt>
<totfact> 0.20891310E+02</totfact>
</mgrwt>
</event>
<event>
 4    1  0.4862093E-001  0.8656792E+02  0.7546771E-02  0.1311382E+00
         -2   -1    0    0    0  501 -0.00000000000E+00  0.00000000000E+00  0.14997774374E+02  0.14997774374E+02  0.00000000000E+00 0.  1.
          2   -1    0    0  501    0  0.00000000000E+00 -0.00000000000E+00 -0.90536250773E+03  0.90536250773E+03  0.00000000000E+00 0. -1.
         24    1    1    2    0    0 -0.29572861613E+02  0.12338327424E+02 -0.75322635685E+03  0.75818464049E+03  0.80419002446E+02 0. -1.
        -24    1    1    2    0    0  0.29572861613E+02 -0.12338327424E+02 -0.13713837650E+03  0.16217564161E+03  0.80419002446E+02 0.  1.
<mgrwt>
<rscale>  0 0.86567918E+02</rscale>
<asrwt>0</asrwt>
<pdfrwt beam="1">  1        2 0.13928663E+00 0.86567918E+02</pdfrwt>
<pdfrwt beam="2">  1       -2 0.23073485E-02 0.86567918E+02</pdfrwt>
<totfact> 0.17350117E+04</totfact>
</mgrwt>
</event>
<event>
 4    1  0.4862093E-001  0.1001409E+03  0.7546771E-02  0.1280000E+00
          1   -1    0    0  501    0  0.00000000000E+00  0.00000000000E+00  0.25150958414E+03  0.25150958414E+03  0.00000000000E+00 0. -1.
         -1   -1    0    0    0  501 -0.00000000000E+00 -0.00000000000E+00 -0.79071644501E+03  0.79071644501E+03  0.00000000000E+00 0.  1.
         24    1    1    2    0    0  0.38729381514E+02 -0.45398415514E+02 -0.77740789179E+03  0.78383112167E+03  0.80419002446E+02 0.  1.
        -24    1    1    2    0    0 -0.38729381514E+02  0.45398415514E+02  0.23820103093E+03  0.25839490748E+03  0.80419002446E+02 0. -1.
<mgrwt>
<rscale>  0 0.10014089E+03</rscale>
<asrwt>0</asrwt>
<pdfrwt beam="1">  1        1 0.38693782E-01 0.10014089E+03</pdfrwt>
<pdfrwt beam="2">  1       -1 0.12164868E+00 0.10014089E+03</pdfrwt>
<totfact> 0.74268831E+01</totfact>
</mgrwt>
</event>
<event>
 4    1  0.4862093E-001  0.8079467E+02  0.7546771E-02  0.1326811E+00
         -3   -1    0    0    0  501 -0.00000000000E+00  0.00000000000E+00  0.16163991180E+02  0.16163991180E+02  0.00000000000E+00 0.  1.
          3   -1    0    0  501    0  0.00000000000E+00 -0.00000000000E+00 -0.42292845572E+03  0.42292845572E+03  0.00000000000E+00 0. -1.
         24    1    1    2    0    0 -0.22537527675E+01  0.74486622622E+01 -0.15674859721E+03  0.17634596863E+03  0.80419002446E+02 0.  1.
        -24    1    1    2    0    0  0.22537527675E+01 -0.74486622622E+01 -0.25001586733E+03  0.26274647826E+03  0.80419002446E+02 0. -1.
<mgrwt>
<rscale>  0 0.80794665E+02</rscale>
<asrwt>0</asrwt>
<pdfrwt beam="1">  1        3 0.65065921E-01 0.80794665E+02</pdfrwt>
<pdfrwt beam="2">  1       -3 0.24867677E-02 0.80794665E+02</pdfrwt>
<totfact> 0.32561377E+03</totfact>
</mgrwt>
</event>
<event>
 4    1  0.4862093E-001  0.1543394E+03  0.7546771E-02  0.1195240E+00
          1   -1    0    0  501    0  0.00000000000E+00  0.00000000000E+00  0.22241600742E+03  0.22241600742E+03  0.00000000000E+00 0. -1.
         -1   -1    0    0    0  501 -0.00000000000E+00 -0.00000000000E+00 -0.12900865261E+03  0.12900865261E+03  0.00000000000E+00 0.  1.
         24    1    1    2    0    0 -0.81810598844E+02 -0.10324951632E+03 -0.25707429485E+02  0.15646572976E+03  0.80419002446E+02 0.  1.
        -24    1    1    2    0    0  0.81810598844E+02  0.10324951632E+03  0.11911478429E+03  0.19495893028E+03  0.80419002446E+02 0. -1.
<mgrwt>
<rscale>  0 0.15433941E+03</rscale>
<asrwt>0</asrwt>
<pdfrwt beam="1">  1        1 0.34217847E-01 0.15433941E+03</pdfrwt>
<pdfrwt beam="2">  1       -1 0.19847485E-01 0.15433941E+03</pdfrwt>
<totfact> 0.25544066E+03</totfact>
</mgrwt>
</event>
<event>
 4    1  0.4862093E-001  0.1200257E+03  0.7546771E-02  0.1243055E+00
         -4   -1    0    0    0  501 -0.00000000000E+00  0.00000000000E+00  0.28202267202E+03  0.28202267202E+03  0.00000000000E+00 0.  1.
          4   -1    0    0  501    0  0.00000000000E+00 -0.00000000000E+00 -0.52038636127E+02  0.52038636127E+02  0.00000000000E+00 0. -1.
         24    1    1    2    0    0  0.27792705939E+02 -0.84655360290E+02  0.92340963911E+02  0.15143656791E+03  0.80419002446E+02 0. -1.
        -24    1    1    2    0    0 -0.27792705939E+02  0.84655360290E+02  0.13764307199E+03  0.18262474024E+03  0.80419002446E+02 0.  1.
<mgrwt>
<rscale>  0 0.12002575E+03</rscale>
<asrwt>0</asrwt>
<pdfrwt beam="1">  1        4 0.80059442E-02 0.12002575E+03</pdfrwt>
<pdfrwt beam="2">  1       -4 0.43388103E-01 0.12002575E+03</pdfrwt>
<totfact> 0.91802908E+02</totfact>
</mgrwt>
</event>
<event>
 4    1  0.4862093E-001  0.1088489E+03  0.7546771E-02  0.1262716E+00
          1   -1    0    0  501    0  0.00000000000E+00  0.00000000000E+00  0.11290985631E+04  0.11290985631E+04  0.00000000000E+00 0. -1.
         -1   -1    0    0    0  501 -0.00000000000E+00 -0.00000000000E+00 -0.10501360041E+02  0.10501360041E+02  0.00000000000E+00 0.  1.
         24    1    1    2    0    0 -0.35263637618E+02 -0.64322218834E+02  0.54361539442E+03  0.55440579450E+03  0.80419002446E+02 0. -1.
        -24    1    1    2    0    0  0.35263637618E+02  0.64322218834E+02  0.57498180867E+03  0.58519412867E+03  0.80419002446E+02 0.  1.
<mgrwt>
<rscale>  0 0.10884892E+03</rscale>
<asrwt>0</asrwt>
<pdfrwt beam="1">  1        1 0.17370738E+00 0.10884892E+03</pdfrwt>
<pdfrwt beam="2">  1       -1 0.16155947E-02 0.10884892E+03</pdfrwt>
<totfact> 0.11462743E+04</totfact>
</mgrwt>
</event>
<event>
 4    1  0.4862093E-001  0.8673557E+02  0.7546771E-02  0.1310955E+00
          2   -1    0    0  501    0  0.00000000000E+00  0.00000000000E+00  0.21070693492E+03  0.21070693492E+03  0.00000000000E+00 0. -1.
         -2   -1    0    0    0  501 -0.00000000000E+00 -0.00000000000E+00 -0.52552773613E+02  0.52552773613E+02  0.00000000000E+00 0.  1.
         24    1    1    2    0    0  0.13123778562E+02 -0.29725557803E+02  0.15360896110E+03  0.17640513381E+03  0.80419002446E+02 0. -1.
        -24    1    1    2    0    0 -0.13123778562E+02  0.29725557803E+02  0.45452002050E+01  0.86854574719E+02  0.80419002446E+02 0.  1.
<mgrwt>
<rscale>  0 0.86735565E+02</rscale>
<asrwt>0</asrwt>
<pdfrwt beam="1">  1        2 0.32416451E-01 0.86735565E+02</pdfrwt>
<pdfrwt beam="2">  1       -2 0.80850422E-02 0.86735565E+02</pdfrwt>
<totfact> 0.13463173E+04</totfact>
</mgrwt>
</event>
<event>
 4    1  0.4862093E-001  0.8200470E+02  0.7546771E-02  0.1323457E+00
         -2   -1    0    0    0  501 -0.00000000000E+00  0.00000000000E+00  0.52295239713E+02  0.52295239713E+02  0.00000000000E+00 0.  1.
          2   -1    0    0  501    0  0.00000000000E+00 -0.00000000000E+00 -0.27954314422E+03  0.27954314422E+03  0.00000000000E+00 0. -1.
         24    1    1    2    0    0  0.67892062475E+01  0.14541703998E+02 -0.23554812824E+03  0.24941469713E+03  0.80419002446E+02 0. -1.
        -24    1    1    2    0    0 -0.67892062475E+01 -0.14541703998E+02  0.83002237314E+01  0.82423686796E+02  0.80419002446E+02 0.  1.
<mgrwt>
<rscale>  0 0.82004698E+02</rscale>
<asrwt>0</asrwt>
<pdfrwt beam="1">  1        2 0.43006637E-01 0.82004698E+02</pdfrwt>
<pdfrwt beam="2">  1       -2 0.80454215E-02 0.82004698E+02</pdfrwt>
<totfact> 0.10025979E+04</totfact>
</mgrwt>
</event>
<event>
 4    1  0.4862093E-001  0.9494327E+02  0.7546771E-02  0.1291304E+00
         -2   -1    0    0    0  501 -0.00000000000E+00  0.00000000000E+00  0.10900795388E+03  0.10900795388E+03  0.00000000000E+00 0.  1.
          2   -1    0    0  501    0  0.00000000000E+00 -0.00000000000E+00 -0.93735737290E+02  0.93735737290E+02  0.00000000000E+00 0. -1.
         24    1    1    2    0    0 -0.50155636461E+02  0.56049376681E+01  0.42429656402E+02  0.10399276365E+03  0.80419002446E+02 0.  1.
        -24    1    1    2    0    0  0.50155636461E+02 -0.56049376681E+01 -0.27157439809E+02  0.98750927522E+02  0.80419002446E+02 0. -1.
<mgrwt>
<rscale>  0 0.94943254E+02</rscale>
<asrwt>0</asrwt>
<pdfrwt beam="1">  1        2 0.14420883E-01 0.94943265E+02</pdfrwt>
<pdfrwt beam="2">  1       -2 0.16770455E-01 0.94943265E+02</pdfrwt>
<totfact> 0.10534681E+04</totfact>
</mgrwt>
</event>
<event>
 4    1  0.4862093E-001  0.8107285E+02  0.7546771E-02  0.1326034E+00
          1   -1    0    0  501    0  0.00000000000E+00  0.00000000000E+00  0.99564394407E+02  0.99564394407E+02  0.00000000000E+00 0. -1.
         -1   -1    0    0    0  501 -0.00000000000E+00 -0.00000000000E+00 -0.66472644342E+02  0.66472644342E+02  0.00000000000E+00 0.  1.
         24    1    1    2    0    0  0.18540730402E+01 -0.10107078191E+02  0.96622570911E+01  0.81646590761E+02  0.80419002446E+02 0.  1.
        -24    1    1    2    0    0 -0.18540730402E+01  0.10107078191E+02  0.23429492974E+02  0.84390447989E+02  0.80419002446E+02 0. -1.
<mgrwt>
<rscale>  0 0.81072847E+02</rscale>
<asrwt>0</asrwt>
<pdfrwt beam="1">  1        1 0.15317599E-01 0.81072847E+02</pdfrwt>
<pdfrwt beam="2">  1       -1 0.10226561E-01 0.81072847E+02</pdfrwt>
<totfact> 0.18695167E+04</totfact>
</mgrwt>
</event>
<event>
 4    1  0.4862093E-001  0.8628694E+02  0.7546771E-02  0.1312101E+00
         -1   -1    0    0    0  501 -0.00000000000E+00  0.00000000000E+00  0.11062516834E+03  0.11062516834E+03  0.00000000000E+00 0.  1.
          1   -1    0    0  501    0  0.00000000000E+00 -0.00000000000E+00 -0.11109593473E+03  0.11109593473E+03  0.00000000000E+00 0. -1.
         24    1    1    2    0    0 -0.31103197000E+02 -0.32880059164E+01  0.69367723930E+02  0.11071276767E+03  0.80419002446E+02 0.  1.
        -24    1    1    2    0    0  0.31103197000E+02  0.32880059164E+01 -0.69838490320E+02  0.11100833541E+03  0.80419002446E+02 0. -1.
<mgrwt>
<rscale>  0 0.86286939E+02</rscale>
<asrwt>0</asrwt>
<pdfrwt beam="1">  1        1 0.17091682E-01 0.86286939E+02</pdfrwt>
<pdfrwt beam="2">  1       -1 0.17019257E-01 0.86286939E+02</pdfrwt>
<totfact> 0.74970061E+03</totfact>
</mgrwt>
</event>
<event>
 4    1  0.4862093E-001  0.9166209E+02  0.7546771E-02  0.1298876E+00
          2   -1    0    0  501    0  0.00000000000E+00  0.00000000000E+00  0.12221309076E+04  0.12221309076E+04  0.00000000000E+00 0. -1.
         -2   -1    0    0    0  501 -0.00000000000E+00 -0.00000000000E+00 -0.69412590146E+01  0.69412590146E+01  0.00000000000E+00 0.  1.
         24    1    1    2    0    0  0.31918719488E+02 -0.30264065555E+02  0.54747351285E+03  0.55509384931E+03  0.80419002446E+02 0.  0.
        -24    1    1    2    0    0 -0.31918719488E+02  0.30264065555E+02  0.66771613572E+03  0.67397831729E+03  0.80419002446E+02 0.  0.
<mgrwt>
<rscale>  0 0.91662077E+02</rscale>
<asrwt>0</asrwt>
<pdfrwt beam="1">  1        2 0.18801997E+00 0.91662089E+02</pdfrwt>
<pdfrwt beam="2">  1       -2 0.10678870E-02 0.91662089E+02</pdfrwt>
<totfact> 0.34515543E+04</totfact>
</mgrwt>
</event>
<event>
 4    1  0.4862093E-001  0.8543251E+02  0.7546771E-02  0.1314305E+00
          3   -1    0    0  501    0  0.00000000000E+00  0.00000000000E+00  0.69045067269E+03  0.69045067269E+03  0.00000000000E+00 0. -1.
         -3   -1    0    0    0  501 -0.00000000000E+00 -0.00000000000E+00 -0.25660704347E+02  0.25660704347E+02  0.00000000000E+00 0.  1.
         24    1    1    2    0    0 -0.76208955885E+01  0.27810413879E+02  0.57822185789E+02  0.10316064314E+03  0.80419002446E+02 0.  1.
        -24    1    1    2    0    0  0.76208955885E+01 -0.27810413879E+02  0.60696778256E+03  0.61295073390E+03  0.80419002446E+02 0. -1.
<mgrwt>
<rscale>  0 0.85432506E+02</rscale>
<asrwt>0</asrwt>
<pdfrwt beam="1">  1        3 0.10622317E+00 0.85432506E+02</pdfrwt>
<pdfrwt beam="2">  1       -3 0.39478012E-02 0.85432506E+02</pdfrwt>
<totfact> 0.56250635E+02</totfact>
</mgrwt>
</event>
<event>
 4    1  0.4862093E-001  0.1195311E+03  0.7546771E-02  0.1243873E+00
          2   -1    0    0  501    0  0.00000000000E+00  0.00000000000E+00  0.36872862428E+03  0.36872862428E+03  0.00000000000E+00 0. -1.
         -2   -1    0    0    0  501 -0.00000000000E+00 -0.00000000000E+00 -0.38749724657E+02  0.38749724657E+02  0.00000000000E+00 0.  1.
         24    1    1    2    0    0  0.82634281918E+02  0.31496532367E+02  0.16383266221E+03  0.20280239954E+03  0.80419002446E+02 0. -1.
        -24    1    1    2    0    0 -0.82634281918E+02 -0.31496532367E+02  0.16614623741E+03  0.20467594939E+03  0.80419002446E+02 0.  1.
<mgrwt>
<rscale>  0 0.11953107E+03</rscale>
<asrwt>0</asrwt>
<pdfrwt beam="1">  1        2 0.56727478E-01 0.11953108E+03</pdfrwt>
<pdfrwt beam="2">  1       -2 0.59614963E-02 0.11953108E+03</pdfrwt>
<totfact> 0.12203802E+04</totfact>
</mgrwt>
</event>
<event>
 4    1  0.4862093E-001  0.1296533E+03  0.7546771E-02  0.1227971E+00
         -2   -1    0    0    0  501 -0.00000000000E+00  0.00000000000E+00  0.90635548020E+02  0.90635548020E+02  0.00000000000E+00 0.  1.
          2   -1    0    0  501    0  0.00000000000E+00 -0.00000000000E+00 -0.27038935406E+03  0.27038935406E+03  0.00000000000E+00 0. -1.
         24    1    1    2    0    0 -0.18316707905E+02  0.10003635722E+03 -0.19103972081E+03  0.23088127995E+03  0.80419002446E+02 0. -1.
        -24    1    1    2    0    0  0.18316707905E+02 -0.10003635722E+03  0.11285914766E+02  0.13014362213E+03  0.80419002446E+02 0.  1.
<mgrwt>
<rscale>  0 0.12965335E+03</rscale>
<asrwt>0</asrwt>
<pdfrwt beam="1">  1        2 0.41598362E-01 0.12965335E+03</pdfrwt>
<pdfrwt beam="2">  1       -2 0.13943930E-01 0.12965335E+03</pdfrwt>
<totfact> 0.45299942E+03</totfact>
</mgrwt>
</event>
<event>
 4    1  0.4862093E-001  0.1050511E+03  0.7546771E-02  0.1270019E+00
         -1   -1    0    0    0  501 -0.00000000000E+00  0.00000000000E+00  0.61844442046E+02  0.61844442046E+02  0.00000000000E+00 0.  1.
          1   -1    0    0  501    0  0.00000000000E+00 -0.00000000000E+00 -0.23874128608E+03  0.23874128608E+03  0.00000000000E+00 0. -1.
         24    1    1    2    0    0 -0.62231252693E+02 -0.26377690624E+02 -0.12917299109E+02  0.10584225973E+03  0.80419002446E+02 0.  1.
        -24    1    1    2    0    0  0.62231252693E+02  0.26377690624E+02 -0.16397954493E+03  0.19474346840E+03  0.80419002446E+02 0. -1.
<mgrwt>
<rscale>  0 0.10505107E+03</rscale>
<asrwt>0</asrwt>
<pdfrwt beam="1">  1        1 0.36729428E-01 0.10505107E+03</pdfrwt>
<pdfrwt beam="2">  1       -1 0.95145297E-02 0.10505107E+03</pdfrwt>
<totfact> 0.71898397E+03</totfact>
</mgrwt>
</event>
<event>
 4    1  0.4862093E-001  0.9170917E+02  0.7546771E-02  0.1298765E+00
          1   -1    0    0  501    0  0.00000000000E+00  0.00000000000E+00  0.85393034040E+03  0.85393034040E+03  0.00000000000E+00 0. -1.
         -1   -1    0    0    0  501 -0.00000000000E+00 -0.00000000000E+00 -0.99119648253E+01  0.99119648253E+01  0.00000000000E+00 0.  1.
         24    1    1    2    0    0  0.26928712674E+02 -0.34902662982E+02  0.45636767534E+03  0.46549116264E+03  0.80419002446E+02 0. -1.
        -24    1    1    2    0    0 -0.26928712674E+02  0.34902662982E+02  0.38765070024E+03  0.39835114258E+03  0.80419002446E+02 0.  1.
<mgrwt>
<rscale>  0 0.91709157E+02</rscale>
<asrwt>0</asrwt>
<pdfrwt beam="1">  1        1 0.13137384E+00 0.91709169E+02</pdfrwt>
<pdfrwt beam="2">  1       -1 0.15249183E-02 0.91709169E+02</pdfrwt>
<totfact> 0.19486088E+04</totfact>
</mgrwt>
</event>
<event>
 4    1  0.4862093E-001  0.8548041E+02  0.7546771E-02  0.1314181E+00
         -3   -1    0    0    0  501 -0.00000000000E+00  0.00000000000E+00  0.10849359990E+03  0.10849359990E+03  0.00000000000E+00 0.  1.
          3   -1    0    0  501    0  0.00000000000E+00 -0.00000000000E+00 -0.13703358619E+03  0.13703358619E+03  0.00000000000E+00 0. -1.
         24    1    1    2    0    0 -0.23400879458E+02  0.17090457290E+02  0.73273815327E+02  0.11258753420E+03  0.80419002446E+02 0.  1.
        -24    1    1    2    0    0  0.23400879458E+02 -0.17090457290E+02 -0.10181380161E+03  0.13293965189E+03  0.80419002446E+02 0.  0.
<mgrwt>
<rscale>  0 0.85480412E+02</rscale>
<asrwt>0</asrwt>
<pdfrwt beam="1">  1        3 0.21082090E-01 0.85480412E+02</pdfrwt>
<pdfrwt beam="2">  1       -3 0.16691323E-01 0.85480412E+02</pdfrwt>
<totfact> 0.13322869E+03</totfact>
</mgrwt>
</event>
<event>
 4    1  0.4862093E-001  0.1836946E+03  0.7546771E-02  0.1164275E+00
         -2   -1    0    0    0  501 -0.00000000000E+00  0.00000000000E+00  0.52983971878E+02  0.52983971878E+02  0.00000000000E+00 0.  1.
          2   -1    0    0  501    0  0.00000000000E+00 -0.00000000000E+00 -0.63783594742E+03  0.63783594742E+03  0.00000000000E+00 0. -1.
         24    1    1    2    0    0 -0.65497889863E+02  0.15161301594E+03 -0.27895716839E+03  0.33400718245E+03  0.80419002446E+02 0.  1.
        -24    1    1    2    0    0  0.65497889863E+02 -0.15161301594E+03 -0.30589480715E+03  0.35681273685E+03  0.80419002446E+02 0. -1.
<mgrwt>
<rscale>  0 0.18369460E+03</rscale>
<asrwt>0</asrwt>
<pdfrwt beam="1">  1        2 0.98128603E-01 0.18369462E+03</pdfrwt>
<pdfrwt beam="2">  1       -2 0.81513806E-02 0.18369462E+03</pdfrwt>
<totfact> 0.42351137E+03</totfact>
</mgrwt>
</event>
<event>
 4    1  0.4862093E-001  0.9408523E+02  0.7546771E-02  0.1293250E+00
          3   -1    0    0  501    0  0.00000000000E+00  0.00000000000E+00  0.16233348634E+03  0.16233348634E+03  0.00000000000E+00 0. -1.
         -3   -1    0    0    0  501 -0.00000000000E+00 -0.00000000000E+00 -0.93561474469E+02  0.93561474469E+02  0.00000000000E+00 0.  1.
         24    1    1    2    0    0  0.43826616644E+02  0.21541634599E+02 -0.48254162219E+02  0.10573785733E+03  0.80419002446E+02 0.  1.
        -24    1    1    2    0    0 -0.43826616644E+02 -0.21541634599E+02  0.11702617409E+03  0.15015710347E+03  0.80419002446E+02 0. -1.
<mgrwt>
<rscale>  0 0.94085229E+02</rscale>
<asrwt>0</asrwt>
<pdfrwt beam="1">  1        3 0.24974383E-01 0.94085229E+02</pdfrwt>
<pdfrwt beam="2">  1       -3 0.14394073E-01 0.94085229E+02</pdfrwt>
<totfact> 0.12930194E+03</totfact>
</mgrwt>
</event>
<event>
 4    1  0.4862093E-001  0.8054433E+02  0.7546771E-02  0.1327514E+00
          1   -1    0    0  501    0  0.00000000000E+00  0.00000000000E+00  0.12120357306E+02  0.12120357306E+02  0.00000000000E+00 0. -1.
         -1   -1    0    0    0  501 -0.00000000000E+00 -0.00000000000E+00 -0.62885224383E+03  0.62885224383E+03  0.00000000000E+00 0.  1.
         24    1    1    2    0    0  0.41223586696E+01  0.17828750444E+01 -0.43201322469E+03  0.43945740948E+03  0.80419002446E+02 0.  1.
        -24    1    1    2    0    0 -0.41223586696E+01 -0.17828750444E+01 -0.18471866183E+03  0.20151519165E+03  0.80419002446E+02 0.  0.
<mgrwt>
<rscale>  0 0.80544326E+02</rscale>
<asrwt>0</asrwt>
<pdfrwt beam="1">  1        1 0.18646706E-02 0.80544326E+02</pdfrwt>
<pdfrwt beam="2">  1       -1 0.96746488E-01 0.80544326E+02</pdfrwt>
<totfact> 0.65663080E+03</totfact>
</mgrwt>
</event>
<event>
 4    1  0.4862093E-001  0.8895717E+02  0.7546771E-02  0.1305397E+00
         -2   -1    0    0    0  501 -0.00000000000E+00  0.00000000000E+00  0.32257107812E+02  0.32257107812E+02  0.00000000000E+00 0.  1.
          2   -1    0    0  501    0  0.00000000000E+00 -0.00000000000E+00 -0.41768991723E+03  0.41768991723E+03  0.00000000000E+00 0. -1.
         24    1    1    2    0    0  0.36483308898E+02 -0.10729868123E+02 -0.33723795905E+03  0.34877330585E+03  0.80419002446E+02 0. -1.
        -24    1    1    2    0    0 -0.36483308898E+02  0.10729868123E+02 -0.48194850372E+02  0.10117371919E+03  0.80419002446E+02 0.  1.
<mgrwt>
<rscale>  0 0.88957169E+02</rscale>
<asrwt>0</asrwt>
<pdfrwt beam="1">  1        2 0.64259984E-01 0.88957169E+02</pdfrwt>
<pdfrwt beam="2">  1       -2 0.49626322E-02 0.88957169E+02</pdfrwt>
<totfact> 0.13723260E+04</totfact>
</mgrwt>
</event>
<event>
 4    1  0.4862093E-001  0.8695933E+02  0.7546771E-02  0.1310387E+00
         -2   -1    0    0    0  501 -0.00000000000E+00  0.00000000000E+00  0.12695649675E+02  0.12695649675E+02  0.00000000000E+00 0.  1.
          2   -1    0    0  501    0  0.00000000000E+00 -0.00000000000E+00 -0.11335720373E+04  0.11335720373E+04  0.00000000000E+00 0. -1.
         24    1    1    2    0    0  0.32900049926E+02  0.35065445744E+01 -0.95525783372E+03  0.95920772202E+03  0.80419002446E+02 0. -1.
        -24    1    1    2    0    0 -0.32900049926E+02 -0.35065445744E+01 -0.16561855394E+03  0.18705996500E+03  0.80419002446E+02 0.  1.
<mgrwt>
<rscale>  0 0.86959330E+02</rscale>
<asrwt>0</asrwt>
<pdfrwt beam="1">  1        2 0.17439562E+00 0.86959330E+02</pdfrwt>
<pdfrwt beam="2">  1       -2 0.19531777E-02 0.86959330E+02</pdfrwt>
<totfact> 0.16248004E+04</totfact>
</mgrwt>
</event>
<event>
 4    1  0.4862093E-001  0.8688541E+02  0.7546771E-02  0.1310574E+00
         -2   -1    0    0    0  501 -0.00000000000E+00  0.00000000000E+00  0.15921985440E+02  0.15921985440E+02  0.00000000000E+00 0.  1.
          2   -1    0    0  501    0  0.00000000000E+00 -0.00000000000E+00 -0.69393222141E+03  0.69393222141E+03  0.00000000000E+00 0. -1.
         24    1    1    2    0    0  0.32441603414E+02 -0.54222981890E+01 -0.53876012435E+03  0.54572112521E+03  0.80419002446E+02 0. -1.
        -24    1    1    2    0    0 -0.32441603414E+02  0.54222981890E+01 -0.13925011162E+03  0.16413308164E+03  0.80419002446E+02 0.  1.
<mgrwt>
<rscale>  0 0.86885412E+02</rscale>
<asrwt>0</asrwt>
<pdfrwt beam="1">  1        2 0.10675883E+00 0.86885412E+02</pdfrwt>
<pdfrwt beam="2">  1       -2 0.24495356E-02 0.86885412E+02</pdfrwt>
<totfact> 0.22009010E+04</totfact>
</mgrwt>
</event>
<event>
 4    1  0.4862093E-001  0.9188483E+02  0.7546771E-02  0.1298350E+00
          1   -1    0    0  501    0  0.00000000000E+00  0.00000000000E+00  0.26341910436E+03  0.26341910436E+03  0.00000000000E+00 0. -1.
         -1   -1    0    0    0  501 -0.00000000000E+00 -0.00000000000E+00 -0.84209780549E+02  0.84209780549E+02  0.00000000000E+00 0.  1.
         24    1    1    2    0    0 -0.43907360646E+02  0.69101753707E+01 -0.47189848273E+02  0.10329426207E+03  0.80419002446E+02 0.  1.
        -24    1    1    2    0    0  0.43907360646E+02 -0.69101753707E+01  0.22639917209E+03  0.24433462284E+03  0.80419002446E+02 0. -1.
<mgrwt>
<rscale>  0 0.91884834E+02</rscale>
<asrwt>0</asrwt>
<pdfrwt beam="1">  1        1 0.40526016E-01 0.91884834E+02</pdfrwt>
<pdfrwt beam="2">  1       -1 0.12955351E-01 0.91884834E+02</pdfrwt>
<totfact> 0.39478614E+03</totfact>
</mgrwt>
</event>
<event>
 4    1  0.4862093E-001  0.9462509E+02  0.7546771E-02  0.1292023E+00
          2   -1    0    0  501    0  0.00000000000E+00  0.00000000000E+00  0.10167824788E+03  0.10167824788E+03  0.00000000000E+00 0. -1.
         -2   -1    0    0    0  501 -0.00000000000E+00 -0.00000000000E+00 -0.17064573055E+03  0.17064573055E+03  0.00000000000E+00 0.  1.
         24    1    1    2    0    0  0.49522275048E+02  0.58511909244E+01  0.60239715036E+02  0.11217277470E+03  0.80419002446E+02 0. -1.
        -24    1    1    2    0    0 -0.49522275048E+02 -0.58511909244E+01 -0.12920719771E+03  0.16015120373E+03  0.80419002446E+02 0.  1.
<mgrwt>
<rscale>  0 0.94625092E+02</rscale>
<asrwt>0</asrwt>
<pdfrwt beam="1">  1        2 0.15642807E-01 0.94625092E+02</pdfrwt>
<pdfrwt beam="2">  1       -2 0.26253189E-01 0.94625092E+02</pdfrwt>
<totfact> 0.44944276E+03</totfact>
</mgrwt>
</event>
<event>
 4    1  0.4862093E-001  0.1121238E+03  0.7546771E-02  0.1256687E+00
         -1   -1    0    0    0  501 -0.00000000000E+00  0.00000000000E+00  0.87327504579E+02  0.87327504579E+02  0.00000000000E+00 0.  1.
          1   -1    0    0  501    0  0.00000000000E+00 -0.00000000000E+00 -0.26476005488E+03  0.26476005488E+03  0.00000000000E+00 0. -1.
         24    1    1    2    0    0 -0.51919370262E+01  0.77958771223E+02  0.30195943751E+02  0.11611863414E+03  0.80419002446E+02 0.  1.
        -24    1    1    2    0    0  0.51919370262E+01 -0.77958771223E+02 -0.20762849405E+03  0.23596892532E+03  0.80419002446E+02 0. -1.
<mgrwt>
<rscale>  0 0.11212378E+03</rscale>
<asrwt>0</asrwt>
<pdfrwt beam="1">  1        1 0.40732316E-01 0.11212378E+03</pdfrwt>
<pdfrwt beam="2">  1       -1 0.13435001E-01 0.11212378E+03</pdfrwt>
<totfact> 0.37530815E+03</totfact>
</mgrwt>
</event>
<event>
 4    1  0.4862093E-001  0.8840752E+02  0.7546771E-02  0.1306755E+00
          2   -1    0    0  501    0  0.00000000000E+00  0.00000000000E+00  0.24875944270E+03  0.24875944270E+03  0.00000000000E+00 0. -1.
         -2   -1    0    0    0  501 -0.00000000000E+00 -0.00000000000E+00 -0.35193927540E+02  0.35193927540E+02  0.00000000000E+00 0.  1.
         24    1    1    2    0    0 -0.36096734556E+02  0.67601872877E+01  0.15327819354E+03  0.17694658784E+03  0.80419002446E+02 0. -1.
        -24    1    1    2    0    0  0.36096734556E+02 -0.67601872877E+01  0.60287321620E+02  0.10700678240E+03  0.80419002446E+02 0.  1.
<mgrwt>
<rscale>  0 0.88407524E+02</rscale>
<asrwt>0</asrwt>
<pdfrwt beam="1">  1        2 0.38270682E-01 0.88407524E+02</pdfrwt>
<pdfrwt beam="2">  1       -2 0.54144506E-02 0.88407524E+02</pdfrwt>
<totfact> 0.20725835E+04</totfact>
</mgrwt>
</event>
<event>
 4    1  0.4862093E-001  0.9295508E+02  0.7546771E-02  0.1295849E+00
          1   -1    0    0  501    0  0.00000000000E+00  0.00000000000E+00  0.55595742208E+03  0.55595742208E+03  0.00000000000E+00 0. -1.
         -1   -1    0    0    0  501 -0.00000000000E+00 -0.00000000000E+00 -0.49689400613E+02  0.49689400613E+02  0.00000000000E+00 0.  1.
         24    1    1    2    0    0 -0.19725117273E+02 -0.42241581766E+02  0.20975038854E+01  0.92978744660E+02  0.80419002446E+02 0.  1.
        -24    1    1    2    0    0  0.19725117273E+02  0.42241581766E+02  0.50417051759E+03  0.51266807804E+03  0.80419002446E+02 0. -1.
<mgrwt>
<rscale>  0 0.92955083E+02</rscale>
<asrwt>0</asrwt>
<pdfrwt beam="1">  1        1 0.85531907E-01 0.92955083E+02</pdfrwt>
<pdfrwt beam="2">  1       -1 0.76445236E-02 0.92955083E+02</pdfrwt>
<totfact> 0.34503625E+03</totfact>
</mgrwt>
</event>
<event>
 4    1  0.4862093E-001  0.1096654E+03  0.7546771E-02  0.1261191E+00
         -1   -1    0    0    0  501 -0.00000000000E+00  0.00000000000E+00  0.48858339386E+03  0.48858339386E+03  0.00000000000E+00 0.  1.
          1   -1    0    0  501    0  0.00000000000E+00 -0.00000000000E+00 -0.24663899248E+02  0.24663899248E+02  0.00000000000E+00 0. -1.
         24    1    1    2    0    0 -0.74520845746E+02 -0.24338450466E+01  0.22053692182E+03  0.24629865995E+03  0.80419002446E+02 0. -1.
        -24    1    1    2    0    0  0.74520845746E+02  0.24338450466E+01  0.24338257279E+03  0.26694863316E+03  0.80419002446E+02 0.  1.
<mgrwt>
<rscale>  0 0.10966540E+03</rscale>
<asrwt>0</asrwt>
<pdfrwt beam="1">  1        1 0.37944464E-02 0.10966541E+03</pdfrwt>
<pdfrwt beam="2">  1       -1 0.75166669E-01 0.10966541E+03</pdfrwt>
<totfact> 0.42839477E+03</totfact>
</mgrwt>
</event>
<event>
 4    1  0.4862093E-001  0.9244311E+02  0.7546771E-02  0.1297041E+00
         -2   -1    0    0    0  501 -0.00000000000E+00  0.00000000000E+00  0.22606951154E+02  0.22606951154E+02  0.00000000000E+00 0.  1.
          2   -1    0    0  501    0  0.00000000000E+00 -0.00000000000E+00 -0.41091259397E+03  0.41091259397E+03  0.00000000000E+00 0. -1.
         24    1    1    2    0    0 -0.45155740366E+02  0.62822490621E+01 -0.13281919753E+03  0.16182293635E+03  0.80419002446E+02 0.  0.
        -24    1    1    2    0    0  0.45155740366E+02 -0.62822490621E+01 -0.25548644529E+03  0.27169660878E+03  0.80419002446E+02 0. -1.
<mgrwt>
<rscale>  0 0.92443094E+02</rscale>
<asrwt>0</asrwt>
<pdfrwt beam="1">  1        2 0.63217313E-01 0.92443106E+02</pdfrwt>
<pdfrwt beam="2">  1       -2 0.34779930E-02 0.92443106E+02</pdfrwt>
<totfact> 0.23659219E+04</totfact>
</mgrwt>
</event>
<event>
 4    1  0.4862093E-001  0.2295492E+03  0.7546771E-02  0.1126957E+00
          2   -1    0    0  501    0  0.00000000000E+00  0.00000000000E+00  0.18261115968E+04  0.18261115968E+04  0.00000000000E+00 0. -1.
         -2   -1    0    0    0  501 -0.00000000000E+00 -0.00000000000E+00 -0.61680983205E+02  0.61680983205E+02  0.00000000000E+00 0.  1.
         24    1    1    2    0    0 -0.20743762415E+03  0.56526755276E+02  0.15707978834E+04  0.15874819206E+04  0.80419002446E+02 0. -1.
        -24    1    1    2    0    0  0.20743762415E+03 -0.56526755276E+02  0.19363273026E+03  0.30031065941E+03  0.80419002446E+02 0.  1.
<mgrwt>
<rscale>  0 0.22954925E+03</rscale>
<asrwt>0</asrwt>
<pdfrwt beam="1">  1        2 0.28094020E+00 0.22954925E+03</pdfrwt>
<pdfrwt beam="2">  1       -2 0.94893834E-02 0.22954925E+03</pdfrwt>
<totfact> 0.66688721E+02</totfact>
</mgrwt>
</event>
<event>
 4    1  0.4862093E-001  0.8266863E+02  0.7546771E-02  0.1321644E+00
         -1   -1    0    0    0  501 -0.00000000000E+00  0.00000000000E+00  0.16738409045E+03  0.16738409045E+03  0.00000000000E+00 0.  1.
          1   -1    0    0  501    0  0.00000000000E+00 -0.00000000000E+00 -0.12231808112E+04  0.12231808112E+04  0.00000000000E+00 0. -1.
         24    1    1    2    0    0  0.14128747870E+02 -0.12933119671E+02  0.15568160014E+03  0.17626929307E+03  0.80419002446E+02 0.  1.
        -24    1    1    2    0    0 -0.14128747870E+02  0.12933119671E+02 -0.12114783209E+04  0.12142956086E+04  0.80419002446E+02 0. -1.
<mgrwt>
<rscale>  0 0.82668634E+02</rscale>
<asrwt>0</asrwt>
<pdfrwt beam="1">  1        1 0.18818167E+00 0.82668634E+02</pdfrwt>
<pdfrwt beam="2">  1       -1 0.25751398E-01 0.82668634E+02</pdfrwt>
<totfact> 0.15756820E+02</totfact>
</mgrwt>
</event>
<event>
 4    1  0.4862093E-001  0.8945881E+02  0.7546771E-02  0.1304168E+00
          2   -1    0    0  501    0  0.00000000000E+00  0.00000000000E+00  0.26978994195E+03  0.26978994195E+03  0.00000000000E+00 0. -1.
         -2   -1    0    0    0  501 -0.00000000000E+00 -0.00000000000E+00 -0.37774660663E+02  0.37774660663E+02  0.00000000000E+00 0.  1.
         24    1    1    2    0    0 -0.27747660111E+02 -0.27671826641E+02  0.18726850409E+03  0.20753884265E+03  0.80419002446E+02 0. -1.
        -24    1    1    2    0    0  0.27747660111E+02  0.27671826641E+02  0.44746777194E+02  0.10002575996E+03  0.80419002446E+02 0.  1.
<mgrwt>
<rscale>  0 0.89458809E+02</rscale>
<asrwt>0</asrwt>
<pdfrwt beam="1">  1        2 0.41506144E-01 0.89458809E+02</pdfrwt>
<pdfrwt beam="2">  1       -2 0.58114864E-02 0.89458809E+02</pdfrwt>
<totfact> 0.17148138E+04</totfact>
</mgrwt>
</event>
<event>
 4    1  0.4862093E-001  0.1081095E+03  0.7546771E-02  0.1264111E+00
          2   -1    0    0  501    0  0.00000000000E+00  0.00000000000E+00  0.13654417969E+04  0.13654417969E+04  0.00000000000E+00 0. -1.
         -2   -1    0    0    0  501 -0.00000000000E+00 -0.00000000000E+00 -0.88513181690E+01  0.88513181690E+01  0.00000000000E+00 0.  1.
         24    1    1    2    0    0 -0.64813301120E+02 -0.31932560983E+02  0.55355422962E+03  0.56401237002E+03  0.80419002446E+02 0. -1.
        -24    1    1    2    0    0  0.64813301120E+02  0.31932560983E+02  0.80303624907E+03  0.81028074500E+03  0.80419002446E+02 0.  0.
<mgrwt>
<rscale>  0 0.10810953E+03</rscale>
<asrwt>0</asrwt>
<pdfrwt beam="1">  1        2 0.21006780E+00 0.10810955E+03</pdfrwt>
<pdfrwt beam="2">  1       -2 0.13617423E-02 0.10810955E+03</pdfrwt>
<totfact> 0.20763308E+04</totfact>
</mgrwt>
</event>
<event>
 4    1  0.4862093E-001  0.8620567E+02  0.7546771E-02  0.1312309E+00
          2   -1    0    0  501    0  0.00000000000E+00  0.00000000000E+00  0.82953502709E+03  0.82953502709E+03  0.00000000000E+00 0. -1.
         -2   -1    0    0    0  501 -0.00000000000E+00 -0.00000000000E+00 -0.12074170725E+03  0.12074170725E+03  0.00000000000E+00 0.  1.
         24    1    1    2    0    0  0.27643373489E+02  0.14143744265E+02  0.81156870041E+03  0.81613428616E+03  0.80419002446E+02 0. -1.
        -24    1    1    2    0    0 -0.27643373489E+02 -0.14143744265E+02 -0.10277538057E+03  0.13414244818E+03  0.80419002446E+02 0.  1.
<mgrwt>
<rscale>  0 0.86205670E+02</rscale>
<asrwt>0</asrwt>
<pdfrwt beam="1">  1        2 0.12762077E+00 0.86205670E+02</pdfrwt>
<pdfrwt beam="2">  1       -2 0.18575648E-01 0.86205670E+02</pdfrwt>
<totfact> 0.81319756E+02</totfact>
</mgrwt>
</event>
<event>
 4    1  0.4862093E-001  0.9193522E+02  0.7546771E-02  0.1298232E+00
          2   -1    0    0  501    0  0.00000000000E+00  0.00000000000E+00  0.22046501563E+03  0.22046501563E+03  0.00000000000E+00 0. -1.
         -2   -1    0    0    0  501 -0.00000000000E+00 -0.00000000000E+00 -0.18468257736E+03  0.18468257736E+03  0.00000000000E+00 0.  1.
         24    1    1    2    0    0  0.44500925821E+02  0.21299810225E+01  0.19821761885E+03  0.21850013637E+03  0.80419002446E+02 0. -1.
        -24    1    1    2    0    0 -0.44500925821E+02 -0.21299810225E+01 -0.16243518058E+03  0.18664745662E+03  0.80419002446E+02 0.  1.
<mgrwt>
<rscale>  0 0.91935223E+02</rscale>
<asrwt>0</asrwt>
<pdfrwt beam="1">  1        2 0.33917695E-01 0.91935223E+02</pdfrwt>
<pdfrwt beam="2">  1       -2 0.28412704E-01 0.91935223E+02</pdfrwt>
<totfact> 0.16649265E+03</totfact>
</mgrwt>
</event>
<event>
 4    1  0.4862093E-001  0.9192254E+02  0.7546771E-02  0.1298262E+00
          2   -1    0    0  501    0  0.00000000000E+00  0.00000000000E+00  0.62915313214E+03  0.62915313214E+03  0.00000000000E+00 0. -1.
         -2   -1    0    0    0  501 -0.00000000000E+00 -0.00000000000E+00 -0.43285326527E+02  0.43285326527E+02  0.00000000000E+00 0.  1.
         24    1    1    2    0    0  0.39618605285E+02 -0.20320048511E+02  0.57216287667E+03  0.57949988063E+03  0.80419002446E+02 0. -1.
        -24    1    1    2    0    0 -0.39618605285E+02  0.20320048511E+02  0.13704928945E+02  0.92938578039E+02  0.80419002446E+02 0.  1.
<mgrwt>
<rscale>  0 0.91922545E+02</rscale>
<asrwt>0</asrwt>
<pdfrwt beam="1">  1        2 0.96792782E-01 0.91922545E+02</pdfrwt>
<pdfrwt beam="2">  1       -2 0.66592815E-02 0.91922545E+02</pdfrwt>
<totfact> 0.56738858E+03</totfact>
</mgrwt>
</event>
<event>
 4    1  0.4862093E-001  0.8061508E+02  0.7546771E-02  0.1327315E+00
          2   -1    0    0  501    0  0.00000000000E+00  0.00000000000E+00  0.11246231324E+03  0.11246231324E+03  0.00000000000E+00 0. -1.
         -2   -1    0    0    0  501 -0.00000000000E+00 -0.00000000000E+00 -0.63617628227E+02  0.63617628227E+02  0.00000000000E+00 0.  1.
         24    1    1    2    0    0 -0.32693131633E+01 -0.45701345905E+01  0.51076916359E+02  0.95433966060E+02  0.80419002446E+02 0. -1.
        -24    1    1    2    0    0  0.32693131633E+01  0.45701345905E+01 -0.22322313427E+01  0.80645975410E+02  0.80419002446E+02 0.  0.
<mgrwt>
<rscale>  0 0.80615076E+02</rscale>
<asrwt>0</asrwt>
<pdfrwt beam="1">  1        2 0.17301894E-01 0.80615076E+02</pdfrwt>
<pdfrwt beam="2">  1       -2 0.97873275E-02 0.80615076E+02</pdfrwt>
<totfact> 0.19787980E+04</totfact>
</mgrwt>
</event>
<event>
 4    1  0.4862093E-001  0.8386169E+02  0.7546771E-02  0.1318436E+00
          2   -1    0    0  501    0  0.00000000000E+00  0.00000000000E+00  0.10332902124E+04  0.10332902124E+04  0.00000000000E+00 0. -1.
         -2   -1    0    0    0  501 -0.00000000000E+00 -0.00000000000E+00 -0.69968081077E+01  0.69968081077E+01  0.00000000000E+00 0.  1.
         24    1    1    2    0    0 -0.11939769212E+02 -0.20567105302E+02  0.42729599722E+03  0.43544764221E+03  0.80419002446E+02 0.  1.
        -24    1    1    2    0    0  0.11939769212E+02  0.20567105302E+02  0.59899740709E+03  0.60483937832E+03  0.80419002446E+02 0. -1.
<mgrwt>
<rscale>  0 0.83861681E+02</rscale>
<asrwt>0</asrwt>
<pdfrwt beam="1">  1        2 0.15896760E+00 0.83861692E+02</pdfrwt>
<pdfrwt beam="2">  1       -2 0.10764328E-02 0.83861692E+02</pdfrwt>
<totfact> 0.43067908E+04</totfact>
</mgrwt>
</event>
<event>
 4    1  0.4862093E-001  0.8590034E+02  0.7546771E-02  0.1313095E+00
          1   -1    0    0  501    0  0.00000000000E+00  0.00000000000E+00  0.18221275117E+03  0.18221275117E+03  0.00000000000E+00 0. -1.
         -1   -1    0    0    0  501 -0.00000000000E+00 -0.00000000000E+00 -0.42856992724E+02  0.42856992724E+02  0.00000000000E+00 0.  1.
         24    1    1    2    0    0  0.94535563083E+01 -0.28675422436E+02  0.96091912599E+02  0.12888956979E+03  0.80419002446E+02 0.  1.
        -24    1    1    2    0    0 -0.94535563083E+01  0.28675422436E+02  0.43263845844E+02  0.96180174102E+02  0.80419002446E+02 0.  0.
<mgrwt>
<rscale>  0 0.85900334E+02</rscale>
<asrwt>0</asrwt>
<pdfrwt beam="1">  1        1 0.28032731E-01 0.85900345E+02</pdfrwt>
<pdfrwt beam="2">  1       -1 0.65933836E-02 0.85900345E+02</pdfrwt>
<totfact> 0.17009063E+04</totfact>
</mgrwt>
</event>
<event>
 4    1  0.4862093E-001  0.8107706E+02  0.7546771E-02  0.1326022E+00
         -4   -1    0    0    0  501 -0.00000000000E+00  0.00000000000E+00  0.93976870825E+01  0.93976870825E+01  0.00000000000E+00 0.  1.
          4   -1    0    0  501    0  0.00000000000E+00 -0.00000000000E+00 -0.70309947936E+03  0.70309947936E+03  0.00000000000E+00 0. -1.
         24    1    1    2    0    0 -0.33884522363E+01  0.97359523346E+01 -0.32128754485E+03  0.33135958234E+03  0.80419002446E+02 0.  0.
        -24    1    1    2    0    0  0.33884522363E+01 -0.97359523346E+01 -0.37241424742E+03  0.38113758410E+03  0.80419002446E+02 0.  0.
<mgrwt>
<rscale>  0 0.81077050E+02</rscale>
<asrwt>0</asrwt>
<pdfrwt beam="1">  1        4 0.10816915E+00 0.81077060E+02</pdfrwt>
<pdfrwt beam="2">  1       -4 0.14457980E-02 0.81077060E+02</pdfrwt>
<totfact> 0.17336625E+03</totfact>
</mgrwt>
</event>
<event>
 4    1  0.4862093E-001  0.8728247E+02  0.7546771E-02  0.1309569E+00
         -1   -1    0    0    0  501 -0.00000000000E+00  0.00000000000E+00  0.20722313811E+03  0.20722313811E+03  0.00000000000E+00 0.  1.
          1   -1    0    0  501    0  0.00000000000E+00 -0.00000000000E+00 -0.47487651994E+02  0.47487651994E+02  0.00000000000E+00 0. -1.
         24    1    1    2    0    0 -0.32453520666E+02  0.98884836018E+01  0.14038933089E+03  0.16530999151E+03  0.80419002446E+02 0.  1.
        -24    1    1    2    0    0  0.32453520666E+02 -0.98884836018E+01  0.19346155219E+02  0.89400798585E+02  0.80419002446E+02 0. -1.
<mgrwt>
<rscale>  0 0.87282467E+02</rscale>
<asrwt>0</asrwt>
<pdfrwt beam="1">  1        1 0.73057927E-02 0.87282467E+02</pdfrwt>
<pdfrwt beam="2">  1       -1 0.31880482E-01 0.87282467E+02</pdfrwt>
<totfact> 0.82227115E+03</totfact>
</mgrwt>
</event>
<event>
 4    1  0.4862093E-001  0.1002645E+03  0.7546771E-02  0.1279741E+00
          2   -1    0    0  501    0  0.00000000000E+00  0.00000000000E+00  0.19474316165E+04  0.19474316165E+04  0.00000000000E+00 0. -1.
         -2   -1    0    0    0  501 -0.00000000000E+00 -0.00000000000E+00 -0.74408729871E+01  0.74408729871E+01  0.00000000000E+00 0.  1.
         24    1    1    2    0    0  0.94196064336E+01 -0.59135698147E+02  0.15108994101E+04  0.15142225738E+04  0.80419002446E+02 0. -1.
        -24    1    1    2    0    0 -0.94196064336E+01  0.59135698147E+02  0.42909133339E+03  0.44064991561E+03  0.80419002446E+02 0.  1.
<mgrwt>
<rscale>  0 0.10026453E+03</rscale>
<asrwt>0</asrwt>
<pdfrwt beam="1">  1        2 0.29960446E+00 0.10026453E+03</pdfrwt>
<pdfrwt beam="2">  1       -2 0.11447512E-02 0.10026453E+03</pdfrwt>
<totfact> 0.13372022E+04</totfact>
</mgrwt>
</event>
<event>
 4    1  0.4862093E-001  0.8382288E+02  0.7546771E-02  0.1318540E+00
          2   -1    0    0  501    0  0.00000000000E+00  0.00000000000E+00  0.15443011595E+04  0.15443011595E+04  0.00000000000E+00 0. -1.
         -2   -1    0    0    0  501 -0.00000000000E+00 -0.00000000000E+00 -0.10040943448E+02  0.10040943448E+02  0.00000000000E+00 0.  1.
         24    1    1    2    0    0  0.21604019545E+02 -0.96086603187E+01  0.13418554889E+04  0.13444710593E+04  0.80419002446E+02 0. -1.
        -24    1    1    2    0    0 -0.21604019545E+02  0.96086603187E+01  0.19240472714E+03  0.20987104372E+03  0.80419002446E+02 0.  1.
<mgrwt>
<rscale>  0 0.83822885E+02</rscale>
<asrwt>0</asrwt>
<pdfrwt beam="1">  1        2 0.23758461E+00 0.83822885E+02</pdfrwt>
<pdfrwt beam="2">  1       -2 0.15447618E-02 0.83822885E+02</pdfrwt>
<totfact> 0.13789286E+04</totfact>
</mgrwt>
</event>
<event>
 4    1  0.4862093E-001  0.1063967E+03  0.7546771E-02  0.1267392E+00
         -2   -1    0    0    0  501 -0.00000000000E+00  0.00000000000E+00  0.88151175985E+02  0.88151175985E+02  0.00000000000E+00 0.  1.
          2   -1    0    0  501    0  0.00000000000E+00 -0.00000000000E+00 -0.28180993198E+03  0.28180993198E+03  0.00000000000E+00 0. -1.
         24    1    1    2    0    0  0.69494630131E+02 -0.48517688761E+01 -0.23330283696E+03  0.25641855036E+03  0.80419002446E+02 0. -1.
        -24    1    1    2    0    0 -0.69494630131E+02  0.48517688761E+01  0.39644080966E+02  0.11354255761E+03  0.80419002446E+02 0.  1.
<mgrwt>
<rscale>  0 0.10639671E+03</rscale>
<asrwt>0</asrwt>
<pdfrwt beam="1">  1        2 0.43355373E-01 0.10639671E+03</pdfrwt>
<pdfrwt beam="2">  1       -2 0.13561720E-01 0.10639671E+03</pdfrwt>
<totfact> 0.44825221E+03</totfact>
</mgrwt>
</event>
<event>
 4    1  0.4862093E-001  0.8202148E+02  0.7546771E-02  0.1323411E+00
          4   -1    0    0  501    0  0.00000000000E+00  0.00000000000E+00  0.67456913665E+02  0.67456913665E+02  0.00000000000E+00 0. -1.
         -4   -1    0    0    0  501 -0.00000000000E+00 -0.00000000000E+00 -0.10657440942E+03  0.10657440942E+03  0.00000000000E+00 0.  1.
         24    1    1    2    0    0 -0.15456845363E+02 -0.46253542745E+01  0.24916966278E+01  0.82059322915E+02  0.80419002446E+02 0. -1.
        -24    1    1    2    0    0  0.15456845363E+02  0.46253542745E+01 -0.41609192387E+02  0.91972000175E+02  0.80419002446E+02 0.  1.
<mgrwt>
<rscale>  0 0.82021485E+02</rscale>
<asrwt>0</asrwt>
<pdfrwt beam="1">  1        4 0.10377987E-01 0.82021485E+02</pdfrwt>
<pdfrwt beam="2">  1       -4 0.16396063E-01 0.82021485E+02</pdfrwt>
<totfact> 0.32923536E+03</totfact>
</mgrwt>
</event>
<event>
 4    1  0.4862093E-001  0.1062841E+03  0.7546771E-02  0.1267610E+00
          2   -1    0    0  501    0  0.00000000000E+00  0.00000000000E+00  0.26230586996E+03  0.26230586996E+03  0.00000000000E+00 0. -1.
         -2   -1    0    0    0  501 -0.00000000000E+00 -0.00000000000E+00 -0.44779924888E+02  0.44779924888E+02  0.00000000000E+00 0.  1.
         24    1    1    2    0    0 -0.47085499180E+02  0.51108285571E+02  0.13880679604E+03  0.17482460830E+03  0.80419002446E+02 0. -1.
        -24    1    1    2    0    0  0.47085499180E+02 -0.51108285571E+02  0.78719149028E+02  0.13226118654E+03  0.80419002446E+02 0.  1.
<mgrwt>
<rscale>  0 0.10628413E+03</rscale>
<asrwt>0</asrwt>
<pdfrwt beam="1">  1        2 0.40354748E-01 0.10628413E+03</pdfrwt>
<pdfrwt beam="2">  1       -2 0.68892194E-02 0.10628413E+03</pdfrwt>
<totfact> 0.13894709E+04</totfact>
</mgrwt>
</event>
<event>
 4    1  0.4862093E-001  0.9120424E+02  0.7546771E-02  0.1299961E+00
          2   -1    0    0  501    0  0.00000000000E+00  0.00000000000E+00  0.32081846642E+03  0.32081846642E+03  0.00000000000E+00 0. -1.
         -2   -1    0    0    0  501 -0.00000000000E+00 -0.00000000000E+00 -0.29436719124E+02  0.29436719124E+02  0.00000000000E+00 0.  1.
         24    1    1    2    0    0  0.40820196563E+02  0.13590775965E+02  0.20615223598E+03  0.22542616972E+03  0.80419002446E+02 0. -1.
        -24    1    1    2    0    0 -0.40820196563E+02 -0.13590775965E+02  0.85229511313E+02  0.12482901583E+03  0.80419002446E+02 0.  1.
<mgrwt>
<rscale>  0 0.91204241E+02</rscale>
<asrwt>0</asrwt>
<pdfrwt beam="1">  1        2 0.49356685E-01 0.91204241E+02</pdfrwt>
<pdfrwt beam="2">  1       -2 0.45287262E-02 0.91204241E+02</pdfrwt>
<totfact> 0.20777675E+04</totfact>
</mgrwt>
</event>
<event>
 4    1  0.4862093E-001  0.8388428E+02  0.7546771E-02  0.1318376E+00
          3   -1    0    0  501    0  0.00000000000E+00  0.00000000000E+00  0.27439027479E+03  0.27439027479E+03  0.00000000000E+00 0. -1.
         -3   -1    0    0    0  501 -0.00000000000E+00 -0.00000000000E+00 -0.25644506800E+02  0.25644506800E+02  0.00000000000E+00 0.  1.
         24    1    1    2    0    0 -0.22885461050E+02  0.67537087166E+01  0.12406104673E+03  0.14975886010E+03  0.80419002446E+02 0.  0.
        -24    1    1    2    0    0  0.22885461050E+02 -0.67537087166E+01  0.12468472125E+03  0.15027592148E+03  0.80419002446E+02 0. -1.
<mgrwt>
<rscale>  0 0.83884283E+02</rscale>
<asrwt>0</asrwt>
<pdfrwt beam="1">  1        3 0.42213886E-01 0.83884283E+02</pdfrwt>
<pdfrwt beam="2">  1       -3 0.39453089E-02 0.83884283E+02</pdfrwt>
<totfact> 0.38299703E+03</totfact>
</mgrwt>
</event>
<event>
 4    1  0.4862093E-001  0.1216902E+03  0.7546771E-02  0.1240335E+00
         -2   -1    0    0    0  501 -0.00000000000E+00  0.00000000000E+00  0.82607225788E+01  0.82607225788E+01  0.00000000000E+00 0.  1.
          2   -1    0    0  501    0  0.00000000000E+00 -0.00000000000E+00 -0.18440298239E+04  0.18440298239E+04  0.00000000000E+00 0. -1.
         24    1    1    2    0    0 -0.44003833328E+02 -0.80030863228E+02 -0.76327422576E+03  0.77291399010E+03  0.80419002446E+02 0.  0.
        -24    1    1    2    0    0  0.44003833328E+02  0.80030863228E+02 -0.10724948755E+04  0.10793765564E+04  0.80419002446E+02 0.  0.
<mgrwt>
<rscale>  0 0.12169016E+03</rscale>
<asrwt>0</asrwt>
<pdfrwt beam="1">  1        2 0.28369700E+00 0.12169018E+03</pdfrwt>
<pdfrwt beam="2">  1       -2 0.12708799E-02 0.12169018E+03</pdfrwt>
<totfact> 0.13107870E+04</totfact>
</mgrwt>
</event>
<event>
 4    1  0.4862093E-001  0.9305034E+02  0.7546771E-02  0.1295629E+00
          2   -1    0    0  501    0  0.00000000000E+00  0.00000000000E+00  0.23077006335E+04  0.23077006335E+04  0.00000000000E+00 0. -1.
         -2   -1    0    0    0  501 -0.00000000000E+00 -0.00000000000E+00 -0.37685701664E+01  0.37685701664E+01  0.00000000000E+00 0.  1.
         24    1    1    2    0    0  0.38146437250E+02 -0.27129235257E+02  0.10751990571E+04  0.10792179457E+04  0.80419002446E+02 0. -1.
        -24    1    1    2    0    0 -0.38146437250E+02  0.27129235257E+02  0.12287330063E+04  0.12322512580E+04  0.80419002446E+02 0.  0.
<mgrwt>
<rscale>  0 0.93050332E+02</rscale>
<asrwt>0</asrwt>
<pdfrwt beam="1">  1        2 0.35502974E+00 0.93050343E+02</pdfrwt>
<pdfrwt beam="2">  1       -2 0.57978187E-03 0.93050343E+02</pdfrwt>
<totfact> 0.22859176E+04</totfact>
</mgrwt>
</event>
<event>
 4    1  0.4862093E-001  0.8847752E+02  0.7546771E-02  0.1306581E+00
          2   -1    0    0  501    0  0.00000000000E+00  0.00000000000E+00  0.65974611292E+03  0.65974611292E+03  0.00000000000E+00 0. -1.
         -2   -1    0    0    0  501 -0.00000000000E+00 -0.00000000000E+00 -0.14418377992E+03  0.14418377992E+03  0.00000000000E+00 0.  1.
         24    1    1    2    0    0  0.67122488864E+01 -0.36276721797E+02  0.64285124119E+03  0.64891138770E+03  0.80419002446E+02 0. -1.
        -24    1    1    2    0    0 -0.67122488864E+01  0.36276721797E+02 -0.12728890819E+03  0.15501850513E+03  0.80419002446E+02 0.  1.
<mgrwt>
<rscale>  0 0.88477516E+02</rscale>
<asrwt>0</asrwt>
<pdfrwt beam="1">  1        2 0.10149940E+00 0.88477516E+02</pdfrwt>
<pdfrwt beam="2">  1       -2 0.22182120E-01 0.88477516E+02</pdfrwt>
<totfact> 0.79257847E+02</totfact>
</mgrwt>
</event>
<event>
 4    1  0.4862093E-001  0.8081497E+02  0.7546771E-02  0.1326754E+00
          1   -1    0    0  501    0  0.00000000000E+00  0.00000000000E+00  0.16215535894E+02  0.16215535894E+02  0.00000000000E+00 0. -1.
         -1   -1    0    0    0  501 -0.00000000000E+00 -0.00000000000E+00 -0.56202974568E+03  0.56202974568E+03  0.00000000000E+00 0.  1.
         24    1    1    2    0    0 -0.44551936029E+01 -0.66327986369E+01 -0.42681523811E+03  0.43439878707E+03  0.80419002446E+02 0.  1.
        -24    1    1    2    0    0  0.44551936029E+01  0.66327986369E+01 -0.11899897168E+03  0.14384649451E+03  0.80419002446E+02 0.  0.
<mgrwt>
<rscale>  0 0.80814966E+02</rscale>
<asrwt>0</asrwt>
<pdfrwt beam="1">  1        1 0.24946978E-02 0.80814966E+02</pdfrwt>
<pdfrwt beam="2">  1       -1 0.86466115E-01 0.80814966E+02</pdfrwt>
<totfact> 0.55815106E+03</totfact>
</mgrwt>
</event>
<event>
 4    1  0.4862093E-001  0.8286000E+02  0.7546771E-02  0.1321126E+00
         -2   -1    0    0    0  501 -0.00000000000E+00  0.00000000000E+00  0.27650718913E+01  0.27650718913E+01  0.00000000000E+00 0.  1.
          2   -1    0    0  501    0  0.00000000000E+00 -0.00000000000E+00 -0.41190760683E+04  0.41190760683E+04  0.00000000000E+00 0. -1.
         24    1    1    2    0    0  0.86043783202E+01  0.18014691885E+02 -0.33570023996E+04  0.33580248498E+04  0.80419002446E+02 0. -1.
        -24    1    1    2    0    0 -0.86043783202E+01 -0.18014691885E+02 -0.75930859679E+03  0.76381629046E+03  0.80419002446E+02 0.  1.
<mgrwt>
<rscale>  0 0.82860005E+02</rscale>
<asrwt>0</asrwt>
<pdfrwt beam="1">  1        2 0.63370780E+00 0.82860005E+02</pdfrwt>
<pdfrwt beam="2">  1       -2 0.42539313E-03 0.82860005E+02</pdfrwt>
<totfact> 0.27704366E+03</totfact>
</mgrwt>
</event>
<event>
 4    1  0.4862093E-001  0.8089303E+02  0.7546771E-02  0.1326536E+00
         -2   -1    0    0    0  501 -0.00000000000E+00  0.00000000000E+00  0.17156503870E+03  0.17156503870E+03  0.00000000000E+00 0.  1.
          2   -1    0    0  501    0  0.00000000000E+00 -0.00000000000E+00 -0.50659593188E+02  0.50659593188E+02  0.00000000000E+00 0. -1.
         24    1    1    2    0    0 -0.13759395072E+00 -0.87433807636E+01  0.52186398672E+01  0.81061185506E+02  0.80419002446E+02 0.  0.
        -24    1    1    2    0    0  0.13759395072E+00  0.87433807636E+01  0.11568680564E+03  0.14116344638E+03  0.80419002446E+02 0.  1.
<mgrwt>
<rscale>  0 0.80893026E+02</rscale>
<asrwt>0</asrwt>
<pdfrwt beam="1">  1        2 0.77937837E-02 0.80893026E+02</pdfrwt>
<pdfrwt beam="2">  1       -2 0.26394621E-01 0.80893026E+02</pdfrwt>
<totfact> 0.10106154E+04</totfact>
</mgrwt>
</event>
<event>
 4    1  0.4862093E-001  0.8891335E+02  0.7546771E-02  0.1305505E+00
          3   -1    0    0  501    0  0.00000000000E+00  0.00000000000E+00  0.82976415489E+03  0.82976415489E+03  0.00000000000E+00 0. -1.
         -3   -1    0    0    0  501 -0.00000000000E+00 -0.00000000000E+00 -0.98524447743E+01  0.98524447743E+01  0.00000000000E+00 0.  1.
         24    1    1    2    0    0  0.10733621599E+02 -0.36375220408E+02  0.33371643967E+03  0.34535814070E+03  0.80419002446E+02 0.  1.
        -24    1    1    2    0    0 -0.10733621599E+02  0.36375220408E+02  0.48619527045E+03  0.49425845896E+03  0.80419002446E+02 0.  0.
<mgrwt>
<rscale>  0 0.88913347E+02</rscale>
<asrwt>0</asrwt>
<pdfrwt beam="1">  1        3 0.12765597E+00 0.88913347E+02</pdfrwt>
<pdfrwt beam="2">  1       -3 0.15157614E-02 0.88913347E+02</pdfrwt>
<totfact> 0.15865913E+03</totfact>
</mgrwt>
</event>
<event>
 4    1  0.4862093E-001  0.8901478E+02  0.7546771E-02  0.1305255E+00
         -2   -1    0    0    0  501 -0.00000000000E+00  0.00000000000E+00  0.39673561216E+01  0.39673561216E+01  0.00000000000E+00 0.  1.
          2   -1    0    0  501    0  0.00000000000E+00 -0.00000000000E+00 -0.20854987339E+04  0.20854987339E+04  0.00000000000E+00 0. -1.
         24    1    1    2    0    0 -0.34416014590E+02 -0.16490997554E+02 -0.12557271666E+04  0.12588782101E+04  0.80419002446E+02 0. -1.
        -24    1    1    2    0    0  0.34416014590E+02  0.16490997554E+02 -0.82580421123E+03  0.83058787993E+03  0.80419002446E+02 0.  1.
<mgrwt>
<rscale>  0 0.89014780E+02</rscale>
<asrwt>0</asrwt>
<pdfrwt beam="1">  1        2 0.32084596E+00 0.89014780E+02</pdfrwt>
<pdfrwt beam="2">  1       -2 0.61036247E-03 0.89014780E+02</pdfrwt>
<totfact> 0.27515579E+04</totfact>
</mgrwt>
</event>
<event>
 4    1  0.4862093E-001  0.8186043E+02  0.7546771E-02  0.1323853E+00
          3   -1    0    0  501    0  0.00000000000E+00  0.00000000000E+00  0.27919651839E+02  0.27919651839E+02  0.00000000000E+00 0. -1.
         -3   -1    0    0    0  501 -0.00000000000E+00 -0.00000000000E+00 -0.16749696030E+04  0.16749696030E+04  0.00000000000E+00 0.  1.
         24    1    1    2    0    0 -0.11236190991E+02 -0.10376050084E+02 -0.16116081434E+04  0.16136858239E+04  0.80419002446E+02 0.  1.
        -24    1    1    2    0    0  0.11236190991E+02  0.10376050084E+02 -0.35441807783E+02  0.89203430969E+02  0.80419002446E+02 0. -1.
<mgrwt>
<rscale>  0 0.81860432E+02</rscale>
<asrwt>0</asrwt>
<pdfrwt beam="1">  1        3 0.42953312E-02 0.81860432E+02</pdfrwt>
<pdfrwt beam="2">  1       -3 0.25768762E+00 0.81860432E+02</pdfrwt>
<totfact> 0.49732862E+01</totfact>
</mgrwt>
</event>
<event>
 4    1  0.4862093E-001  0.8217563E+02  0.7546771E-02  0.1322988E+00
          2   -1    0    0  501    0  0.00000000000E+00  0.00000000000E+00  0.16330821876E+03  0.16330821876E+03  0.00000000000E+00 0. -1.
         -2   -1    0    0    0  501 -0.00000000000E+00 -0.00000000000E+00 -0.47595451071E+02  0.47595451071E+02  0.00000000000E+00 0.  1.
         24    1    1    2    0    0 -0.16038866479E+02 -0.53266914392E+01  0.96054751893E+02  0.12640945453E+03  0.80419002446E+02 0. -1.
        -24    1    1    2    0    0  0.16038866479E+02  0.53266914392E+01  0.19658015796E+02  0.84494215299E+02  0.80419002446E+02 0.  1.
<mgrwt>
<rscale>  0 0.82175634E+02</rscale>
<asrwt>0</asrwt>
<pdfrwt beam="1">  1        2 0.25124341E-01 0.82175634E+02</pdfrwt>
<pdfrwt beam="2">  1       -2 0.73223772E-02 0.82175634E+02</pdfrwt>
<totfact> 0.20452194E+04</totfact>
</mgrwt>
</event>
<event>
 4    1  0.4862093E-001  0.1116701E+03  0.7546771E-02  0.1257508E+00
         -1   -1    0    0    0  501 -0.00000000000E+00  0.00000000000E+00  0.20224146547E+04  0.20224146547E+04  0.00000000000E+00 0.  1.
          1   -1    0    0  501    0  0.00000000000E+00 -0.00000000000E+00 -0.68371553838E+01  0.68371553838E+01  0.00000000000E+00 0. -1.
         24    1    1    2    0    0  0.51441766433E+02 -0.57937420360E+02  0.68989747492E+03  0.69887677159E+03  0.80419002446E+02 0.  0.
        -24    1    1    2    0    0 -0.51441766433E+02  0.57937420360E+02  0.13256800244E+04  0.13303750385E+04  0.80419002446E+02 0.  0.
<mgrwt>
<rscale>  0 0.11167014E+03</rscale>
<asrwt>0</asrwt>
<pdfrwt beam="1">  1        1 0.10518717E-02 0.11167015E+03</pdfrwt>
<pdfrwt beam="2">  1       -1 0.31114024E+00 0.11167015E+03</pdfrwt>
<totfact> 0.49118200E+02</totfact>
</mgrwt>
</event>
<event>
 4    1  0.4862093E-001  0.8326918E+02  0.7546771E-02  0.1320022E+00
         -2   -1    0    0    0  501 -0.00000000000E+00  0.00000000000E+00  0.12164279647E+03  0.12164279647E+03  0.00000000000E+00 0.  1.
          2   -1    0    0  501    0  0.00000000000E+00 -0.00000000000E+00 -0.98426041101E+02  0.98426041101E+02  0.00000000000E+00 0. -1.
         24    1    1    2    0    0  0.35748995088E+01 -0.21301661035E+02 -0.59776333961E+02  0.10250349616E+03  0.80419002446E+02 0. -1.
        -24    1    1    2    0    0 -0.35748995088E+01  0.21301661035E+02  0.82993089327E+02  0.11756534141E+03  0.80419002446E+02 0.  1.
<mgrwt>
<rscale>  0 0.83269182E+02</rscale>
<asrwt>0</asrwt>
<pdfrwt beam="1">  1        2 0.15142468E-01 0.83269182E+02</pdfrwt>
<pdfrwt beam="2">  1       -2 0.18714277E-01 0.83269182E+02</pdfrwt>
<totfact> 0.82073665E+03</totfact>
</mgrwt>
</event>
<event>
 4    1  0.4862093E-001  0.1101438E+03  0.7546771E-02  0.1260304E+00
         -2   -1    0    0    0  501 -0.00000000000E+00  0.00000000000E+00  0.96566694204E+03  0.96566694204E+03  0.00000000000E+00 0.  1.
          2   -1    0    0  501    0  0.00000000000E+00 -0.00000000000E+00 -0.74684621052E+02  0.74684621052E+02  0.00000000000E+00 0. -1.
         24    1    1    2    0    0  0.65320951379E+02 -0.37384620871E+02 -0.28921209561E+02  0.11387751702E+03  0.80419002446E+02 0. -1.
        -24    1    1    2    0    0 -0.65320951379E+02  0.37384620871E+02  0.91990353055E+03  0.92647404606E+03  0.80419002446E+02 0.  1.
<mgrwt>
<rscale>  0 0.11014378E+03</rscale>
<asrwt>0</asrwt>
<pdfrwt beam="1">  1        2 0.11489942E-01 0.11014378E+03</pdfrwt>
<pdfrwt beam="2">  1       -2 0.14856414E+00 0.11014378E+03</pdfrwt>
<totfact> 0.17534274E+02</totfact>
</mgrwt>
</event>
<event>
 4    1  0.4862093E-001  0.8334487E+02  0.7546771E-02  0.1319818E+00
          2   -1    0    0  501    0  0.00000000000E+00  0.00000000000E+00  0.19075101083E+02  0.19075101083E+02  0.00000000000E+00 0. -1.
         -2   -1    0    0    0  501 -0.00000000000E+00 -0.00000000000E+00 -0.46225554893E+03  0.46225554893E+03  0.00000000000E+00 0.  1.
         24    1    1    2    0    0 -0.50638555333E+01  0.21295750736E+02 -0.11072392004E+03  0.13858626936E+03  0.80419002446E+02 0. -1.
        -24    1    1    2    0    0  0.50638555333E+01 -0.21295750736E+02 -0.33245652780E+03  0.34274438065E+03  0.80419002446E+02 0.  1.
<mgrwt>
<rscale>  0 0.83344871E+02</rscale>
<asrwt>0</asrwt>
<pdfrwt beam="1">  1        2 0.29346313E-02 0.83344871E+02</pdfrwt>
<pdfrwt beam="2">  1       -2 0.71116230E-01 0.83344871E+02</pdfrwt>
<totfact> 0.53661490E+03</totfact>
</mgrwt>
</event>
<event>
 4    1  0.4862093E-001  0.1037308E+03  0.7546771E-02  0.1272641E+00
          2   -1    0    0  501    0  0.00000000000E+00  0.00000000000E+00  0.16285174189E+04  0.16285174189E+04  0.00000000000E+00 0. -1.
         -2   -1    0    0    0  501 -0.00000000000E+00 -0.00000000000E+00 -0.90063322701E+01  0.90063322701E+01  0.00000000000E+00 0.  1.
         24    1    1    2    0    0 -0.62034179472E+02  0.21086123242E+02  0.12323297281E+04  0.12366877693E+04  0.80419002446E+02 0. -1.
        -24    1    1    2    0    0  0.62034179472E+02 -0.21086123242E+02  0.38718135852E+03  0.40083598186E+03  0.80419002446E+02 0.  1.
<mgrwt>
<rscale>  0 0.10373081E+03</rscale>
<asrwt>0</asrwt>
<pdfrwt beam="1">  1        2 0.25054091E+00 0.10373081E+03</pdfrwt>
<pdfrwt beam="2">  1       -2 0.13855909E-02 0.10373081E+03</pdfrwt>
<totfact> 0.14781132E+04</totfact>
</mgrwt>
</event>
<event>
 4    1  0.4862093E-001  0.1195644E+03  0.7546771E-02  0.1243817E+00
         -2   -1    0    0    0  501 -0.00000000000E+00  0.00000000000E+00  0.46227648991E+02  0.46227648991E+02  0.00000000000E+00 0.  1.
          2   -1    0    0  501    0  0.00000000000E+00 -0.00000000000E+00 -0.66264468566E+03  0.66264468566E+03  0.00000000000E+00 0. -1.
         24    1    1    2    0    0  0.45816154774E+02  0.75692215458E+02 -0.56704831009E+03  0.57951655148E+03  0.80419002446E+02 0. -1.
        -24    1    1    2    0    0 -0.45816154774E+02 -0.75692215458E+02 -0.49368726580E+02  0.12935578316E+03  0.80419002446E+02 0.  1.
<mgrwt>
<rscale>  0 0.11956441E+03</rscale>
<asrwt>0</asrwt>
<pdfrwt beam="1">  1        2 0.10194533E+00 0.11956441E+03</pdfrwt>
<pdfrwt beam="2">  1       -2 0.71119466E-02 0.11956441E+03</pdfrwt>
<totfact> 0.49076032E+03</totfact>
</mgrwt>
</event>
<event>
 4    1  0.4862093E-001  0.8199154E+02  0.7546771E-02  0.1323493E+00
          3   -1    0    0  501    0  0.00000000000E+00  0.00000000000E+00  0.10787652083E+04  0.10787652083E+04  0.00000000000E+00 0. -1.
         -3   -1    0    0    0  501 -0.00000000000E+00 -0.00000000000E+00 -0.10861404840E+02  0.10861404840E+02  0.00000000000E+00 0.  1.
         24    1    1    2    0    0  0.24615783544E+01 -0.15790412700E+02  0.17825649480E+03  0.19620904769E+03  0.80419002446E+02 0.  1.
        -24    1    1    2    0    0 -0.24615783544E+01  0.15790412700E+02  0.88964730863E+03  0.89341756542E+03  0.80419002446E+02 0.  1.
<mgrwt>
<rscale>  0 0.81991539E+02</rscale>
<asrwt>0</asrwt>
<pdfrwt beam="1">  1        3 0.16596379E+00 0.81991539E+02</pdfrwt>
<pdfrwt beam="2">  1       -3 0.16709862E-02 0.81991539E+02</pdfrwt>
<totfact> 0.71269127E+02</totfact>
</mgrwt>
</event>
<event>
 4    1  0.4862093E-001  0.1045143E+03  0.7546771E-02  0.1271080E+00
          4   -1    0    0  501    0  0.00000000000E+00  0.00000000000E+00  0.31575943756E+03  0.31575943756E+03  0.00000000000E+00 0. -1.
         -4   -1    0    0    0  501 -0.00000000000E+00 -0.00000000000E+00 -0.21717209043E+03  0.21717209043E+03  0.00000000000E+00 0.  1.
         24    1    1    2    0    0  0.29048758938E+02 -0.60101478280E+02  0.29361664389E+03  0.31166322788E+03  0.80419002446E+02 0. -1.
        -24    1    1    2    0    0 -0.29048758938E+02  0.60101478280E+02 -0.19502929676E+03  0.22126830012E+03  0.80419002446E+02 0.  1.
<mgrwt>
<rscale>  0 0.10451428E+03</rscale>
<asrwt>0</asrwt>
<pdfrwt beam="1">  1        4 0.48578375E-01 0.10451428E+03</pdfrwt>
<pdfrwt beam="2">  1       -4 0.33411091E-01 0.10451428E+03</pdfrwt>
<totfact> 0.57478519E+01</totfact>
</mgrwt>
</event>
<event>
 4    1  0.4862093E-001  0.1313018E+03  0.7546771E-02  0.1225537E+00
          1   -1    0    0  501    0  0.00000000000E+00  0.00000000000E+00  0.10453891244E+04  0.10453891244E+04  0.00000000000E+00 0. -1.
         -1   -1    0    0    0  501 -0.00000000000E+00 -0.00000000000E+00 -0.24059388653E+02  0.24059388653E+02  0.00000000000E+00 0.  1.
         24    1    1    2    0    0  0.10021944568E+03 -0.27000330256E+02  0.21076849295E+03  0.24832142215E+03  0.80419002446E+02 0.  1.
        -24    1    1    2    0    0 -0.10021944568E+03  0.27000330256E+02  0.81056124283E+03  0.82112709093E+03  0.80419002446E+02 0. -1.
<mgrwt>
<rscale>  0 0.13130183E+03</rscale>
<asrwt>0</asrwt>
<pdfrwt beam="1">  1        1 0.16082906E+00 0.13130183E+03</pdfrwt>
<pdfrwt beam="2">  1       -1 0.37014452E-02 0.13130183E+03</pdfrwt>
<totfact> 0.40004390E+03</totfact>
</mgrwt>
</event>
<event>
 4    1  0.4862093E-001  0.9885674E+02  0.7546771E-02  0.1282719E+00
          2   -1    0    0  501    0  0.00000000000E+00  0.00000000000E+00  0.12765590020E+03  0.12765590020E+03  0.00000000000E+00 0. -1.
         -2   -1    0    0    0  501 -0.00000000000E+00 -0.00000000000E+00 -0.22584092935E+03  0.22584092935E+03  0.00000000000E+00 0.  1.
         24    1    1    2    0    0  0.57100188249E+02  0.67087681412E+01  0.94609918901E+02  0.13683454161E+03  0.80419002446E+02 0. -1.
        -24    1    1    2    0    0 -0.57100188249E+02 -0.67087681412E+01 -0.19279494805E+03  0.21666228794E+03  0.80419002446E+02 0.  1.
<mgrwt>
<rscale>  0 0.98856740E+02</rscale>
<asrwt>0</asrwt>
<pdfrwt beam="1">  1        2 0.19639369E-01 0.98856740E+02</pdfrwt>
<pdfrwt beam="2">  1       -2 0.34744759E-01 0.98856740E+02</pdfrwt>
<totfact> 0.21084911E+03</totfact>
</mgrwt>
</event>
<event>
 4    1  0.4862093E-001  0.1091786E+03  0.7546771E-02  0.1262099E+00
         -1   -1    0    0    0  501 -0.00000000000E+00  0.00000000000E+00  0.63091077659E+02  0.63091077659E+02  0.00000000000E+00 0.  1.
          1   -1    0    0  501    0  0.00000000000E+00 -0.00000000000E+00 -0.20760131681E+03  0.20760131681E+03  0.00000000000E+00 0. -1.
         24    1    1    2    0    0 -0.68416490409E+02  0.27783639828E+02 -0.31668023577E+02  0.11367861045E+03  0.80419002446E+02 0.  1.
        -24    1    1    2    0    0  0.68416490409E+02 -0.27783639828E+02 -0.11284221557E+03  0.15701378402E+03  0.80419002446E+02 0. -1.
<mgrwt>
<rscale>  0 0.10917858E+03</rscale>
<asrwt>0</asrwt>
<pdfrwt beam="1">  1        1 0.31938664E-01 0.10917858E+03</pdfrwt>
<pdfrwt beam="2">  1       -1 0.97063197E-02 0.10917858E+03</pdfrwt>
<totfact> 0.83092981E+03</totfact>
</mgrwt>
</event>
<event>
 4    1  0.4862093E-001  0.8980970E+02  0.7546771E-02  0.1303313E+00
          2   -1    0    0  501    0  0.00000000000E+00  0.00000000000E+00  0.99342449665E+01  0.99342449665E+01  0.00000000000E+00 0. -1.
         -2   -1    0    0    0  501 -0.00000000000E+00 -0.00000000000E+00 -0.86898085946E+03  0.86898085946E+03  0.00000000000E+00 0.  1.
         24    1    1    2    0    0 -0.92485311318E+01 -0.38897708510E+02 -0.31690936736E+03  0.32938932911E+03  0.80419002446E+02 0. -1.
        -24    1    1    2    0    0  0.92485311318E+01  0.38897708510E+02 -0.54213724714E+03  0.54952577532E+03  0.80419002446E+02 0.  1.
<mgrwt>
<rscale>  0 0.89809704E+02</rscale>
<asrwt>0</asrwt>
<pdfrwt beam="1">  1        2 0.15283454E-02 0.89809704E+02</pdfrwt>
<pdfrwt beam="2">  1       -2 0.13368936E+00 0.89809704E+02</pdfrwt>
<totfact> 0.30954345E+03</totfact>
</mgrwt>
</event>
<event>
 4    1  0.4862093E-001  0.9282238E+02  0.7546771E-02  0.1296157E+00
          2   -1    0    0  501    0  0.00000000000E+00  0.00000000000E+00  0.20536320700E+04  0.20536320700E+04  0.00000000000E+00 0. -1.
         -2   -1    0    0    0  501 -0.00000000000E+00 -0.00000000000E+00 -0.48012106000E+01  0.48012106000E+01  0.00000000000E+00 0.  1.
         24    1    1    2    0    0  0.46126435002E+02  0.45967524717E+01  0.13899827536E+04  0.13930786228E+04  0.80419002446E+02 0. -1.
        -24    1    1    2    0    0 -0.46126435002E+02 -0.45967524717E+01  0.65884810580E+03  0.66535465777E+03  0.80419002446E+02 0.  1.
<mgrwt>
<rscale>  0 0.92822379E+02</rscale>
<asrwt>0</asrwt>
<pdfrwt beam="1">  1        2 0.31594270E+00 0.92822379E+02</pdfrwt>
<pdfrwt beam="2">  1       -2 0.73864942E-03 0.92822379E+02</pdfrwt>
<totfact> 0.21890419E+04</totfact>
</mgrwt>
</event>
<event>
 4    1  0.4862093E-001  0.8400841E+02  0.7546771E-02  0.1318046E+00
          1   -1    0    0  501    0  0.00000000000E+00  0.00000000000E+00  0.11047149908E+04  0.11047149908E+04  0.00000000000E+00 0. -1.
         -1   -1    0    0    0  501 -0.00000000000E+00 -0.00000000000E+00 -0.55143358909E+02  0.55143358909E+02  0.00000000000E+00 0.  1.
         24    1    1    2    0    0 -0.17504001065E+02 -0.16846563484E+02 -0.20516747496E+02  0.86477451609E+02  0.80419002446E+02 0.  1.
        -24    1    1    2    0    0  0.17504001065E+02  0.16846563484E+02  0.10700883794E+04  0.10733808981E+04  0.80419002446E+02 0. -1.
<mgrwt>
<rscale>  0 0.84008409E+02</rscale>
<asrwt>0</asrwt>
<pdfrwt beam="1">  1        1 0.16995614E+00 0.84008409E+02</pdfrwt>
<pdfrwt beam="2">  1       -1 0.84835945E-02 0.84008409E+02</pdfrwt>
<totfact> 0.10589305E+03</totfact>
</mgrwt>
</event>
<event>
 4    1  0.4862093E-001  0.8177540E+02  0.7546771E-02  0.1324087E+00
          1   -1    0    0  501    0  0.00000000000E+00  0.00000000000E+00  0.28353469630E+03  0.28353469630E+03  0.00000000000E+00 0. -1.
         -1   -1    0    0    0  501 -0.00000000000E+00 -0.00000000000E+00 -0.26570891053E+02  0.26570891053E+02  0.00000000000E+00 0.  1.
         24    1    1    2    0    0  0.27601707361E+01  0.14573296240E+02  0.76506150774E+02  0.11198395674E+03  0.80419002446E+02 0.  1.
        -24    1    1    2    0    0 -0.27601707361E+01 -0.14573296240E+02  0.18045765448E+03  0.19812163062E+03  0.80419002446E+02 0. -1.
<mgrwt>
<rscale>  0 0.81775396E+02</rscale>
<asrwt>0</asrwt>
<pdfrwt beam="1">  1        1 0.43620721E-01 0.81775396E+02</pdfrwt>
<pdfrwt beam="2">  1       -1 0.40878296E-02 0.81775396E+02</pdfrwt>
<totfact> 0.19845572E+04</totfact>
</mgrwt>
</event>
<event>
 4    1  0.4862093E-001  0.9636696E+02  0.7546771E-02  0.1288127E+00
         -4   -1    0    0    0  501 -0.00000000000E+00  0.00000000000E+00  0.77489140209E+03  0.77489140209E+03  0.00000000000E+00 0.  1.
          4   -1    0    0  501    0  0.00000000000E+00 -0.00000000000E+00 -0.16850607890E+02  0.16850607890E+02  0.00000000000E+00 0. -1.
         24    1    1    2    0    0  0.18671914870E+02  0.49706489372E+02  0.16628379426E+03  0.19218972834E+03  0.80419002446E+02 0. -1.
        -24    1    1    2    0    0 -0.18671914870E+02 -0.49706489372E+02  0.59175699994E+03  0.59955228165E+03  0.80419002446E+02 0.  1.
<mgrwt>
<rscale>  0 0.96366962E+02</rscale>
<asrwt>0</asrwt>
<pdfrwt beam="1">  1        4 0.25924018E-02 0.96366962E+02</pdfrwt>
<pdfrwt beam="2">  1       -4 0.11921403E+00 0.96366962E+02</pdfrwt>
<totfact> 0.59145782E+02</totfact>
</mgrwt>
</event>
<event>
 4    1  0.4862093E-001  0.8866612E+02  0.7546771E-02  0.1306114E+00
         -2   -1    0    0    0  501 -0.00000000000E+00  0.00000000000E+00  0.11020795321E+03  0.11020795321E+03  0.00000000000E+00 0.  1.
          2   -1    0    0  501    0  0.00000000000E+00 -0.00000000000E+00 -0.68721705351E+03  0.68721705351E+03  0.00000000000E+00 0. -1.
         24    1    1    2    0    0 -0.33732309770E+02 -0.16018633016E+02 -0.66595650189E+03  0.67183312190E+03  0.80419002446E+02 0. -1.
        -24    1    1    2    0    0  0.33732309770E+02  0.16018633016E+02  0.88947401591E+02  0.12559188481E+03  0.80419002446E+02 0.  1.
<mgrwt>
<rscale>  0 0.88666123E+02</rscale>
<asrwt>0</asrwt>
<pdfrwt beam="1">  1        2 0.10572570E+00 0.88666123E+02</pdfrwt>
<pdfrwt beam="2">  1       -2 0.16955070E-01 0.88666123E+02</pdfrwt>
<totfact> 0.11840262E+03</totfact>
</mgrwt>
</event>
<event>
 4    1  0.4862093E-001  0.1051827E+03  0.7546771E-02  0.1269760E+00
          1   -1    0    0  501    0  0.00000000000E+00  0.00000000000E+00  0.10552541727E+04  0.10552541727E+04  0.00000000000E+00 0. -1.
         -1   -1    0    0    0  501 -0.00000000000E+00 -0.00000000000E+00 -0.15203916449E+02  0.15203916449E+02  0.00000000000E+00 0.  1.
         24    1    1    2    0    0  0.67789335149E+02 -0.89481139553E+00  0.22181416601E+03  0.24548917459E+03  0.80419002446E+02 0.  1.
        -24    1    1    2    0    0 -0.67789335149E+02  0.89481139553E+00  0.81823609027E+03  0.82496891457E+03  0.80419002446E+02 0. -1.
<mgrwt>
<rscale>  0 0.10518275E+03</rscale>
<asrwt>0</asrwt>
<pdfrwt beam="1">  1        1 0.16234674E+00 0.10518275E+03</pdfrwt>
<pdfrwt beam="2">  1       -1 0.23390649E-02 0.10518275E+03</pdfrwt>
<totfact> 0.75829822E+03</totfact>
</mgrwt>
</event>
<event>
 4    1  0.4862093E-001  0.1140286E+03  0.7546771E-02  0.1253286E+00
         -2   -1    0    0    0  501 -0.00000000000E+00  0.00000000000E+00  0.13100599046E+03  0.13100599046E+03  0.00000000000E+00 0.  1.
          2   -1    0    0  501    0  0.00000000000E+00 -0.00000000000E+00 -0.23103881983E+03  0.23103881983E+03  0.00000000000E+00 0. -1.
         24    1    1    2    0    0  0.14914533753E+01 -0.80827371676E+02  0.86702035330E+02  0.14324715470E+03  0.80419002446E+02 0.  1.
        -24    1    1    2    0    0 -0.14914533753E+01  0.80827371676E+02 -0.18673486470E+03  0.21879765560E+03  0.80419002446E+02 0. -1.
<mgrwt>
<rscale>  0 0.11402854E+03</rscale>
<asrwt>0</asrwt>
<pdfrwt beam="1">  1        2 0.35544433E-01 0.11402855E+03</pdfrwt>
<pdfrwt beam="2">  1       -2 0.20154768E-01 0.11402855E+03</pdfrwt>
<totfact> 0.28933027E+03</totfact>
</mgrwt>
</event>
<event>
 4    1  0.4862093E-001  0.8682995E+02  0.7546771E-02  0.1310715E+00
         -2   -1    0    0    0  501 -0.00000000000E+00  0.00000000000E+00  0.29179300961E+02  0.29179300961E+02  0.00000000000E+00 0.  1.
          2   -1    0    0  501    0  0.00000000000E+00 -0.00000000000E+00 -0.26576718609E+03  0.26576718609E+03  0.00000000000E+00 0. -1.
         24    1    1    2    0    0 -0.11708314870E+02 -0.30580044579E+02 -0.14287550239E+03  0.16719105509E+03  0.80419002446E+02 0. -1.
        -24    1    1    2    0    0  0.11708314870E+02  0.30580044579E+02 -0.93712382739E+02  0.12775543197E+03  0.80419002446E+02 0.  1.
<mgrwt>
<rscale>  0 0.86829947E+02</rscale>
<asrwt>0</asrwt>
<pdfrwt beam="1">  1        2 0.40887257E-01 0.86829947E+02</pdfrwt>
<pdfrwt beam="2">  1       -2 0.44891235E-02 0.86829947E+02</pdfrwt>
<totfact> 0.25482788E+04</totfact>
</mgrwt>
</event>
<event>
 4    1  0.4862093E-001  0.8107673E+02  0.7546771E-02  0.1326023E+00
          3   -1    0    0  501    0  0.00000000000E+00  0.00000000000E+00  0.43075488770E+02  0.43075488770E+02  0.00000000000E+00 0. -1.
         -3   -1    0    0    0  501 -0.00000000000E+00 -0.00000000000E+00 -0.15503360047E+03  0.15503360047E+03  0.00000000000E+00 0.  1.
         24    1    1    2    0    0 -0.91115298607E+01 -0.48162704193E+01 -0.43575325021E+02  0.92044779006E+02  0.80419002446E+02 0. -1.
        -24    1    1    2    0    0  0.91115298607E+01  0.48162704193E+01 -0.68382786681E+02  0.10606431024E+03  0.80419002446E+02 0.  1.
<mgrwt>
<rscale>  0 0.81076717E+02</rscale>
<asrwt>0</asrwt>
<pdfrwt beam="1">  1        3 0.66269982E-02 0.81076727E+02</pdfrwt>
<pdfrwt beam="2">  1       -3 0.23851323E-01 0.81076727E+02</pdfrwt>
<totfact> 0.48318655E+03</totfact>
</mgrwt>
</event>
<event>
 4    1  0.4862093E-001  0.1192843E+03  0.7546771E-02  0.1244282E+00
         -1   -1    0    0    0  501 -0.00000000000E+00  0.00000000000E+00  0.22846291259E+02  0.22846291259E+02  0.00000000000E+00 0.  1.
          1   -1    0    0  501    0  0.00000000000E+00 -0.00000000000E+00 -0.63109886869E+03  0.63109886869E+03  0.00000000000E+00 0. -1.
         24    1    1    2    0    0 -0.22802780759E+02  0.85097324334E+02 -0.26663804214E+03  0.29210371940E+03  0.80419002446E+02 0.  1.
        -24    1    1    2    0    0  0.22802780759E+02 -0.85097324334E+02 -0.34161453529E+03  0.36184144055E+03  0.80419002446E+02 0. -1.
<mgrwt>
<rscale>  0 0.11928427E+03</rscale>
<asrwt>0</asrwt>
<pdfrwt beam="1">  1        1 0.97092129E-01 0.11928427E+03</pdfrwt>
<pdfrwt beam="2">  1       -1 0.35148142E-02 0.11928427E+03</pdfrwt>
<totfact> 0.92680180E+03</totfact>
</mgrwt>
</event>
<event>
 4    1  0.4862093E-001  0.1015067E+03  0.7546771E-02  0.1277159E+00
          1   -1    0    0  501    0  0.00000000000E+00  0.00000000000E+00  0.22934875371E+03  0.22934875371E+03  0.00000000000E+00 0. -1.
         -1   -1    0    0    0  501 -0.00000000000E+00 -0.00000000000E+00 -0.46186210604E+02  0.46186210604E+02  0.00000000000E+00 0.  1.
         24    1    1    2    0    0  0.16160851777E+02 -0.59793144781E+02  0.68819980244E+02  0.12263685795E+03  0.80419002446E+02 0. -1.
        -24    1    1    2    0    0 -0.16160851777E+02  0.59793144781E+02  0.11434256286E+03  0.15289810636E+03  0.80419002446E+02 0.  1.
<mgrwt>
<rscale>  0 0.10150670E+03</rscale>
<asrwt>0</asrwt>
<pdfrwt beam="1">  1        1 0.35284423E-01 0.10150670E+03</pdfrwt>
<pdfrwt beam="2">  1       -1 0.71055710E-02 0.10150670E+03</pdfrwt>
<totfact> 0.11668659E+04</totfact>
</mgrwt>
</event>
<event>
 4    1  0.4862093E-001  0.8799230E+02  0.7546771E-02  0.1307788E+00
          2   -1    0    0  501    0  0.00000000000E+00  0.00000000000E+00  0.14931100677E+03  0.14931100677E+03  0.00000000000E+00 0. -1.
         -2   -1    0    0    0  501 -0.00000000000E+00 -0.00000000000E+00 -0.18316866130E+03  0.18316866130E+03  0.00000000000E+00 0.  1.
         24    1    1    2    0    0  0.21959091312E+02 -0.28164276644E+02  0.12382594113E+03  0.15190624681E+03  0.80419002446E+02 0. -1.
        -24    1    1    2    0    0 -0.21959091312E+02  0.28164276644E+02 -0.15768359566E+03  0.18057342125E+03  0.80419002446E+02 0.  1.
<mgrwt>
<rscale>  0 0.87992296E+02</rscale>
<asrwt>0</asrwt>
<pdfrwt beam="1">  1        2 0.22970924E-01 0.87992296E+02</pdfrwt>
<pdfrwt beam="2">  1       -2 0.28179794E-01 0.87992296E+02</pdfrwt>
<totfact> 0.25646511E+03</totfact>
</mgrwt>
</event>
<event>
 4    1  0.4862093E-001  0.9182122E+02  0.7546771E-02  0.1298500E+00
         -1   -1    0    0    0  501 -0.00000000000E+00  0.00000000000E+00  0.43892372609E+03  0.43892372609E+03  0.00000000000E+00 0.  1.
          1   -1    0    0  501    0  0.00000000000E+00 -0.00000000000E+00 -0.17877026619E+03  0.17877026619E+03  0.00000000000E+00 0. -1.
         24    1    1    2    0    0 -0.35623356689E+01 -0.44172740828E+02  0.42185969698E+03  0.43173688880E+03  0.80419002446E+02 0.  1.
        -24    1    1    2    0    0  0.35623356689E+01  0.44172740828E+02 -0.16170623708E+03  0.18595710347E+03  0.80419002446E+02 0. -1.
<mgrwt>
<rscale>  0 0.91821224E+02</rscale>
<asrwt>0</asrwt>
<pdfrwt beam="1">  1        1 0.27503118E-01 0.91821224E+02</pdfrwt>
<pdfrwt beam="2">  1       -1 0.67526727E-01 0.91821224E+02</pdfrwt>
<totfact> 0.39381248E+02</totfact>
</mgrwt>
</event>
<event>
 4    1  0.4862093E-001  0.9851225E+02  0.7546771E-02  0.1283456E+00
         -1   -1    0    0    0  501 -0.00000000000E+00  0.00000000000E+00  0.18719417312E+03  0.18719417312E+03  0.00000000000E+00 0.  1.
          1   -1    0    0  501    0  0.00000000000E+00 -0.00000000000E+00 -0.88866077035E+02  0.88866077035E+02  0.00000000000E+00 0. -1.
         24    1    1    2    0    0  0.51055156040E+02 -0.25116108750E+02  0.13825703126E+03  0.16976357243E+03  0.80419002446E+02 0.  1.
        -24    1    1    2    0    0 -0.51055156040E+02  0.25116108750E+02 -0.39928935175E+02  0.10629667773E+03  0.80419002446E+02 0. -1.
<mgrwt>
<rscale>  0 0.98512252E+02</rscale>
<asrwt>0</asrwt>
<pdfrwt beam="1">  1        1 0.13671704E-01 0.98512252E+02</pdfrwt>
<pdfrwt beam="2">  1       -1 0.28799103E-01 0.98512252E+02</pdfrwt>
<totfact> 0.43274381E+03</totfact>
</mgrwt>
</event>
<event>
 4    1  0.4862093E-001  0.8538081E+02  0.7546771E-02  0.1314440E+00
         -1   -1    0    0    0  501 -0.00000000000E+00  0.00000000000E+00  0.16660058397E+02  0.16660058397E+02  0.00000000000E+00 0.  1.
          1   -1    0    0  501    0  0.00000000000E+00 -0.00000000000E+00 -0.50882159972E+03  0.50882159972E+03  0.00000000000E+00 0. -1.
         24    1    1    2    0    0 -0.28666586840E+02 -0.94548714125E+00 -0.14775828824E+03  0.17065284892E+03  0.80419002446E+02 0.  1.
        -24    1    1    2    0    0  0.28666586840E+02  0.94548714125E+00 -0.34440325308E+03  0.35482880919E+03  0.80419002446E+02 0. -1.
<mgrwt>
<rscale>  0 0.85380812E+02</rscale>
<asrwt>0</asrwt>
<pdfrwt beam="1">  1        1 0.78280242E-01 0.85380812E+02</pdfrwt>
<pdfrwt beam="2">  1       -1 0.25630861E-02 0.85380812E+02</pdfrwt>
<totfact> 0.18922224E+04</totfact>
</mgrwt>
</event>
<event>
 4    1  0.4862093E-001  0.9277019E+02  0.7546771E-02  0.1296279E+00
         -2   -1    0    0    0  501 -0.00000000000E+00  0.00000000000E+00  0.36638172674E+02  0.36638172674E+02  0.00000000000E+00 0.  1.
          2   -1    0    0  501    0  0.00000000000E+00 -0.00000000000E+00 -0.30010164448E+03  0.30010164448E+03  0.00000000000E+00 0. -1.
         24    1    1    2    0    0  0.42996761789E+02  0.17040153860E+02 -0.53251593061E+02  0.10696745526E+03  0.80419002446E+02 0.  1.
        -24    1    1    2    0    0 -0.42996761789E+02 -0.17040153860E+02 -0.21021187874E+03  0.22977236189E+03  0.80419002446E+02 0. -1.
<mgrwt>
<rscale>  0 0.92770181E+02</rscale>
<asrwt>0</asrwt>
<pdfrwt beam="1">  1        2 0.46169481E-01 0.92770193E+02</pdfrwt>
<pdfrwt beam="2">  1       -2 0.56366423E-02 0.92770193E+02</pdfrwt>
<totfact> 0.16117824E+04</totfact>
</mgrwt>
</event>
<event>
 4    1  0.4862093E-001  0.8260782E+02  0.7546771E-02  0.1321810E+00
          2   -1    0    0  501    0  0.00000000000E+00  0.00000000000E+00  0.24356966024E+04  0.24356966024E+04  0.00000000000E+00 0. -1.
         -2   -1    0    0    0  501 -0.00000000000E+00 -0.00000000000E+00 -0.19189695367E+02  0.19189695367E+02  0.00000000000E+00 0.  1.
         24    1    1    2    0    0 -0.48254188501E+01 -0.18263380550E+02  0.23425601004E+04  0.23440161850E+04  0.80419002446E+02 0. -1.
        -24    1    1    2    0    0  0.48254188501E+01  0.18263380550E+02  0.73946806677E+02  0.11087011278E+03  0.80419002446E+02 0.  1.
<mgrwt>
<rscale>  0 0.82607819E+02</rscale>
<asrwt>0</asrwt>
<pdfrwt beam="1">  1        2 0.37472231E+00 0.82607819E+02</pdfrwt>
<pdfrwt beam="2">  1       -2 0.29522628E-02 0.82607819E+02</pdfrwt>
<totfact> 0.19317806E+03</totfact>
</mgrwt>
</event>
<event>
 4    1  0.4862093E-001  0.9438205E+02  0.7546771E-02  0.1292574E+00
         -1   -1    0    0    0  501 -0.00000000000E+00  0.00000000000E+00  0.12883150678E+02  0.12883150678E+02  0.00000000000E+00 0.  1.
          1   -1    0    0  501    0  0.00000000000E+00 -0.00000000000E+00 -0.14803573913E+04  0.14803573913E+04  0.00000000000E+00 0. -1.
         24    1    1    2    0    0  0.49294583772E+02 -0.32861541494E+01 -0.18869346147E+03  0.21098149956E+03  0.80419002446E+02 0.  1.
        -24    1    1    2    0    0 -0.49294583772E+02  0.32861541494E+01 -0.12787807792E+04  0.12822590425E+04  0.80419002446E+02 0. -1.
<mgrwt>
<rscale>  0 0.94382047E+02</rscale>
<asrwt>0</asrwt>
<pdfrwt beam="1">  1        1 0.22774738E+00 0.94382047E+02</pdfrwt>
<pdfrwt beam="2">  1       -1 0.19820224E-02 0.94382047E+02</pdfrwt>
<totfact> 0.49747968E+03</totfact>
</mgrwt>
</event>
<event>
 4    1  0.4862093E-001  0.8556134E+02  0.7546771E-02  0.1313971E+00
         -2   -1    0    0    0  501 -0.00000000000E+00  0.00000000000E+00  0.64146386816E+01  0.64146386816E+01  0.00000000000E+00 0.  1.
          2   -1    0    0  501    0  0.00000000000E+00 -0.00000000000E+00 -0.16840228474E+04  0.16840228474E+04  0.00000000000E+00 0. -1.
         24    1    1    2    0    0 -0.28379774230E+02 -0.69364999926E+01 -0.13186501608E+04  0.13214230924E+04  0.80419002446E+02 0.  0.
        -24    1    1    2    0    0  0.28379774230E+02  0.69364999926E+01 -0.35895804788E+03  0.36901439363E+03  0.80419002446E+02 0.  0.
<mgrwt>
<rscale>  0 0.85561338E+02</rscale>
<asrwt>0</asrwt>
<pdfrwt beam="1">  1        2 0.25908029E+00 0.85561338E+02</pdfrwt>
<pdfrwt beam="2">  1       -2 0.98686804E-03 0.85561338E+02</pdfrwt>
<totfact> 0.22168951E+04</totfact>
</mgrwt>
</event>
<event>
 4    1  0.4862093E-001  0.1185121E+03  0.7546771E-02  0.1245572E+00
         -2   -1    0    0    0  501 -0.00000000000E+00  0.00000000000E+00  0.35445663079E+02  0.35445663079E+02  0.00000000000E+00 0.  1.
          2   -1    0    0  501    0  0.00000000000E+00 -0.00000000000E+00 -0.68230919475E+03  0.68230919475E+03  0.00000000000E+00 0. -1.
         24    1    1    2    0    0  0.63749415321E+01 -0.86817438013E+02 -0.55580612949E+03  0.56830060440E+03  0.80419002446E+02 0. -1.
        -24    1    1    2    0    0 -0.63749415321E+01  0.86817438013E+02 -0.91057402178E+02  0.14945425343E+03  0.80419002446E+02 0.  1.
<mgrwt>
<rscale>  0 0.11851212E+03</rscale>
<asrwt>0</asrwt>
<pdfrwt beam="1">  1        2 0.10497065E+00 0.11851212E+03</pdfrwt>
<pdfrwt beam="2">  1       -2 0.54531787E-02 0.11851212E+03</pdfrwt>
<totfact> 0.70883914E+03</totfact>
</mgrwt>
</event>
<event>
 4    1  0.4862093E-001  0.1830805E+03  0.7546771E-02  0.1164855E+00
          2   -1    0    0  501    0  0.00000000000E+00  0.00000000000E+00  0.23551464747E+04  0.23551464747E+04  0.00000000000E+00 0. -1.
         -2   -1    0    0    0  501 -0.00000000000E+00 -0.00000000000E+00 -0.18402307319E+02  0.18402307319E+02  0.00000000000E+00 0.  1.
         24    1    1    2    0    0 -0.46499086555E+02  0.15776278332E+03  0.17333290204E+04  0.17429710181E+04  0.80419002446E+02 0. -1.
        -24    1    1    2    0    0  0.46499086555E+02 -0.15776278332E+03  0.60341514696E+03  0.63057776394E+03  0.80419002446E+02 0.  0.
<mgrwt>
<rscale>  0 0.18308052E+03</rscale>
<asrwt>0</asrwt>
<pdfrwt beam="1">  1        2 0.36232999E+00 0.18308052E+03</pdfrwt>
<pdfrwt beam="2">  1       -2 0.28311261E-02 0.18308052E+03</pdfrwt>
<totfact> 0.22361507E+03</totfact>
</mgrwt>
</event>
<event>
 4    1  0.4862093E-001  0.8515945E+02  0.7546771E-02  0.1315016E+00
          3   -1    0    0  501    0  0.00000000000E+00  0.00000000000E+00  0.63307166150E+02  0.63307166150E+02  0.00000000000E+00 0. -1.
         -3   -1    0    0    0  501 -0.00000000000E+00 -0.00000000000E+00 -0.17028089073E+03  0.17028089073E+03  0.00000000000E+00 0.  1.
         24    1    1    2    0    0  0.13285338866E+02 -0.24666068449E+02 -0.12030086685E+03  0.14739209504E+03  0.80419002446E+02 0.  0.
        -24    1    1    2    0    0 -0.13285338866E+02  0.24666068449E+02  0.13327142272E+02  0.86195961837E+02  0.80419002446E+02 0.  0.
<mgrwt>
<rscale>  0 0.85159445E+02</rscale>
<asrwt>0</asrwt>
<pdfrwt beam="1">  1        3 0.97395642E-02 0.85159445E+02</pdfrwt>
<pdfrwt beam="2">  1       -3 0.26197060E-01 0.85159445E+02</pdfrwt>
<totfact> 0.22238516E+03</totfact>
</mgrwt>
</event>
<event>
 4    1  0.4862093E-001  0.8675117E+02  0.7546771E-02  0.1310916E+00
          2   -1    0    0  501    0  0.00000000000E+00  0.00000000000E+00  0.26301999110E+04  0.26301999110E+04  0.00000000000E+00 0. -1.
         -2   -1    0    0    0  501 -0.00000000000E+00 -0.00000000000E+00 -0.44929081746E+01  0.44929081746E+01  0.00000000000E+00 0.  1.
         24    1    1    2    0    0  0.11403356434E+02  0.30471521713E+02  0.21067162361E+04  0.21085016162E+04  0.80419002446E+02 0.  0.
        -24    1    1    2    0    0 -0.11403356434E+02 -0.30471521713E+02  0.51899076676E+03  0.52619120300E+03  0.80419002446E+02 0.  1.
<mgrwt>
<rscale>  0 0.86751174E+02</rscale>
<asrwt>0</asrwt>
<pdfrwt beam="1">  1        2 0.40464491E+00 0.86751174E+02</pdfrwt>
<pdfrwt beam="2">  1       -2 0.69121874E-03 0.86751174E+02</pdfrwt>
<totfact> 0.12071453E+04</totfact>
</mgrwt>
</event>
<event>
 4    1  0.4862093E-001  0.1292770E+03  0.7546771E-02  0.1228533E+00
         -1   -1    0    0    0  501 -0.00000000000E+00  0.00000000000E+00  0.82082794748E+02  0.82082794748E+02  0.00000000000E+00 0.  1.
          1   -1    0    0  501    0  0.00000000000E+00 -0.00000000000E+00 -0.27528168592E+03  0.27528168592E+03  0.00000000000E+00 0. -1.
         24    1    1    2    0    0 -0.89918429655E+02 -0.46475628890E+02 -0.18777524897E+03  0.22797383216E+03  0.80419002446E+02 0.  1.
        -24    1    1    2    0    0  0.89918429655E+02  0.46475628890E+02 -0.54236422093E+01  0.12939064851E+03  0.80419002446E+02 0.  0.
<mgrwt>
<rscale>  0 0.12927694E+03</rscale>
<asrwt>0</asrwt>
<pdfrwt beam="1">  1        1 0.42351029E-01 0.12927696E+03</pdfrwt>
<pdfrwt beam="2">  1       -1 0.12628122E-01 0.12927696E+03</pdfrwt>
<totfact> 0.39674591E+03</totfact>
</mgrwt>
</event>
<event>
 4    1  0.4862093E-001  0.9314718E+02  0.7546771E-02  0.1295404E+00
          1   -1    0    0  501    0  0.00000000000E+00  0.00000000000E+00  0.38330665775E+02  0.38330665775E+02  0.00000000000E+00 0. -1.
         -1   -1    0    0    0  501 -0.00000000000E+00 -0.00000000000E+00 -0.27041707028E+03  0.27041707028E+03  0.00000000000E+00 0.  1.
         24    1    1    2    0    0  0.42036233522E+02 -0.21027014397E+02 -0.17835663544E+03  0.20121502335E+03  0.80419002446E+02 0.  1.
        -24    1    1    2    0    0 -0.42036233522E+02  0.21027014397E+02 -0.53729769068E+02  0.10753271270E+03  0.80419002446E+02 0. -1.
<mgrwt>
<rscale>  0 0.93147175E+02</rscale>
<asrwt>0</asrwt>
<pdfrwt beam="1">  1        1 0.58970256E-02 0.93147175E+02</pdfrwt>
<pdfrwt beam="2">  1       -1 0.41602625E-01 0.93147175E+02</pdfrwt>
<totfact> 0.69889276E+03</totfact>
</mgrwt>
</event>
<event>
 4    1  0.4862093E-001  0.1002818E+03  0.7546771E-02  0.1279704E+00
          1   -1    0    0  501    0  0.00000000000E+00  0.00000000000E+00  0.15476308042E+04  0.15476308042E+04  0.00000000000E+00 0. -1.
         -1   -1    0    0    0  501 -0.00000000000E+00 -0.00000000000E+00 -0.10022460534E+02  0.10022460534E+02  0.00000000000E+00 0.  1.
         24    1    1    2    0    0  0.54242803682E+02  0.25435063950E+02  0.30695249843E+03  0.32291837433E+03  0.80419002446E+02 0.  1.
        -24    1    1    2    0    0 -0.54242803682E+02 -0.25435063950E+02  0.12306558452E+04  0.12347348904E+04  0.80419002446E+02 0. -1.
<mgrwt>
<rscale>  0 0.10028180E+03</rscale>
<asrwt>0</asrwt>
<pdfrwt beam="1">  1        1 0.23809686E+00 0.10028180E+03</pdfrwt>
<pdfrwt beam="2">  1       -1 0.15419182E-02 0.10028180E+03</pdfrwt>
<totfact> 0.64615513E+03</totfact>
</mgrwt>
</event>
<event>
 4    1  0.4862093E-001  0.8072129E+02  0.7546771E-02  0.1327017E+00
         -2   -1    0    0    0  501 -0.00000000000E+00  0.00000000000E+00  0.65158383931E+01  0.65158383931E+01  0.00000000000E+00 0.  1.
          2   -1    0    0  501    0  0.00000000000E+00 -0.00000000000E+00 -0.13668500734E+04  0.13668500734E+04  0.00000000000E+00 0. -1.
         24    1    1    2    0    0  0.51973600377E+01 -0.46581802929E+01 -0.10359066007E+04  0.10390468770E+04  0.80419002446E+02 0.  0.
        -24    1    1    2    0    0 -0.51973600377E+01  0.46581802929E+01 -0.32442763433E+03  0.33431903486E+03  0.80419002446E+02 0.  1.
<mgrwt>
<rscale>  0 0.80721293E+02</rscale>
<asrwt>0</asrwt>
<pdfrwt beam="1">  1        2 0.21028492E+00 0.80721293E+02</pdfrwt>
<pdfrwt beam="2">  1       -2 0.10024353E-02 0.80721293E+02</pdfrwt>
<totfact> 0.31279343E+04</totfact>
</mgrwt>
</event>
<event>
 4    1  0.4862093E-001  0.8290417E+02  0.7546771E-02  0.1321006E+00
         -1   -1    0    0    0  501 -0.00000000000E+00  0.00000000000E+00  0.94603259207E+02  0.94603259207E+02  0.00000000000E+00 0.  1.
          1   -1    0    0  501    0  0.00000000000E+00 -0.00000000000E+00 -0.81443708918E+02  0.81443708918E+02  0.00000000000E+00 0. -1.
         24    1    1    2    0    0 -0.19512315036E+02  0.50153997782E+01  0.35500584562E+02  0.90185321043E+02  0.80419002446E+02 0.  1.
        -24    1    1    2    0    0  0.19512315036E+02 -0.50153997782E+01 -0.22341034272E+02  0.85861647082E+02  0.80419002446E+02 0. -1.
<mgrwt>
<rscale>  0 0.82904165E+02</rscale>
<asrwt>0</asrwt>
<pdfrwt beam="1">  1        1 0.12529801E-01 0.82904165E+02</pdfrwt>
<pdfrwt beam="2">  1       -1 0.14554348E-01 0.82904165E+02</pdfrwt>
<totfact> 0.14157099E+04</totfact>
</mgrwt>
</event>
<event>
 4    1  0.4862093E-001  0.9021037E+02  0.7546771E-02  0.1302343E+00
          2   -1    0    0  501    0  0.00000000000E+00  0.00000000000E+00  0.11789179566E+04  0.11789179566E+04  0.00000000000E+00 0. -1.
         -2   -1    0    0    0  501 -0.00000000000E+00 -0.00000000000E+00 -0.69369161442E+01  0.69369161442E+01  0.00000000000E+00 0.  1.
         24    1    1    2    0    0 -0.38472852480E+02 -0.13803414328E+02  0.62753268852E+03  0.63398358475E+03  0.80419002446E+02 0.  1.
        -24    1    1    2    0    0  0.38472852480E+02  0.13803414328E+02  0.54444835191E+03  0.55187128797E+03  0.80419002446E+02 0.  0.
<mgrwt>
<rscale>  0 0.90210368E+02</rscale>
<asrwt>0</asrwt>
<pdfrwt beam="1">  1        2 0.18137183E+00 0.90210368E+02</pdfrwt>
<pdfrwt beam="2">  1       -2 0.10672188E-02 0.90210368E+02</pdfrwt>
<totfact> 0.36408436E+04</totfact>
</mgrwt>
</event>
<event>
 4    1  0.4862093E-001  0.8097258E+02  0.7546771E-02  0.1326314E+00
          3   -1    0    0  501    0  0.00000000000E+00  0.00000000000E+00  0.14584148171E+03  0.14584148171E+03  0.00000000000E+00 0. -1.
         -3   -1    0    0    0  501 -0.00000000000E+00 -0.00000000000E+00 -0.61058955424E+02  0.61058955424E+02  0.00000000000E+00 0.  1.
         24    1    1    2    0    0 -0.94339096774E+01 -0.58726420386E+00 -0.10733788718E+02  0.81680926205E+02  0.80419002446E+02 0.  1.
        -24    1    1    2    0    0  0.94339096774E+01  0.58726420386E+00  0.95516315006E+02  0.12521951093E+03  0.80419002446E+02 0.  0.
<mgrwt>
<rscale>  0 0.80972585E+02</rscale>
<asrwt>0</asrwt>
<pdfrwt beam="1">  1        3 0.22437151E-01 0.80972585E+02</pdfrwt>
<pdfrwt beam="2">  1       -3 0.93936855E-02 0.80972585E+02</pdfrwt>
<totfact> 0.30738280E+03</totfact>
</mgrwt>
</event>
<event>
 4    1  0.4862093E-001  0.1148760E+03  0.7546771E-02  0.1251798E+00
          2   -1    0    0  501    0  0.00000000000E+00  0.00000000000E+00  0.11176460883E+04  0.11176460883E+04  0.00000000000E+00 0. -1.
         -2   -1    0    0    0  501 -0.00000000000E+00 -0.00000000000E+00 -0.11819701026E+02  0.11819701026E+02  0.00000000000E+00 0.  1.
         24    1    1    2    0    0  0.52253295855E+02 -0.63236638592E+02  0.57113099632E+03  0.58256940385E+03  0.80419002446E+02 0.  1.
        -24    1    1    2    0    0 -0.52253295855E+02  0.63236638592E+02  0.53469539100E+03  0.54689638552E+03  0.80419002446E+02 0. -1.
<mgrwt>
<rscale>  0 0.11487600E+03</rscale>
<asrwt>0</asrwt>
<pdfrwt beam="1">  1        2 0.17194547E+00 0.11487600E+03</pdfrwt>
<pdfrwt beam="2">  1       -2 0.18184164E-02 0.11487600E+03</pdfrwt>
<totfact> 0.18766482E+04</totfact>
</mgrwt>
</event>
<event>
 4    1  0.4862093E-001  0.8054812E+02  0.7546771E-02  0.1327503E+00
          2   -1    0    0  501    0  0.00000000000E+00  0.00000000000E+00  0.26649056458E+04  0.26649056458E+04  0.00000000000E+00 0. -1.
         -2   -1    0    0    0  501 -0.00000000000E+00 -0.00000000000E+00 -0.39575939913E+01  0.39575939913E+01  0.00000000000E+00 0.  1.
         24    1    1    2    0    0 -0.44963041388E+01 -0.75248145611E+00  0.21582803672E+04  0.21597828925E+04  0.80419002446E+02 0.  0.
        -24    1    1    2    0    0  0.44963041388E+01  0.75248145611E+00  0.50266768462E+03  0.50908034738E+03  0.80419002446E+02 0.  1.
<mgrwt>
<rscale>  0 0.80548116E+02</rscale>
<asrwt>0</asrwt>
<pdfrwt beam="1">  1        2 0.40998405E+00 0.80548116E+02</pdfrwt>
<pdfrwt beam="2">  1       -2 0.60886274E-03 0.80548116E+02</pdfrwt>
<totfact> 0.13783698E+04</totfact>
</mgrwt>
</event>
<event>
 4    1  0.4862093E-001  0.8261245E+02  0.7546771E-02  0.1321797E+00
          1   -1    0    0  501    0  0.00000000000E+00  0.00000000000E+00  0.12814621502E+04  0.12814621502E+04  0.00000000000E+00 0. -1.
         -1   -1    0    0    0  501 -0.00000000000E+00 -0.00000000000E+00 -0.87530800259E+01  0.87530800259E+01  0.00000000000E+00 0.  1.
         24    1    1    2    0    0 -0.85736487542E+01  0.16855062061E+02  0.23268474697E+03  0.24691498131E+03  0.80419002446E+02 0.  0.
        -24    1    1    2    0    0  0.85736487542E+01 -0.16855062061E+02  0.10400243232E+04  0.10433002489E+04  0.80419002446E+02 0.  0.
<mgrwt>
<rscale>  0 0.82612448E+02</rscale>
<asrwt>0</asrwt>
<pdfrwt beam="1">  1        1 0.19714787E+00 0.82612448E+02</pdfrwt>
<pdfrwt beam="2">  1       -1 0.13466287E-02 0.82612448E+02</pdfrwt>
<totfact> 0.11508057E+04</totfact>
</mgrwt>
</event>
<event>
 4    1  0.4862093E-001  0.9628922E+02  0.7546771E-02  0.1288299E+00
          3   -1    0    0  501    0  0.00000000000E+00  0.00000000000E+00  0.47335407942E+03  0.47335407942E+03  0.00000000000E+00 0. -1.
         -3   -1    0    0    0  501 -0.00000000000E+00 -0.00000000000E+00 -0.41197352593E+02  0.41197352593E+02  0.00000000000E+00 0.  1.
         24    1    1    2    0    0 -0.52465750210E+02  0.71932753561E+01  0.29743345907E+02  0.10077837434E+03  0.80419002446E+02 0.  1.
        -24    1    1    2    0    0  0.52465750210E+02 -0.71932753561E+01  0.40241338092E+03  0.41377305767E+03  0.80419002446E+02 0. -1.
<mgrwt>
<rscale>  0 0.96289221E+02</rscale>
<asrwt>0</asrwt>
<pdfrwt beam="1">  1        3 0.72823701E-01 0.96289221E+02</pdfrwt>
<pdfrwt beam="2">  1       -3 0.63380546E-02 0.96289221E+02</pdfrwt>
<totfact> 0.62481264E+02</totfact>
</mgrwt>
</event>
<event>
 4    1  0.4862093E-001  0.1277643E+03  0.7546771E-02  0.1230811E+00
         -2   -1    0    0    0  501 -0.00000000000E+00  0.00000000000E+00  0.31170929233E+03  0.31170929233E+03  0.00000000000E+00 0.  1.
          2   -1    0    0  501    0  0.00000000000E+00 -0.00000000000E+00 -0.17784271077E+03  0.17784271077E+03  0.00000000000E+00 0. -1.
         24    1    1    2    0    0 -0.76499222538E+02  0.63280001900E+02 -0.13866915350E+03  0.18855460688E+03  0.80419002446E+02 0. -1.
        -24    1    1    2    0    0  0.76499222538E+02 -0.63280001900E+02  0.27253573506E+03  0.30099739621E+03  0.80419002446E+02 0.  1.
<mgrwt>
<rscale>  0 0.12776426E+03</rscale>
<asrwt>0</asrwt>
<pdfrwt beam="1">  1        2 0.27360417E-01 0.12776426E+03</pdfrwt>
<pdfrwt beam="2">  1       -2 0.47955276E-01 0.12776426E+03</pdfrwt>
<totfact> 0.80170709E+02</totfact>
</mgrwt>
</event>
<event>
 4    1  0.4862093E-001  0.8726958E+02  0.7546771E-02  0.1309602E+00
         -2   -1    0    0    0  501 -0.00000000000E+00  0.00000000000E+00  0.11119016185E+02  0.11119016185E+02  0.00000000000E+00 0.  1.
          2   -1    0    0  501    0  0.00000000000E+00 -0.00000000000E+00 -0.26044084070E+04  0.26044084070E+04  0.00000000000E+00 0. -1.
         24    1    1    2    0    0 -0.30153944112E+02 -0.15475920106E+02 -0.24193453771E+04  0.24209188409E+04  0.80419002446E+02 0. -1.
        -24    1    1    2    0    0  0.30153944112E+02  0.15475920106E+02 -0.17394401374E+03  0.19460858234E+03  0.80419002446E+02 0.  1.
<mgrwt>
<rscale>  0 0.87269585E+02</rscale>
<asrwt>0</asrwt>
<pdfrwt beam="1">  1        2 0.40067805E+00 0.87269585E+02</pdfrwt>
<pdfrwt beam="2">  1       -2 0.17106186E-02 0.87269585E+02</pdfrwt>
<totfact> 0.34526411E+03</totfact>
</mgrwt>
</event>
<event>
 4    1  0.4862093E-001  0.1120303E+03  0.7546771E-02  0.1256856E+00
         -1   -1    0    0    0  501 -0.00000000000E+00  0.00000000000E+00  0.48842495875E+01  0.48842495875E+01  0.00000000000E+00 0.  1.
          1   -1    0    0  501    0  0.00000000000E+00 -0.00000000000E+00 -0.28459015239E+04  0.28459015239E+04  0.00000000000E+00 0. -1.
         24    1    1    2    0    0  0.75011179249E+02 -0.21374870866E+02 -0.97640692567E+03  0.98281293365E+03  0.80419002446E+02 0.  1.
        -24    1    1    2    0    0 -0.75011179249E+02  0.21374870866E+02 -0.18646103486E+04  0.18679728398E+04  0.80419002446E+02 0. -1.
<mgrwt>
<rscale>  0 0.11203026E+03</rscale>
<asrwt>0</asrwt>
<pdfrwt beam="1">  1        1 0.43783280E+00 0.11203026E+03</pdfrwt>
<pdfrwt beam="2">  1       -1 0.75141993E-03 0.11203026E+03</pdfrwt>
<totfact> 0.26436820E+03</totfact>
</mgrwt>
</event>
<event>
 4    1  0.4862093E-001  0.8844363E+02  0.7546771E-02  0.1306665E+00
         -2   -1    0    0    0  501 -0.00000000000E+00  0.00000000000E+00  0.53681491141E+02  0.53681491141E+02  0.00000000000E+00 0.  1.
          2   -1    0    0  501    0  0.00000000000E+00 -0.00000000000E+00 -0.11969850952E+04  0.11969850952E+04  0.00000000000E+00 0. -1.
         24    1    1    2    0    0  0.12769929065E+02  0.34525179342E+02 -0.11576874584E+04  0.11610609486E+04  0.80419002446E+02 0. -1.
        -24    1    1    2    0    0 -0.12769929065E+02 -0.34525179342E+02  0.14383854323E+02  0.89605637749E+02  0.80419002446E+02 0.  1.
<mgrwt>
<rscale>  0 0.88443626E+02</rscale>
<asrwt>0</asrwt>
<pdfrwt beam="1">  1        2 0.18415155E+00 0.88443626E+02</pdfrwt>
<pdfrwt beam="2">  1       -2 0.82586910E-02 0.88443626E+02</pdfrwt>
<totfact> 0.17938804E+03</totfact>
</mgrwt>
</event>
<event>
 4    1  0.4862093E-001  0.9280515E+02  0.7546771E-02  0.1296197E+00
         -2   -1    0    0    0  501 -0.00000000000E+00  0.00000000000E+00  0.11681011775E+03  0.11681011775E+03  0.00000000000E+00 0.  1.
          2   -1    0    0  501    0  0.00000000000E+00 -0.00000000000E+00 -0.13165167073E+03  0.13165167073E+03  0.00000000000E+00 0. -1.
         24    1    1    2    0    0 -0.45465985820E+02 -0.88557289382E+01 -0.89820277642E+02  0.12915292498E+03  0.80419002446E+02 0. -1.
        -24    1    1    2    0    0  0.45465985820E+02  0.88557289382E+01  0.74978724663E+02  0.11930886349E+03  0.80419002446E+02 0.  1.
<mgrwt>
<rscale>  0 0.92805149E+02</rscale>
<asrwt>0</asrwt>
<pdfrwt beam="1">  1        2 0.20254103E-01 0.92805149E+02</pdfrwt>
<pdfrwt beam="2">  1       -2 0.17970787E-01 0.92805149E+02</pdfrwt>
<totfact> 0.63712464E+03</totfact>
</mgrwt>
</event>
<event>
 4    1  0.4862093E-001  0.8070708E+02  0.7546771E-02  0.1327057E+00
         -1   -1    0    0    0  501 -0.00000000000E+00  0.00000000000E+00  0.59073580797E+01  0.59073580797E+01  0.00000000000E+00 0.  1.
          1   -1    0    0  501    0  0.00000000000E+00 -0.00000000000E+00 -0.11581708384E+04  0.11581708384E+04  0.00000000000E+00 0. -1.
         24    1    1    2    0    0 -0.59997820906E+01 -0.32273150017E+01 -0.70359145641E+03  0.70820517256E+03  0.80419002446E+02 0.  0.
        -24    1    1    2    0    0  0.59997820906E+01  0.32273150017E+01 -0.44867202389E+03  0.45587302391E+03  0.80419002446E+02 0.  1.
<mgrwt>
<rscale>  0 0.80707066E+02</rscale>
<asrwt>0</asrwt>
<pdfrwt beam="1">  1        1 0.17818024E+00 0.80707076E+02</pdfrwt>
<pdfrwt beam="2">  1       -1 0.90882374E-03 0.80707076E+02</pdfrwt>
<totfact> 0.24148022E+04</totfact>
</mgrwt>
</event>
<event>
 4    1  0.4862093E-001  0.1420245E+03  0.7546771E-02  0.1210630E+00
          2   -1    0    0  501    0  0.00000000000E+00  0.00000000000E+00  0.12848066769E+04  0.12848066769E+04  0.00000000000E+00 0. -1.
         -2   -1    0    0    0  501 -0.00000000000E+00 -0.00000000000E+00 -0.19840538238E+02  0.19840538238E+02  0.00000000000E+00 0.  1.
         24    1    1    2    0    0  0.76031075246E+02 -0.89011410265E+02  0.93049586138E+03  0.94127228768E+03  0.80419002446E+02 0. -1.
        -24    1    1    2    0    0 -0.76031075246E+02  0.89011410265E+02  0.33447027724E+03  0.36337492741E+03  0.80419002446E+02 0.  1.
<mgrwt>
<rscale>  0 0.14202455E+03</rscale>
<asrwt>0</asrwt>
<pdfrwt beam="1">  1        2 0.19766250E+00 0.14202455E+03</pdfrwt>
<pdfrwt beam="2">  1       -2 0.30523915E-02 0.14202455E+03</pdfrwt>
<totfact> 0.72203344E+03</totfact>
</mgrwt>
</event>
<event>
 4    1  0.4862093E-001  0.8488319E+02  0.7546771E-02  0.1315738E+00
          1   -1    0    0  501    0  0.00000000000E+00  0.00000000000E+00  0.50177756701E+03  0.50177756701E+03  0.00000000000E+00 0. -1.
         -1   -1    0    0    0  501 -0.00000000000E+00 -0.00000000000E+00 -0.17455645739E+02  0.17455645739E+02  0.00000000000E+00 0.  1.
         24    1    1    2    0    0  0.25117908753E+02 -0.10345540893E+02  0.13281772945E+03  0.15762520346E+03  0.80419002446E+02 0. -1.
        -24    1    1    2    0    0 -0.25117908753E+02  0.10345540893E+02  0.35150419182E+03  0.36160800929E+03  0.80419002446E+02 0. -1.
<mgrwt>
<rscale>  0 0.84883187E+02</rscale>
<asrwt>0</asrwt>
<pdfrwt beam="1">  1        1 0.77196538E-01 0.84883187E+02</pdfrwt>
<pdfrwt beam="2">  1       -1 0.26854843E-02 0.84883187E+02</pdfrwt>
<totfact> 0.18007836E+04</totfact>
</mgrwt>
</event>
<event>
 4    1  0.4862093E-001  0.8104437E+02  0.7546771E-02  0.1326114E+00
         -2   -1    0    0    0  501 -0.00000000000E+00  0.00000000000E+00  0.24948560851E+02  0.24948560851E+02  0.00000000000E+00 0.  1.
          2   -1    0    0  501    0  0.00000000000E+00 -0.00000000000E+00 -0.31441878955E+03  0.31441878955E+03  0.00000000000E+00 0. -1.
         24    1    1    2    0    0  0.98254153667E+01  0.21060415081E+01 -0.21317455763E+03  0.22806047920E+03  0.80419002446E+02 0. -1.
        -24    1    1    2    0    0 -0.98254153667E+01 -0.21060415081E+01 -0.76295671064E+02  0.11130687120E+03  0.80419002446E+02 0.  0.
<mgrwt>
<rscale>  0 0.81044372E+02</rscale>
<asrwt>0</asrwt>
<pdfrwt beam="1">  1        2 0.48372123E-01 0.81044372E+02</pdfrwt>
<pdfrwt beam="2">  1       -2 0.38382400E-02 0.81044372E+02</pdfrwt>
<totfact> 0.26707840E+04</totfact>
</mgrwt>
</event>
<event>
 4    1  0.4862093E-001  0.8203466E+02  0.7546771E-02  0.1323375E+00
          1   -1    0    0  501    0  0.00000000000E+00  0.00000000000E+00  0.68357902492E+02  0.68357902492E+02  0.00000000000E+00 0. -1.
         -1   -1    0    0    0  501 -0.00000000000E+00 -0.00000000000E+00 -0.99636263246E+02  0.99636263246E+02  0.00000000000E+00 0.  1.
         24    1    1    2    0    0  0.12074979132E+01 -0.16155836185E+02 -0.24812964963E+02  0.85705123993E+02  0.80419002446E+02 0.  1.
        -24    1    1    2    0    0 -0.12074979132E+01  0.16155836185E+02 -0.64653957906E+01  0.82289041744E+02  0.80419002446E+02 0. -1.
<mgrwt>
<rscale>  0 0.82034658E+02</rscale>
<asrwt>0</asrwt>
<pdfrwt beam="1">  1        1 0.10516600E-01 0.82034658E+02</pdfrwt>
<pdfrwt beam="2">  1       -1 0.15328656E-01 0.82034658E+02</pdfrwt>
<totfact> 0.16376690E+04</totfact>
</mgrwt>
</event>
<event>
 4    1  0.4862093E-001  0.8131988E+02  0.7546771E-02  0.1325347E+00
         -2   -1    0    0    0  501 -0.00000000000E+00  0.00000000000E+00  0.28117474283E+01  0.28117474283E+01  0.00000000000E+00 0.  1.
          2   -1    0    0  501    0  0.00000000000E+00 -0.00000000000E+00 -0.25277205486E+04  0.25277205486E+04  0.00000000000E+00 0. -1.
         24    1    1    2    0    0  0.19204695886E+01  0.11917139653E+02 -0.15961602129E+04  0.15982303800E+04  0.80419002446E+02 0.  0.
        -24    1    1    2    0    0 -0.19204695886E+01 -0.11917139653E+02 -0.92874858830E+03  0.93230191603E+03  0.80419002446E+02 0.  0.
<mgrwt>
<rscale>  0 0.81319877E+02</rscale>
<asrwt>0</asrwt>
<pdfrwt beam="1">  1        2 0.38888170E+00 0.81319877E+02</pdfrwt>
<pdfrwt beam="2">  1       -2 0.43257473E-03 0.81319877E+02</pdfrwt>
<totfact> 0.26277905E+04</totfact>
</mgrwt>
</event>
<event>
 4    1  0.4862093E-001  0.9241803E+02  0.7546771E-02  0.1297100E+00
          1   -1    0    0  501    0  0.00000000000E+00  0.00000000000E+00  0.65728846848E+02  0.65728846848E+02  0.00000000000E+00 0. -1.
         -1   -1    0    0    0  501 -0.00000000000E+00 -0.00000000000E+00 -0.16132711351E+03  0.16132711351E+03  0.00000000000E+00 0.  1.
         24    1    1    2    0    0  0.39862842080E+02 -0.22018861000E+02 -0.97871118714E+02  0.13460998570E+03  0.80419002446E+02 0.  1.
        -24    1    1    2    0    0 -0.39862842080E+02  0.22018861000E+02  0.22728520558E+01  0.92445974651E+02  0.80419002446E+02 0. -1.
<mgrwt>
<rscale>  0 0.92418031E+02</rscale>
<asrwt>0</asrwt>
<pdfrwt beam="1">  1        1 0.10112130E-01 0.92418031E+02</pdfrwt>
<pdfrwt beam="2">  1       -1 0.24819556E-01 0.92418031E+02</pdfrwt>
<totfact> 0.81328351E+03</totfact>
</mgrwt>
</event>
<event>
 4    1  0.4862093E-001  0.1080958E+03  0.7546771E-02  0.1264137E+00
          3   -1    0    0  501    0  0.00000000000E+00  0.00000000000E+00  0.36987524931E+02  0.36987524931E+02  0.00000000000E+00 0. -1.
         -3   -1    0    0    0  501 -0.00000000000E+00 -0.00000000000E+00 -0.31856410129E+03  0.31856410129E+03  0.00000000000E+00 0.  1.
         24    1    1    2    0    0  0.69369064419E+02  0.20135100340E+02 -0.12455952653E+03  0.16492356098E+03  0.80419002446E+02 0.  0.
        -24    1    1    2    0    0 -0.69369064419E+02 -0.20135100340E+02 -0.15701704983E+03  0.19062806524E+03  0.80419002446E+02 0. -1.
<mgrwt>
<rscale>  0 0.10809583E+03</rscale>
<asrwt>0</asrwt>
<pdfrwt beam="1">  1        3 0.56903887E-02 0.10809584E+03</pdfrwt>
<pdfrwt beam="2">  1       -3 0.49009859E-01 0.10809584E+03</pdfrwt>
<totfact> 0.16997136E+03</totfact>
</mgrwt>
</event>
<event>
 4    1  0.4862093E-001  0.9307155E+02  0.7546771E-02  0.1295579E+00
         -1   -1    0    0    0  501 -0.00000000000E+00  0.00000000000E+00  0.15608521748E+02  0.15608521748E+02  0.00000000000E+00 0.  1.
          1   -1    0    0  501    0  0.00000000000E+00 -0.00000000000E+00 -0.63558110730E+03  0.63558110730E+03  0.00000000000E+00 0. -1.
         24    1    1    2    0    0 -0.46693070593E+02 -0.38536460816E+01 -0.42593906527E+03  0.43598898691E+03  0.80419002446E+02 0. -1.
        -24    1    1    2    0    0  0.46693070593E+02  0.38536460816E+01 -0.19403352028E+03  0.21520064214E+03  0.80419002446E+02 0.  1.
<mgrwt>
<rscale>  0 0.93071540E+02</rscale>
<asrwt>0</asrwt>
<pdfrwt beam="1">  1        1 0.97781689E-01 0.93071552E+02</pdfrwt>
<pdfrwt beam="2">  1       -1 0.24013115E-02 0.93071552E+02</pdfrwt>
<totfact> 0.15611419E+04</totfact>
</mgrwt>
</event>
<event>
 4    1  0.4862093E-001  0.1868430E+03  0.7546771E-02  0.1161340E+00
          2   -1    0    0  501    0  0.00000000000E+00  0.00000000000E+00  0.90697870013E+03  0.90697870013E+03  0.00000000000E+00 0. -1.
         -2   -1    0    0    0  501 -0.00000000000E+00 -0.00000000000E+00 -0.53765976280E+02  0.53765976280E+02  0.00000000000E+00 0.  1.
         24    1    1    2    0    0  0.12522532647E+03 -0.11296775163E+03  0.68265220082E+03  0.70776008544E+03  0.80419002446E+02 0. -1.
        -24    1    1    2    0    0 -0.12522532647E+03  0.11296775163E+03  0.17056052303E+03  0.25298459098E+03  0.80419002446E+02 0.  1.
<mgrwt>
<rscale>  0 0.18684301E+03</rscale>
<asrwt>0</asrwt>
<pdfrwt beam="1">  1        2 0.13953517E+00 0.18684301E+03</pdfrwt>
<pdfrwt beam="2">  1       -2 0.82716893E-02 0.18684301E+03</pdfrwt>
<totfact> 0.26759196E+03</totfact>
</mgrwt>
</event>
<event>
 4    1  0.4862093E-001  0.1176372E+03  0.7546771E-02  0.1247047E+00
         -2   -1    0    0    0  501 -0.00000000000E+00  0.00000000000E+00  0.52957302662E+02  0.52957302662E+02  0.00000000000E+00 0.  1.
          2   -1    0    0  501    0  0.00000000000E+00 -0.00000000000E+00 -0.26301127467E+03  0.26301127467E+03  0.00000000000E+00 0. -1.
         24    1    1    2    0    0  0.11225825607E+02 -0.85119249981E+02 -0.11771555902E+03  0.16641957417E+03  0.80419002446E+02 0. -1.
        -24    1    1    2    0    0 -0.11225825607E+02  0.85119249981E+02 -0.92338412982E+02  0.14954900315E+03  0.80419002446E+02 0.  1.
<mgrwt>
<rscale>  0 0.11763725E+03</rscale>
<asrwt>0</asrwt>
<pdfrwt beam="1">  1        2 0.40463272E-01 0.11763725E+03</pdfrwt>
<pdfrwt beam="2">  1       -2 0.81472776E-02 0.11763725E+03</pdfrwt>
<totfact> 0.10813642E+04</totfact>
</mgrwt>
</event>
<event>
 4    1  0.4862093E-001  0.8740623E+02  0.7546771E-02  0.1309257E+00
         -4   -1    0    0    0  501 -0.00000000000E+00  0.00000000000E+00  0.14203095324E+04  0.14203095324E+04  0.00000000000E+00 0.  1.
          4   -1    0    0  501    0  0.00000000000E+00 -0.00000000000E+00 -0.35180123576E+02  0.35180123576E+02  0.00000000000E+00 0. -1.
         24    1    1    2    0    0  0.85071284123E+01 -0.33170189375E+02  0.22762229957E+02  0.90321469009E+02  0.80419002446E+02 0. -1.
        -24    1    1    2    0    0 -0.85071284123E+01  0.33170189375E+02  0.13623671788E+04  0.13651681869E+04  0.80419002446E+02 0.  1.
<mgrwt>
<rscale>  0 0.87406228E+02</rscale>
<asrwt>0</asrwt>
<pdfrwt beam="1">  1        4 0.54123278E-02 0.87406228E+02</pdfrwt>
<pdfrwt beam="2">  1       -4 0.21850911E+00 0.87406228E+02</pdfrwt>
<totfact> 0.37712135E+01</totfact>
</mgrwt>
</event>
<event>
 4    1  0.4862093E-001  0.1079938E+03  0.7546771E-02  0.1264331E+00
         -2   -1    0    0    0  501 -0.00000000000E+00  0.00000000000E+00  0.32343810583E+03  0.32343810583E+03  0.00000000000E+00 0.  1.
          2   -1    0    0  501    0  0.00000000000E+00 -0.00000000000E+00 -0.52929542839E+02  0.52929542839E+02  0.00000000000E+00 0. -1.
         24    1    1    2    0    0 -0.60943461727E+02 -0.38488151003E+02  0.29010009881E+02  0.11182235878E+03  0.80419002446E+02 0. -1.
        -24    1    1    2    0    0  0.60943461727E+02  0.38488151003E+02  0.24149855311E+03  0.26454528989E+03  0.80419002446E+02 0.  1.
<mgrwt>
<rscale>  0 0.10799379E+03</rscale>
<asrwt>0</asrwt>
<pdfrwt beam="1">  1        2 0.81430068E-02 0.10799379E+03</pdfrwt>
<pdfrwt beam="2">  1       -2 0.49759707E-01 0.10799379E+03</pdfrwt>
<totfact> 0.30429302E+03</totfact>
</mgrwt>
</event>
<event>
 4    1  0.4862093E-001  0.8118006E+02  0.7546771E-02  0.1325736E+00
          2   -1    0    0  501    0  0.00000000000E+00  0.00000000000E+00  0.16907698161E+04  0.16907698161E+04  0.00000000000E+00 0. -1.
         -2   -1    0    0    0  501 -0.00000000000E+00 -0.00000000000E+00 -0.45036944406E+01  0.45036944406E+01  0.00000000000E+00 0.  1.
         24    1    1    2    0    0 -0.23208541098E+01  0.10844367774E+02  0.11540474012E+04  0.11568991342E+04  0.80419002446E+02 0. -1.
        -24    1    1    2    0    0  0.23208541098E+01 -0.10844367774E+02  0.53221872050E+03  0.53837437632E+03  0.80419002446E+02 0. -1.
<mgrwt>
<rscale>  0 0.81180063E+02</rscale>
<asrwt>0</asrwt>
<pdfrwt beam="1">  1        2 0.26011793E+00 0.81180063E+02</pdfrwt>
<pdfrwt beam="2">  1       -2 0.69287742E-03 0.81180063E+02</pdfrwt>
<totfact> 0.36040390E+04</totfact>
</mgrwt>
</event>
<event>
 4    1  0.4862093E-001  0.8118210E+02  0.7546771E-02  0.1325730E+00
         -4   -1    0    0    0  501 -0.00000000000E+00  0.00000000000E+00  0.41859668092E+02  0.41859668092E+02  0.00000000000E+00 0.  1.
          4   -1    0    0  501    0  0.00000000000E+00 -0.00000000000E+00 -0.16503410818E+03  0.16503410818E+03  0.00000000000E+00 0. -1.
         24    1    1    2    0    0  0.40379326728E+01  0.10344666947E+02 -0.83772690014E+02  0.11665503239E+03  0.80419002446E+02 0. -1.
        -24    1    1    2    0    0 -0.40379326728E+01 -0.10344666947E+02 -0.39401750073E+02  0.90238743884E+02  0.80419002446E+02 0.  0.
<mgrwt>
<rscale>  0 0.81182098E+02</rscale>
<asrwt>0</asrwt>
<pdfrwt beam="1">  1        4 0.25389863E-01 0.81182098E+02</pdfrwt>
<pdfrwt beam="2">  1       -4 0.64399490E-02 0.81182098E+02</pdfrwt>
<totfact> 0.32932899E+03</totfact>
</mgrwt>
</event>
<event>
 4    1  0.4862093E-001  0.9055316E+02  0.7546771E-02  0.1301518E+00
         -1   -1    0    0    0  501 -0.00000000000E+00  0.00000000000E+00  0.35401461283E+03  0.35401461283E+03  0.00000000000E+00 0.  1.
          1   -1    0    0  501    0  0.00000000000E+00 -0.00000000000E+00 -0.30386851021E+02  0.30386851021E+02  0.00000000000E+00 0. -1.
         24    1    1    2    0    0 -0.35588947226E+02 -0.21589011004E+02  0.25552921782E+03  0.27109971537E+03  0.80419002446E+02 0.  0.
        -24    1    1    2    0    0  0.35588947226E+02  0.21589011004E+02  0.68098543990E+02  0.11330174848E+03  0.80419002446E+02 0.  0.
<mgrwt>
<rscale>  0 0.90553159E+02</rscale>
<asrwt>0</asrwt>
<pdfrwt beam="1">  1        1 0.46749004E-02 0.90553159E+02</pdfrwt>
<pdfrwt beam="2">  1       -1 0.54463784E-01 0.90553159E+02</pdfrwt>
<totfact> 0.58869396E+03</totfact>
</mgrwt>
</event>
<event>
 4    1  0.4862093E-001  0.9999758E+02  0.7546771E-02  0.1280301E+00
          2   -1    0    0  501    0  0.00000000000E+00  0.00000000000E+00  0.29184433600E+04  0.29184433600E+04  0.00000000000E+00 0. -1.
         -2   -1    0    0    0  501 -0.00000000000E+00 -0.00000000000E+00 -0.93056595546E+01  0.93056595546E+01  0.00000000000E+00 0.  1.
         24    1    1    2    0    0  0.25564979599E+02 -0.53653818243E+02  0.26181444277E+04  0.26200533888E+04  0.80419002446E+02 0. -1.
        -24    1    1    2    0    0 -0.25564979599E+02  0.53653818243E+02  0.29099327282E+03  0.30769563074E+03  0.80419002446E+02 0.  1.
<mgrwt>
<rscale>  0 0.99997582E+02</rscale>
<asrwt>0</asrwt>
<pdfrwt beam="1">  1        2 0.44899056E+00 0.99997582E+02</pdfrwt>
<pdfrwt beam="2">  1       -2 0.14316423E-02 0.99997582E+02</pdfrwt>
<totfact> 0.29966881E+03</totfact>
</mgrwt>
</event>
<event>
 4    1  0.4862093E-001  0.9676525E+02  0.7546771E-02  0.1287249E+00
         -1   -1    0    0    0  501 -0.00000000000E+00  0.00000000000E+00  0.14507375638E+03  0.14507375638E+03  0.00000000000E+00 0.  1.
          1   -1    0    0  501    0  0.00000000000E+00 -0.00000000000E+00 -0.15479154895E+03  0.15479154895E+03  0.00000000000E+00 0. -1.
         24    1    1    2    0    0 -0.49263945254E+02 -0.21664733677E+02  0.10962447914E+03  0.14622256792E+03  0.80419002446E+02 0.  1.
        -24    1    1    2    0    0  0.49263945254E+02  0.21664733677E+02 -0.11934227172E+03  0.15364273741E+03  0.80419002446E+02 0. -1.
<mgrwt>
<rscale>  0 0.96765247E+02</rscale>
<asrwt>0</asrwt>
<pdfrwt beam="1">  1        1 0.23814084E-01 0.96765247E+02</pdfrwt>
<pdfrwt beam="2">  1       -1 0.22319040E-01 0.96765247E+02</pdfrwt>
<totfact> 0.32437721E+03</totfact>
</mgrwt>
</event>
<event>
 4    1  0.4862093E-001  0.9934051E+02  0.7546771E-02  0.1281689E+00
          1   -1    0    0  501    0  0.00000000000E+00  0.00000000000E+00  0.95392436372E+03  0.95392436372E+03  0.00000000000E+00 0. -1.
         -1   -1    0    0    0  501 -0.00000000000E+00 -0.00000000000E+00 -0.20439358062E+02  0.20439358062E+02  0.00000000000E+00 0.  1.
         24    1    1    2    0    0 -0.58017976470E+02  0.59359173069E+01  0.12437497090E+03  0.15917810794E+03  0.80419002446E+02 0.  1.
        -24    1    1    2    0    0  0.58017976470E+02 -0.59359173069E+01  0.80911003476E+03  0.81518561384E+03  0.80419002446E+02 0. -1.
<mgrwt>
<rscale>  0 0.99340509E+02</rscale>
<asrwt>0</asrwt>
<pdfrwt beam="1">  1        1 0.14675756E+00 0.99340509E+02</pdfrwt>
<pdfrwt beam="2">  1       -1 0.31445174E-02 0.99340509E+02</pdfrwt>
<totfact> 0.58408078E+03</totfact>
</mgrwt>
</event>
<event>
 4    1  0.4862093E-001  0.8275171E+02  0.7546771E-02  0.1321419E+00
         -1   -1    0    0    0  501 -0.00000000000E+00  0.00000000000E+00  0.22716996942E+02  0.22716996942E+02  0.00000000000E+00 0.  1.
          1   -1    0    0  501    0  0.00000000000E+00 -0.00000000000E+00 -0.96695033020E+03  0.96695033020E+03  0.00000000000E+00 0. -1.
         24    1    1    2    0    0 -0.69967150941E+01 -0.18211968384E+02 -0.61596909597E+02  0.10316019116E+03  0.80419002446E+02 0.  0.
        -24    1    1    2    0    0  0.69967150941E+01  0.18211968384E+02 -0.88263642366E+03  0.88650713598E+03  0.80419002446E+02 0.  0.
<mgrwt>
<rscale>  0 0.82751712E+02</rscale>
<asrwt>0</asrwt>
<pdfrwt beam="1">  1        1 0.14876159E+00 0.82751712E+02</pdfrwt>
<pdfrwt beam="2">  1       -1 0.34949226E-02 0.82751712E+02</pdfrwt>
<totfact> 0.48593325E+03</totfact>
</mgrwt>
</event>
<event>
 4    1  0.4862093E-001  0.8179791E+02  0.7546771E-02  0.1324025E+00
         -1   -1    0    0    0  501 -0.00000000000E+00  0.00000000000E+00  0.55518612565E+01  0.55518612565E+01  0.00000000000E+00 0.  1.
          1   -1    0    0  501    0  0.00000000000E+00 -0.00000000000E+00 -0.17486708105E+04  0.17486708105E+04  0.00000000000E+00 0. -1.
         24    1    1    2    0    0  0.51819991273E+01  0.14029597517E+02 -0.38256548291E+03  0.39121253481E+03  0.80419002446E+02 0.  0.
        -24    1    1    2    0    0 -0.51819991273E+01 -0.14029597517E+02 -0.13605534663E+04  0.13630101369E+04  0.80419002446E+02 0. -1.
<mgrwt>
<rscale>  0 0.81797914E+02</rscale>
<asrwt>0</asrwt>
<pdfrwt beam="1">  1        1 0.26902620E+00 0.81797914E+02</pdfrwt>
<pdfrwt beam="2">  1       -1 0.85413275E-03 0.81797914E+02</pdfrwt>
<totfact> 0.11005026E+04</totfact>
</mgrwt>
</event>
<event>
 4    1  0.4862093E-001  0.1006725E+03  0.7546771E-02  0.1278888E+00
          4   -1    0    0  501    0  0.00000000000E+00  0.00000000000E+00  0.83653639990E+02  0.83653639990E+02  0.00000000000E+00 0. -1.
         -4   -1    0    0    0  501 -0.00000000000E+00 -0.00000000000E+00 -0.13283233950E+03  0.13283233950E+03  0.00000000000E+00 0.  1.
         24    1    1    2    0    0 -0.11582728781E+01 -0.60550831054E+02  0.75059306618E+01  0.10095196723E+03  0.80419002446E+02 0.  1.
        -24    1    1    2    0    0  0.11582728781E+01  0.60550831054E+02 -0.56684630167E+02  0.11553401226E+03  0.80419002446E+02 0. -1.
<mgrwt>
<rscale>  0 0.10067254E+03</rscale>
<asrwt>0</asrwt>
<pdfrwt beam="1">  1        4 0.12869791E-01 0.10067254E+03</pdfrwt>
<pdfrwt beam="2">  1       -4 0.20435744E-01 0.10067254E+03</pdfrwt>
<totfact> 0.16380656E+03</totfact>
</mgrwt>
</event>
<event>
 4    1  0.4862093E-001  0.8096486E+02  0.7546771E-02  0.1326335E+00
          1   -1    0    0  501    0  0.00000000000E+00  0.00000000000E+00  0.30033821076E+03  0.30033821076E+03  0.00000000000E+00 0. -1.
         -1   -1    0    0    0  501 -0.00000000000E+00 -0.00000000000E+00 -0.13480661338E+03  0.13480661338E+03  0.00000000000E+00 0.  1.
         24    1    1    2    0    0 -0.81420882954E+01 -0.46689252735E+01 -0.11641587667E+03  0.14180255555E+03  0.80419002446E+02 0.  1.
        -24    1    1    2    0    0  0.81420882954E+01  0.46689252735E+01  0.28194747405E+03  0.29334226859E+03  0.80419002446E+02 0. -1.
<mgrwt>
<rscale>  0 0.80964859E+02</rscale>
<asrwt>0</asrwt>
<pdfrwt beam="1">  1        1 0.46205878E-01 0.80964859E+02</pdfrwt>
<pdfrwt beam="2">  1       -1 0.20739479E-01 0.80964859E+02</pdfrwt>
<totfact> 0.16051045E+03</totfact>
</mgrwt>
</event>
<event>
 4    1  0.4862093E-001  0.9099862E+02  0.7546771E-02  0.1300451E+00
          2   -1    0    0  501    0  0.00000000000E+00  0.00000000000E+00  0.76088407408E+03  0.76088407408E+03  0.00000000000E+00 0. -1.
         -2   -1    0    0    0  501 -0.00000000000E+00 -0.00000000000E+00 -0.21941857942E+02  0.21941857942E+02  0.00000000000E+00 0.  1.
         24    1    1    2    0    0  0.41650995130E+02 -0.88728063764E+01  0.64734800728E+03  0.65371262079E+03  0.80419002446E+02 0. -1.
        -24    1    1    2    0    0 -0.41650995130E+02  0.88728063764E+01  0.91594208859E+02  0.12911331124E+03  0.80419002446E+02 0.  1.
<mgrwt>
<rscale>  0 0.90998616E+02</rscale>
<asrwt>0</asrwt>
<pdfrwt beam="1">  1        2 0.11705907E+00 0.90998616E+02</pdfrwt>
<pdfrwt beam="2">  1       -2 0.33756710E-02 0.90998616E+02</pdfrwt>
<totfact> 0.12447619E+04</totfact>
</mgrwt>
</event>
<event>
 4    1  0.4862093E-001  0.1116121E+03  0.7546771E-02  0.1257613E+00
          1   -1    0    0  501    0  0.00000000000E+00  0.00000000000E+00  0.22470798916E+04  0.22470798916E+04  0.00000000000E+00 0. -1.
         -1   -1    0    0    0  501 -0.00000000000E+00 -0.00000000000E+00 -0.58398149862E+01  0.58398149862E+01  0.00000000000E+00 0.  1.
         24    1    1    2    0    0  0.74177098551E+02  0.22086073506E+02  0.86698538495E+03  0.87414009762E+03  0.80419002446E+02 0.  1.
        -24    1    1    2    0    0 -0.74177098551E+02 -0.22086073506E+02  0.13742546917E+04  0.13787796090E+04  0.80419002446E+02 0. -1.
<mgrwt>
<rscale>  0 0.11161206E+03</rscale>
<asrwt>0</asrwt>
<pdfrwt beam="1">  1        1 0.34570391E+00 0.11161206E+03</pdfrwt>
<pdfrwt beam="2">  1       -1 0.89843487E-03 0.11161206E+03</pdfrwt>
<totfact> 0.50434906E+03</totfact>
</mgrwt>
</event>
<event>
 4    1  0.4862093E-001  0.1089984E+03  0.7546771E-02  0.1262436E+00
          2   -1    0    0  501    0  0.00000000000E+00  0.00000000000E+00  0.42435139717E+03  0.42435139717E+03  0.00000000000E+00 0. -1.
         -2   -1    0    0    0  501 -0.00000000000E+00 -0.00000000000E+00 -0.35727642796E+02  0.35727642796E+02  0.00000000000E+00 0.  1.
         24    1    1    2    0    0 -0.42556285221E+02  0.60019907197E+02  0.30131661480E+03  0.32042525647E+03  0.80419002446E+02 0. -1.
        -24    1    1    2    0    0  0.42556285221E+02 -0.60019907197E+02  0.87307139577E+02  0.13965378351E+03  0.80419002446E+02 0.  1.
<mgrwt>
<rscale>  0 0.10899836E+03</rscale>
<asrwt>0</asrwt>
<pdfrwt beam="1">  1        2 0.65284827E-01 0.10899836E+03</pdfrwt>
<pdfrwt beam="2">  1       -2 0.54965607E-02 0.10899836E+03</pdfrwt>
<totfact> 0.11791971E+04</totfact>
</mgrwt>
</event>
<event>
 4    1  0.4862093E-001  0.8893141E+02  0.7546771E-02  0.1305460E+00
          2   -1    0    0  501    0  0.00000000000E+00  0.00000000000E+00  0.43249897881E+03  0.43249897881E+03  0.00000000000E+00 0. -1.
         -2   -1    0    0    0  501 -0.00000000000E+00 -0.00000000000E+00 -0.18660142220E+02  0.18660142220E+02  0.00000000000E+00 0.  1.
         24    1    1    2    0    0  0.37960905193E+02 -0.74122893774E+00  0.23884952597E+03  0.25486838124E+03  0.80419002446E+02 0. -1.
        -24    1    1    2    0    0 -0.37960905193E+02  0.74122893774E+00  0.17498931062E+03  0.19629073979E+03  0.80419002446E+02 0.  1.
<mgrwt>
<rscale>  0 0.88931410E+02</rscale>
<asrwt>0</asrwt>
<pdfrwt beam="1">  1        2 0.66538296E-01 0.88931410E+02</pdfrwt>
<pdfrwt beam="2">  1       -2 0.28707915E-02 0.88931410E+02</pdfrwt>
<totfact> 0.29513625E+04</totfact>
</mgrwt>
</event>
<event>
 4    1  0.4862093E-001  0.8540008E+02  0.7546771E-02  0.1314390E+00
          1   -1    0    0  501    0  0.00000000000E+00  0.00000000000E+00  0.16358985805E+04  0.16358985805E+04  0.00000000000E+00 0. -1.
         -1   -1    0    0    0  501 -0.00000000000E+00 -0.00000000000E+00 -0.51531166761E+01  0.51531166761E+01  0.00000000000E+00 0.  1.
         24    1    1    2    0    0  0.28117978869E+02 -0.59445469306E+01  0.51405721870E+03  0.52110267552E+03  0.80419002446E+02 0.  1.
        -24    1    1    2    0    0 -0.28117978869E+02  0.59445469306E+01  0.11166882451E+04  0.11199490216E+04  0.80419002446E+02 0. -1.
<mgrwt>
<rscale>  0 0.85400084E+02</rscale>
<asrwt>0</asrwt>
<pdfrwt beam="1">  1        1 0.25167629E+00 0.85400084E+02</pdfrwt>
<pdfrwt beam="2">  1       -1 0.79278849E-03 0.85400084E+02</pdfrwt>
<totfact> 0.14418673E+04</totfact>
</mgrwt>
</event>
<event>
 4    1  0.4862093E-001  0.1246407E+03  0.7546771E-02  0.1235632E+00
          2   -1    0    0  501    0  0.00000000000E+00  0.00000000000E+00  0.98402276037E+03  0.98402276037E+03  0.00000000000E+00 0. -1.
         -2   -1    0    0    0  501 -0.00000000000E+00 -0.00000000000E+00 -0.43420359928E+02  0.43420359928E+02  0.00000000000E+00 0.  1.
         24    1    1    2    0    0  0.20488687011E+02 -0.92996231312E+02  0.88012168805E+03  0.88890353080E+03  0.80419002446E+02 0. -1.
        -24    1    1    2    0    0 -0.20488687011E+02  0.92996231312E+02  0.60480712397E+02  0.13853958950E+03  0.80419002446E+02 0.  1.
<mgrwt>
<rscale>  0 0.12464069E+03</rscale>
<asrwt>0</asrwt>
<pdfrwt beam="1">  1        2 0.15138810E+00 0.12464069E+03</pdfrwt>
<pdfrwt beam="2">  1       -2 0.66800561E-02 0.12464069E+03</pdfrwt>
<totfact> 0.33014613E+03</totfact>
</mgrwt>
</event>
<event>
 4    1  0.4862093E-001  0.1030734E+03  0.7546771E-02  0.1273963E+00
         -1   -1    0    0    0  501 -0.00000000000E+00  0.00000000000E+00  0.14475031167E+03  0.14475031167E+03  0.00000000000E+00 0.  1.
          1   -1    0    0  501    0  0.00000000000E+00 -0.00000000000E+00 -0.10073555625E+03  0.10073555625E+03  0.00000000000E+00 0. -1.
         24    1    1    2    0    0  0.61194249992E+02  0.20301905320E+02  0.85951322892E+02  0.13420785913E+03  0.80419002446E+02 0.  1.
        -24    1    1    2    0    0 -0.61194249992E+02 -0.20301905320E+02 -0.41936567472E+02  0.11127800878E+03  0.80419002446E+02 0. -1.
<mgrwt>
<rscale>  0 0.10307337E+03</rscale>
<asrwt>0</asrwt>
<pdfrwt beam="1">  1        1 0.15497778E-01 0.10307337E+03</pdfrwt>
<pdfrwt beam="2">  1       -1 0.22269279E-01 0.10307337E+03</pdfrwt>
<totfact> 0.56235216E+03</totfact>
</mgrwt>
</event>
<event>
 4    1  0.4862093E-001  0.1179250E+03  0.7546771E-02  0.1246560E+00
          2   -1    0    0  501    0  0.00000000000E+00  0.00000000000E+00  0.35773840195E+03  0.35773840195E+03  0.00000000000E+00 0. -1.
         -2   -1    0    0    0  501 -0.00000000000E+00 -0.00000000000E+00 -0.17227524407E+03  0.17227524407E+03  0.00000000000E+00 0.  1.
         24    1    1    2    0    0  0.82057809136E+02  0.26563415108E+02  0.32593097070E+03  0.34660829862E+03  0.80419002446E+02 0. -1.
        -24    1    1    2    0    0 -0.82057809136E+02 -0.26563415108E+02 -0.14046781281E+03  0.18340534739E+03  0.80419002446E+02 0.  1.
<mgrwt>
<rscale>  0 0.11792504E+03</rscale>
<asrwt>0</asrwt>
<pdfrwt beam="1">  1        2 0.55036677E-01 0.11792504E+03</pdfrwt>
<pdfrwt beam="2">  1       -2 0.26503884E-01 0.11792504E+03</pdfrwt>
<totfact> 0.11393713E+03</totfact>
</mgrwt>
</event>
<event>
 4    1  0.4862093E-001  0.9025175E+02  0.7546771E-02  0.1302243E+00
         -2   -1    0    0    0  501 -0.00000000000E+00  0.00000000000E+00  0.16629807068E+02  0.16629807068E+02  0.00000000000E+00 0.  1.
          2   -1    0    0  501    0  0.00000000000E+00 -0.00000000000E+00 -0.57890253512E+03  0.57890253512E+03  0.00000000000E+00 0. -1.
         24    1    1    2    0    0  0.33343965258E+02  0.23797955154E+02 -0.39795257939E+03  0.40805837093E+03  0.80419002446E+02 0. -1.
        -24    1    1    2    0    0 -0.33343965258E+02 -0.23797955154E+02 -0.16432014866E+03  0.18747397126E+03  0.80419002446E+02 0.  1.
<mgrwt>
<rscale>  0 0.90251751E+02</rscale>
<asrwt>0</asrwt>
<pdfrwt beam="1">  1        2 0.89061914E-01 0.90251751E+02</pdfrwt>
<pdfrwt beam="2">  1       -2 0.25584323E-02 0.90251751E+02</pdfrwt>
<totfact> 0.25482405E+04</totfact>
</mgrwt>
</event>
<event>
 4    1  0.4862093E-001  0.9095245E+02  0.7546771E-02  0.1300561E+00
         -4   -1    0    0    0  501 -0.00000000000E+00  0.00000000000E+00  0.58984677116E+02  0.58984677116E+02  0.00000000000E+00 0.  1.
          4   -1    0    0  501    0  0.00000000000E+00 -0.00000000000E+00 -0.17671296472E+03  0.17671296472E+03  0.00000000000E+00 0. -1.
         24    1    1    2    0    0 -0.26715688941E+02 -0.33036408245E+02 -0.11239972678E+03  0.14458923487E+03  0.80419002446E+02 0. -1.
        -24    1    1    2    0    0  0.26715688941E+02  0.33036408245E+02 -0.53285608256E+01  0.91108406968E+02  0.80419002446E+02 0.  1.
<mgrwt>
<rscale>  0 0.90952451E+02</rscale>
<asrwt>0</asrwt>
<pdfrwt beam="1">  1        4 0.27186610E-01 0.90952451E+02</pdfrwt>
<pdfrwt beam="2">  1       -4 0.90745658E-02 0.90952451E+02</pdfrwt>
<totfact> 0.17103894E+03</totfact>
</mgrwt>
</event>
<event>
 4    1  0.4862093E-001  0.8723680E+02  0.7546771E-02  0.1309685E+00
         -4   -1    0    0    0  501 -0.00000000000E+00  0.00000000000E+00  0.12152366129E+04  0.12152366129E+04  0.00000000000E+00 0.  1.
          4   -1    0    0  501    0  0.00000000000E+00 -0.00000000000E+00 -0.76568210939E+01  0.76568210939E+01  0.00000000000E+00 0. -1.
         24    1    1    2    0    0 -0.19020898681E+02 -0.27950831182E+02  0.34285254901E+03  0.35377694931E+03  0.80419002446E+02 0. -1.
        -24    1    1    2    0    0  0.19020898681E+02  0.27950831182E+02  0.86472724281E+03  0.86911648470E+03  0.80419002446E+02 0.  1.
<mgrwt>
<rscale>  0 0.87236801E+02</rscale>
<asrwt>0</asrwt>
<pdfrwt beam="1">  1        4 0.11779734E-02 0.87236801E+02</pdfrwt>
<pdfrwt beam="2">  1       -4 0.18695933E+00 0.87236801E+02</pdfrwt>
<totfact> 0.61615053E+02</totfact>
</mgrwt>
</event>
<event>
 4    1  0.4862093E-001  0.8846883E+02  0.7546771E-02  0.1306603E+00
         -2   -1    0    0    0  501 -0.00000000000E+00  0.00000000000E+00  0.31215470075E+02  0.31215470075E+02  0.00000000000E+00 0.  1.
          2   -1    0    0  501    0  0.00000000000E+00 -0.00000000000E+00 -0.28220790452E+03  0.28220790452E+03  0.00000000000E+00 0. -1.
         24    1    1    2    0    0 -0.35364134442E+02 -0.10435343866E+02 -0.17783240994E+03  0.19862301071E+03  0.80419002446E+02 0. -1.
        -24    1    1    2    0    0  0.35364134442E+02  0.10435343866E+02 -0.73160024502E+02  0.11480036388E+03  0.80419002446E+02 0.  1.
<mgrwt>
<rscale>  0 0.88468833E+02</rscale>
<asrwt>0</asrwt>
<pdfrwt beam="1">  1        2 0.43416600E-01 0.88468833E+02</pdfrwt>
<pdfrwt beam="2">  1       -2 0.48023801E-02 0.88468833E+02</pdfrwt>
<totfact> 0.21707399E+04</totfact>
</mgrwt>
</event>
<event>
 4    1  0.4862093E-001  0.1116044E+03  0.7546771E-02  0.1257627E+00
          1   -1    0    0  501    0  0.00000000000E+00  0.00000000000E+00  0.49539553312E+03  0.49539553312E+03  0.00000000000E+00 0. -1.
         -1   -1    0    0    0  501 -0.00000000000E+00 -0.00000000000E+00 -0.46019855070E+02  0.46019855070E+02  0.00000000000E+00 0.  1.
         24    1    1    2    0    0  0.11189307938E+02  0.76571050453E+02  0.42355185563E+02  0.11937128666E+03  0.80419002446E+02 0.  1.
        -24    1    1    2    0    0 -0.11189307938E+02 -0.76571050453E+02  0.40702049249E+03  0.42204410153E+03  0.80419002446E+02 0. -1.
<mgrwt>
<rscale>  0 0.11160440E+03</rscale>
<asrwt>0</asrwt>
<pdfrwt beam="1">  1        1 0.76214694E-01 0.11160440E+03</pdfrwt>
<pdfrwt beam="2">  1       -1 0.70799781E-02 0.11160440E+03</pdfrwt>
<totfact> 0.45387557E+03</totfact>
</mgrwt>
</event>
<event>
 4    1  0.4862093E-001  0.1040386E+03  0.7546771E-02  0.1272026E+00
         -1   -1    0    0    0  501 -0.00000000000E+00  0.00000000000E+00  0.45981723115E+02  0.45981723115E+02  0.00000000000E+00 0.  1.
          1   -1    0    0  501    0  0.00000000000E+00 -0.00000000000E+00 -0.70138559366E+03  0.70138559366E+03  0.00000000000E+00 0. -1.
         24    1    1    2    0    0  0.31226839857E+02 -0.58152327491E+02 -0.23114019000E+02  0.10657524360E+03  0.80419002446E+02 0.  1.
        -24    1    1    2    0    0 -0.31226839857E+02  0.58152327491E+02 -0.63228985154E+03  0.64079207317E+03  0.80419002446E+02 0. -1.
<mgrwt>
<rscale>  0 0.10403857E+03</rscale>
<asrwt>0</asrwt>
<pdfrwt beam="1">  1        1 0.10790547E+00 0.10403857E+03</pdfrwt>
<pdfrwt beam="2">  1       -1 0.70741117E-02 0.10403857E+03</pdfrwt>
<totfact> 0.28361768E+03</totfact>
</mgrwt>
</event>
<event>
 4    1  0.4862093E-001  0.8523000E+02  0.7546771E-02  0.1314832E+00
         -2   -1    0    0    0  501 -0.00000000000E+00  0.00000000000E+00  0.39878511704E+01  0.39878511704E+01  0.00000000000E+00 0.  1.
          2   -1    0    0  501    0  0.00000000000E+00 -0.00000000000E+00 -0.18314066396E+04  0.18314066396E+04  0.00000000000E+00 0. -1.
         24    1    1    2    0    0 -0.24092150149E+02 -0.14714132426E+02 -0.98096247808E+03  0.98465808114E+03  0.80419002446E+02 0. -1.
        -24    1    1    2    0    0  0.24092150149E+02  0.14714132426E+02 -0.84645631033E+03  0.85073640961E+03  0.80419002446E+02 0.  1.
<mgrwt>
<rscale>  0 0.85230003E+02</rscale>
<asrwt>0</asrwt>
<pdfrwt beam="1">  1        2 0.28175524E+00 0.85230003E+02</pdfrwt>
<pdfrwt beam="2">  1       -2 0.61351476E-03 0.85230003E+02</pdfrwt>
<totfact> 0.36510458E+04</totfact>
</mgrwt>
</event>
<event>
 4    1  0.4862093E-001  0.9054915E+02  0.7546771E-02  0.1301527E+00
         -1   -1    0    0    0  501 -0.00000000000E+00  0.00000000000E+00  0.17765166235E+02  0.17765166235E+02  0.00000000000E+00 0.  1.
          1   -1    0    0  501    0  0.00000000000E+00 -0.00000000000E+00 -0.46156483487E+03  0.46156483487E+03  0.00000000000E+00 0. -1.
         24    1    1    2    0    0 -0.31163873121E+02 -0.27581541109E+02 -0.22400336034E+03  0.24161260273E+03  0.80419002446E+02 0. -1.
        -24    1    1    2    0    0  0.31163873121E+02  0.27581541109E+02 -0.21979630829E+03  0.23771739838E+03  0.80419002446E+02 0.  1.
<mgrwt>
<rscale>  0 0.90549138E+02</rscale>
<asrwt>0</asrwt>
<pdfrwt beam="1">  1        1 0.71009983E-01 0.90549149E+02</pdfrwt>
<pdfrwt beam="2">  1       -1 0.27331022E-02 0.90549149E+02</pdfrwt>
<totfact> 0.19660313E+04</totfact>
</mgrwt>
</event>
<event>
 4    1  0.4862093E-001  0.8057841E+02  0.7546771E-02  0.1327418E+00
         -2   -1    0    0    0  501 -0.00000000000E+00  0.00000000000E+00  0.92805643484E+01  0.92805643484E+01  0.00000000000E+00 0.  1.
          2   -1    0    0  501    0  0.00000000000E+00 -0.00000000000E+00 -0.70197653924E+03  0.70197653924E+03  0.00000000000E+00 0. -1.
         24    1    1    2    0    0 -0.47995693057E+01 -0.16201574294E+01 -0.32574689607E+03  0.33556507123E+03  0.80419002446E+02 0.  0.
        -24    1    1    2    0    0  0.47995693057E+01  0.16201574294E+01 -0.36694907882E+03  0.37569203235E+03  0.80419002446E+02 0. -1.
<mgrwt>
<rscale>  0 0.80578399E+02</rscale>
<asrwt>0</asrwt>
<pdfrwt beam="1">  1        2 0.10799638E+00 0.80578409E+02</pdfrwt>
<pdfrwt beam="2">  1       -2 0.14277792E-02 0.80578409E+02</pdfrwt>
<totfact> 0.46624038E+04</totfact>
</mgrwt>
</event>
<event>
 4    1  0.4862093E-001  0.1108473E+03  0.7546771E-02  0.1259009E+00
          2   -1    0    0  501    0  0.00000000000E+00  0.00000000000E+00  0.26484603927E+04  0.26484603927E+04  0.00000000000E+00 0. -1.
         -2   -1    0    0    0  501 -0.00000000000E+00 -0.00000000000E+00 -0.46781523059E+01  0.46781523059E+01  0.00000000000E+00 0.  1.
         24    1    1    2    0    0 -0.40452690614E+02 -0.64679950036E+02  0.14427078649E+04  0.14469599565E+04  0.80419002446E+02 0.  1.
        -24    1    1    2    0    0  0.40452690614E+02  0.64679950036E+02  0.12010743754E+04  0.12061785885E+04  0.80419002446E+02 0. -1.
<mgrwt>
<rscale>  0 0.11084734E+03</rscale>
<asrwt>0</asrwt>
<pdfrwt beam="1">  1        2 0.40745425E+00 0.11084734E+03</pdfrwt>
<pdfrwt beam="2">  1       -2 0.71971785E-03 0.11084734E+03</pdfrwt>
<totfact> 0.11228525E+04</totfact>
</mgrwt>
</event>
<event>
 4    1  0.4862093E-001  0.1058969E+03  0.7546771E-02  0.1268363E+00
          1   -1    0    0  501    0  0.00000000000E+00  0.00000000000E+00  0.15318136066E+03  0.15318136066E+03  0.00000000000E+00 0. -1.
         -1   -1    0    0    0  501 -0.00000000000E+00 -0.00000000000E+00 -0.93109122090E+02  0.93109122090E+02  0.00000000000E+00 0.  1.
         24    1    1    2    0    0  0.12801989617E+02 -0.67698168696E+02 -0.26895939542E+02  0.10925905226E+03  0.80419002446E+02 0.  1.
        -24    1    1    2    0    0 -0.12801989617E+02  0.67698168696E+02  0.86968178111E+02  0.13703143049E+03  0.80419002446E+02 0. -1.
<mgrwt>
<rscale>  0 0.10589688E+03</rscale>
<asrwt>0</asrwt>
<pdfrwt beam="1">  1        1 0.23566363E-01 0.10589688E+03</pdfrwt>
<pdfrwt beam="2">  1       -1 0.14324480E-01 0.10589688E+03</pdfrwt>
<totfact> 0.66571081E+03</totfact>
</mgrwt>
</event>
<event>
 4    1  0.4862093E-001  0.8525025E+02  0.7546771E-02  0.1314779E+00
         -2   -1    0    0    0  501 -0.00000000000E+00  0.00000000000E+00  0.19073271424E+03  0.19073271424E+03  0.00000000000E+00 0.  1.
          2   -1    0    0  501    0  0.00000000000E+00 -0.00000000000E+00 -0.99647768568E+03  0.99647768568E+03  0.00000000000E+00 0. -1.
         24    1    1    2    0    0  0.21842979751E+02 -0.17979822564E+02 -0.98501783936E+03  0.98870003014E+03  0.80419002446E+02 0. -1.
        -24    1    1    2    0    0 -0.21842979751E+02  0.17979822564E+02  0.17927286792E+03  0.19851036978E+03  0.80419002446E+02 0.  1.
<mgrwt>
<rscale>  0 0.85250254E+02</rscale>
<asrwt>0</asrwt>
<pdfrwt beam="1">  1        2 0.15330426E+00 0.85250254E+02</pdfrwt>
<pdfrwt beam="2">  1       -2 0.29343495E-01 0.85250254E+02</pdfrwt>
<totfact> 0.29366939E+02</totfact>
</mgrwt>
</event>
<event>
 4    1  0.4862093E-001  0.9361870E+02  0.7546771E-02  0.1294318E+00
          1   -1    0    0  501    0  0.00000000000E+00  0.00000000000E+00  0.16294207139E+04  0.16294207139E+04  0.00000000000E+00 0. -1.
         -1   -1    0    0    0  501 -0.00000000000E+00 -0.00000000000E+00 -0.16351661232E+02  0.16351661232E+02  0.00000000000E+00 0.  1.
         24    1    1    2    0    0  0.39360245207E+02  0.27349884902E+02  0.13244564905E+03  0.16219220393E+03  0.80419002446E+02 0.  1.
        -24    1    1    2    0    0 -0.39360245207E+02 -0.27349884902E+02  0.14806234036E+04  0.14835801712E+04  0.80419002446E+02 0. -1.
<mgrwt>
<rscale>  0 0.93618700E+02</rscale>
<asrwt>0</asrwt>
<pdfrwt beam="1">  1        1 0.25067998E+00 0.93618700E+02</pdfrwt>
<pdfrwt beam="2">  1       -1 0.25156415E-02 0.93618700E+02</pdfrwt>
<totfact> 0.28422648E+03</totfact>
</mgrwt>
</event>
<event>
 4    1  0.4862093E-001  0.9601915E+02  0.7546771E-02  0.1288897E+00
          2   -1    0    0  501    0  0.00000000000E+00  0.00000000000E+00  0.88484112253E+03  0.88484112253E+03  0.00000000000E+00 0. -1.
         -2   -1    0    0    0  501 -0.00000000000E+00 -0.00000000000E+00 -0.13912558196E+02  0.13912558196E+02  0.00000000000E+00 0.  1.
         24    1    1    2    0    0  0.47460191601E+02  0.22360472135E+02  0.66063135100E+03  0.66757281130E+03  0.80419002446E+02 0.  1.
        -24    1    1    2    0    0 -0.47460191601E+02 -0.22360472135E+02  0.21029721333E+03  0.23118086943E+03  0.80419002446E+02 0. -1.
<mgrwt>
<rscale>  0 0.96019146E+02</rscale>
<asrwt>0</asrwt>
<pdfrwt beam="1">  1        2 0.13612936E+00 0.96019146E+02</pdfrwt>
<pdfrwt beam="2">  1       -2 0.21403943E-02 0.96019146E+02</pdfrwt>
<totfact> 0.20086265E+04</totfact>
</mgrwt>
</event>
<event>
 4    1  0.4862093E-001  0.8644212E+02  0.7546771E-02  0.1311704E+00
         -2   -1    0    0    0  501 -0.00000000000E+00  0.00000000000E+00  0.54252406274E+02  0.54252406274E+02  0.00000000000E+00 0.  1.
          2   -1    0    0  501    0  0.00000000000E+00 -0.00000000000E+00 -0.19322666619E+03  0.19322666619E+03  0.00000000000E+00 0. -1.
         24    1    1    2    0    0 -0.26903161847E+02  0.16770322402E+02 -0.13580099965E+03  0.16097872931E+03  0.80419002446E+02 0. -1.
        -24    1    1    2    0    0  0.26903161847E+02 -0.16770322402E+02 -0.31732602695E+01  0.86500343155E+02  0.80419002446E+02 0.  1.
<mgrwt>
<rscale>  0 0.86442118E+02</rscale>
<asrwt>0</asrwt>
<pdfrwt beam="1">  1        2 0.29727179E-01 0.86442118E+02</pdfrwt>
<pdfrwt beam="2">  1       -2 0.83465242E-02 0.86442118E+02</pdfrwt>
<totfact> 0.14057163E+04</totfact>
</mgrwt>
</event>
<event>
 4    1  0.4862093E-001  0.8149007E+02  0.7546771E-02  0.1324875E+00
          1   -1    0    0  501    0  0.00000000000E+00  0.00000000000E+00  0.10946153395E+04  0.10946153395E+04  0.00000000000E+00 0. -1.
         -1   -1    0    0    0  501 -0.00000000000E+00 -0.00000000000E+00 -0.78279704845E+01  0.78279704845E+01  0.00000000000E+00 0.  1.
         24    1    1    2    0    0 -0.49042947926E+01  0.12221460890E+02  0.28192319861E+03  0.29346434550E+03  0.80419002446E+02 0.  1.
        -24    1    1    2    0    0  0.49042947926E+01 -0.12221460890E+02  0.80486417041E+03  0.80897896449E+03  0.80419002446E+02 0.  0.
<mgrwt>
<rscale>  0 0.81490074E+02</rscale>
<asrwt>0</asrwt>
<pdfrwt beam="1">  1        1 0.16840224E+00 0.81490074E+02</pdfrwt>
<pdfrwt beam="2">  1       -1 0.12043040E-02 0.81490074E+02</pdfrwt>
<totfact> 0.17977745E+04</totfact>
</mgrwt>
</event>
<event>
 4    1  0.4862093E-001  0.9240422E+02  0.7546771E-02  0.1297132E+00
          2   -1    0    0  501    0  0.00000000000E+00  0.00000000000E+00  0.21071571826E+04  0.21071571826E+04  0.00000000000E+00 0. -1.
         -2   -1    0    0    0  501 -0.00000000000E+00 -0.00000000000E+00 -0.24527940682E+02  0.24527940682E+02  0.00000000000E+00 0.  1.
         24    1    1    2    0    0  0.43067893818E+02 -0.14713277975E+02  0.20151437028E+04  0.20172611836E+04  0.80419002446E+02 0. -1.
        -24    1    1    2    0    0 -0.43067893818E+02  0.14713277975E+02  0.67485539137E+02  0.11442393969E+03  0.80419002446E+02 0.  1.
<mgrwt>
<rscale>  0 0.92404221E+02</rscale>
<asrwt>0</asrwt>
<pdfrwt beam="1">  1        2 0.32417789E+00 0.92404221E+02</pdfrwt>
<pdfrwt beam="2">  1       -2 0.37735310E-02 0.92404221E+02</pdfrwt>
<totfact> 0.19860432E+03</totfact>
</mgrwt>
</event>
<event>
 4    1  0.4862093E-001  0.9130855E+02  0.7546771E-02  0.1299713E+00
          2   -1    0    0  501    0  0.00000000000E+00  0.00000000000E+00  0.31257491709E+03  0.31257491709E+03  0.00000000000E+00 0. -1.
         -2   -1    0    0    0  501 -0.00000000000E+00 -0.00000000000E+00 -0.26969435417E+02  0.26969435417E+02  0.00000000000E+00 0.  1.
         24    1    1    2    0    0  0.42976227189E+02  0.48040749956E+01  0.16060746256E+03  0.18474849993E+03  0.80419002446E+02 0. -1.
        -24    1    1    2    0    0 -0.42976227189E+02 -0.48040749956E+01  0.12499801911E+03  0.15479585258E+03  0.80419002446E+02 0.  0.
<mgrwt>
<rscale>  0 0.91308549E+02</rscale>
<asrwt>0</asrwt>
<pdfrwt beam="1">  1        2 0.48088446E-01 0.91308549E+02</pdfrwt>
<pdfrwt beam="2">  1       -2 0.41491441E-02 0.91308549E+02</pdfrwt>
<totfact> 0.24297802E+04</totfact>
</mgrwt>
</event>
<event>
 4    1  0.4862093E-001  0.8221380E+02  0.7546771E-02  0.1322884E+00
          4   -1    0    0  501    0  0.00000000000E+00  0.00000000000E+00  0.18229633336E+04  0.18229633336E+04  0.00000000000E+00 0. -1.
         -4   -1    0    0    0  501 -0.00000000000E+00 -0.00000000000E+00 -0.11936708770E+03  0.11936708770E+03  0.00000000000E+00 0.  1.
         24    1    1    2    0    0  0.13270937551E+02  0.10759860226E+02  0.18077612728E+04  0.18096297764E+04  0.80419002446E+02 0. -1.
        -24    1    1    2    0    0 -0.13270937551E+02 -0.10759860226E+02 -0.10416502688E+03  0.13270064489E+03  0.80419002446E+02 0.  1.
<mgrwt>
<rscale>  0 0.82213796E+02</rscale>
<asrwt>0</asrwt>
<pdfrwt beam="1">  1        4 0.28045588E+00 0.82213796E+02</pdfrwt>
<pdfrwt beam="2">  1       -4 0.18364169E-01 0.82213796E+02</pdfrwt>
<totfact> 0.21616019E+00</totfact>
</mgrwt>
</event>
<event>
 4    1  0.4862093E-001  0.8610742E+02  0.7546771E-02  0.1312562E+00
         -2   -1    0    0    0  501 -0.00000000000E+00  0.00000000000E+00  0.48413942608E+02  0.48413942608E+02  0.00000000000E+00 0.  1.
          2   -1    0    0  501    0  0.00000000000E+00 -0.00000000000E+00 -0.87574343100E+03  0.87574343100E+03  0.00000000000E+00 0. -1.
         24    1    1    2    0    0  0.68398185134E+01  0.30008145532E+02 -0.83339972471E+03  0.83783625430E+03  0.80419002446E+02 0. -1.
        -24    1    1    2    0    0 -0.68398185134E+01 -0.30008145532E+02  0.60702363188E+01  0.86321119310E+02  0.80419002446E+02 0.  1.
<mgrwt>
<rscale>  0 0.86107421E+02</rscale>
<asrwt>0</asrwt>
<pdfrwt beam="1">  1        2 0.13472975E+00 0.86107421E+02</pdfrwt>
<pdfrwt beam="2">  1       -2 0.74482993E-02 0.86107421E+02</pdfrwt>
<totfact> 0.32188289E+03</totfact>
</mgrwt>
</event>
<event>
 4    1  0.4862093E-001  0.8290217E+02  0.7546771E-02  0.1321012E+00
          4   -1    0    0  501    0  0.00000000000E+00  0.00000000000E+00  0.50821337550E+03  0.50821337550E+03  0.00000000000E+00 0. -1.
         -4   -1    0    0    0  501 -0.00000000000E+00 -0.00000000000E+00 -0.28515180069E+02  0.28515180069E+02  0.00000000000E+00 0.  1.
         24    1    1    2    0    0 -0.66131548351E+00 -0.20127495794E+02  0.43443588352E+03  0.44227514770E+03  0.80419002446E+02 0. -1.
        -24    1    1    2    0    0  0.66131548351E+00  0.20127495794E+02  0.45262311912E+02  0.94453407874E+02  0.80419002446E+02 0.  1.
<mgrwt>
<rscale>  0 0.82902168E+02</rscale>
<asrwt>0</asrwt>
<pdfrwt beam="1">  1        4 0.78186667E-01 0.82902168E+02</pdfrwt>
<pdfrwt beam="2">  1       -4 0.43869511E-02 0.82902168E+02</pdfrwt>
<totfact> 0.65449220E+02</totfact>
</mgrwt>
</event>
<event>
 4    1  0.4862093E-001  0.1425871E+03  0.7546771E-02  0.1209890E+00
          2   -1    0    0  501    0  0.00000000000E+00  0.00000000000E+00  0.44550516793E+03  0.44550516793E+03  0.00000000000E+00 0. -1.
         -2   -1    0    0    0  501 -0.00000000000E+00 -0.00000000000E+00 -0.63252698877E+02  0.63252698877E+02  0.00000000000E+00 0.  1.
         24    1    1    2    0    0 -0.11633048567E+03  0.18195384564E+02  0.32537304834E+03  0.35524455021E+03  0.80419002446E+02 0. -1.
        -24    1    1    2    0    0  0.11633048567E+03 -0.18195384564E+02  0.56879420714E+02  0.15351331659E+03  0.80419002446E+02 0.  1.
<mgrwt>
<rscale>  0 0.14258706E+03</rscale>
<asrwt>0</asrwt>
<pdfrwt beam="1">  1        2 0.68539255E-01 0.14258706E+03</pdfrwt>
<pdfrwt beam="2">  1       -2 0.97311847E-02 0.14258706E+03</pdfrwt>
<totfact> 0.47458763E+03</totfact>
</mgrwt>
</event>
<event>
 4    1  0.4862093E-001  0.8772345E+02  0.7546771E-02  0.1308460E+00
          1   -1    0    0  501    0  0.00000000000E+00  0.00000000000E+00  0.12535254254E+03  0.12535254254E+03  0.00000000000E+00 0. -1.
         -1   -1    0    0    0  501 -0.00000000000E+00 -0.00000000000E+00 -0.94331243764E+02  0.94331243764E+02  0.00000000000E+00 0.  1.
         24    1    1    2    0    0  0.32665615868E+02 -0.12694306181E+02 -0.49399055497E+02  0.10067606720E+03  0.80419002446E+02 0.  1.
        -24    1    1    2    0    0 -0.32665615868E+02  0.12694306181E+02  0.80420354274E+02  0.11900771910E+03  0.80419002446E+02 0. -1.
<mgrwt>
<rscale>  0 0.87723451E+02</rscale>
<asrwt>0</asrwt>
<pdfrwt beam="1">  1        1 0.19285007E-01 0.87723451E+02</pdfrwt>
<pdfrwt beam="2">  1       -1 0.14512499E-01 0.87723451E+02</pdfrwt>
<totfact> 0.82586878E+03</totfact>
</mgrwt>
</event>
<event>
 4    1  0.4862093E-001  0.1174328E+03  0.7546771E-02  0.1247393E+00
         -2   -1    0    0    0  501 -0.00000000000E+00  0.00000000000E+00  0.20984738753E+02  0.20984738753E+02  0.00000000000E+00 0.  1.
          2   -1    0    0  501    0  0.00000000000E+00 -0.00000000000E+00 -0.15969987086E+04  0.15969987086E+04  0.00000000000E+00 0. -1.
         24    1    1    2    0    0  0.28994433284E+02  0.80514332604E+02 -0.14086146561E+04  0.14135012205E+04  0.80419002446E+02 0. -1.
        -24    1    1    2    0    0 -0.28994433284E+02 -0.80514332604E+02 -0.16739931374E+03  0.20448222688E+03  0.80419002446E+02 0.  1.
<mgrwt>
<rscale>  0 0.11743275E+03</rscale>
<asrwt>0</asrwt>
<pdfrwt beam="1">  1        2 0.24569221E+00 0.11743275E+03</pdfrwt>
<pdfrwt beam="2">  1       -2 0.32284200E-02 0.11743275E+03</pdfrwt>
<totfact> 0.45326301E+03</totfact>
</mgrwt>
</event>
<event>
 4    1  0.4862093E-001  0.8982936E+02  0.7546771E-02  0.1303265E+00
          3   -1    0    0  501    0  0.00000000000E+00  0.00000000000E+00  0.80462061391E+02  0.80462061391E+02  0.00000000000E+00 0. -1.
         -3   -1    0    0    0  501 -0.00000000000E+00 -0.00000000000E+00 -0.37371564658E+03  0.37371564658E+03  0.00000000000E+00 0.  1.
         24    1    1    2    0    0  0.10077507426E+02 -0.38736835199E+02 -0.34087053146E+03  0.35250820378E+03  0.80419002446E+02 0.  1.
        -24    1    1    2    0    0 -0.10077507426E+02  0.38736835199E+02  0.47616946269E+02  0.10166950420E+03  0.80419002446E+02 0. -1.
<mgrwt>
<rscale>  0 0.89829363E+02</rscale>
<asrwt>0</asrwt>
<pdfrwt beam="1">  1        3 0.12378779E-01 0.89829363E+02</pdfrwt>
<pdfrwt beam="2">  1       -3 0.57494715E-01 0.89829363E+02</pdfrwt>
<totfact> 0.33913868E+02</totfact>
</mgrwt>
</event>
<event>
 4    1  0.4862093E-001  0.1110561E+03  0.7546771E-02  0.1258627E+00
          1   -1    0    0  501    0  0.00000000000E+00  0.00000000000E+00  0.44018779237E+03  0.44018779237E+03  0.00000000000E+00 0. -1.
         -1   -1    0    0    0  501 -0.00000000000E+00 -0.00000000000E+00 -0.28119110353E+02  0.28119110353E+02  0.00000000000E+00 0.  1.
         24    1    1    2    0    0 -0.65590208499E+02  0.39549577671E+02  0.19203742277E+03  0.22183740046E+03  0.80419002446E+02 0.  0.
        -24    1    1    2    0    0  0.65590208499E+02 -0.39549577671E+02  0.22003125925E+03  0.24646950226E+03  0.80419002446E+02 0.  0.
<mgrwt>
<rscale>  0 0.11105611E+03</rscale>
<asrwt>0</asrwt>
<pdfrwt beam="1">  1        1 0.67721194E-01 0.11105611E+03</pdfrwt>
<pdfrwt beam="2">  1       -1 0.43260173E-02 0.11105611E+03</pdfrwt>
<totfact> 0.10927757E+04</totfact>
</mgrwt>
</event>
<event>
 4    1  0.4862093E-001  0.8942221E+02  0.7546771E-02  0.1304257E+00
         -2   -1    0    0    0  501 -0.00000000000E+00  0.00000000000E+00  0.73300714655E+01  0.73300714655E+01  0.00000000000E+00 0.  1.
          2   -1    0    0  501    0  0.00000000000E+00 -0.00000000000E+00 -0.11995657526E+04  0.11995657526E+04  0.00000000000E+00 0. -1.
         24    1    1    2    0    0 -0.12993036658E+02  0.36882206202E+02 -0.77774709198E+03  0.78287091604E+03  0.80419002446E+02 0.  0.
        -24    1    1    2    0    0  0.12993036658E+02 -0.36882206202E+02 -0.41448858912E+03  0.42402490799E+03  0.80419002446E+02 0. -1.
<mgrwt>
<rscale>  0 0.89422213E+02</rscale>
<asrwt>0</asrwt>
<pdfrwt beam="1">  1        2 0.18454848E+00 0.89422213E+02</pdfrwt>
<pdfrwt beam="2">  1       -2 0.11277039E-02 0.89422213E+02</pdfrwt>
<totfact> 0.32784067E+04</totfact>
</mgrwt>
</event>
<event>
 4    1  0.4862093E-001  0.1322713E+03  0.7546771E-02  0.1224124E+00
         -2   -1    0    0    0  501 -0.00000000000E+00  0.00000000000E+00  0.28576115596E+02  0.28576115596E+02  0.00000000000E+00 0.  1.
          2   -1    0    0  501    0  0.00000000000E+00 -0.00000000000E+00 -0.77723822855E+03  0.77723822855E+03  0.00000000000E+00 0. -1.
         24    1    1    2    0    0  0.99090882907E+02 -0.34777705026E+02 -0.55996409586E+03  0.57537422296E+03  0.80419002446E+02 0. -1.
        -24    1    1    2    0    0 -0.99090882907E+02  0.34777705026E+02 -0.18869801710E+03  0.23044012119E+03  0.80419002446E+02 0.  1.
<mgrwt>
<rscale>  0 0.13227134E+03</rscale>
<asrwt>0</asrwt>
<pdfrwt beam="1">  1        2 0.11957512E+00 0.13227134E+03</pdfrwt>
<pdfrwt beam="2">  1       -2 0.43963253E-02 0.13227134E+03</pdfrwt>
<totfact> 0.84248281E+03</totfact>
</mgrwt>
</event>
<event>
 4    1  0.4862093E-001  0.8287996E+02  0.7546771E-02  0.1321072E+00
          3   -1    0    0  501    0  0.00000000000E+00  0.00000000000E+00  0.46496892888E+02  0.46496892888E+02  0.00000000000E+00 0. -1.
         -3   -1    0    0    0  501 -0.00000000000E+00 -0.00000000000E+00 -0.15217574536E+03  0.15217574536E+03  0.00000000000E+00 0.  1.
         24    1    1    2    0    0  0.18176063493E+02 -0.84559353810E+01 -0.69814057993E+02  0.10836554238E+03  0.80419002446E+02 0.  1.
        -24    1    1    2    0    0 -0.18176063493E+02  0.84559353810E+01 -0.35864794483E+02  0.90307095873E+02  0.80419002446E+02 0. -1.
<mgrwt>
<rscale>  0 0.82879962E+02</rscale>
<asrwt>0</asrwt>
<pdfrwt beam="1">  1        3 0.71533682E-02 0.82879962E+02</pdfrwt>
<pdfrwt beam="2">  1       -3 0.23411653E-01 0.82879962E+02</pdfrwt>
<totfact> 0.44443741E+03</totfact>
</mgrwt>
</event>
<event>
 4    1  0.4862093E-001  0.8367470E+02  0.7546771E-02  0.1318935E+00
         -1   -1    0    0    0  501 -0.00000000000E+00  0.00000000000E+00  0.42785661696E+01  0.42785661696E+01  0.00000000000E+00 0.  1.
          1   -1    0    0  501    0  0.00000000000E+00 -0.00000000000E+00 -0.21038433815E+04  0.21038433815E+04  0.00000000000E+00 0. -1.
         24    1    1    2    0    0  0.46702990810E+01 -0.22636862156E+02 -0.55293559572E+03  0.55923092564E+03  0.80419002446E+02 0.  0.
        -24    1    1    2    0    0 -0.46702990810E+01  0.22636862156E+02 -0.15466292196E+04  0.15488910220E+04  0.80419002446E+02 0. -1.
<mgrwt>
<rscale>  0 0.83674699E+02</rscale>
<asrwt>0</asrwt>
<pdfrwt beam="1">  1        1 0.32366927E+00 0.83674699E+02</pdfrwt>
<pdfrwt beam="2">  1       -1 0.65823879E-03 0.83674699E+02</pdfrwt>
<totfact> 0.95254321E+03</totfact>
</mgrwt>
</event>
<event>
 4    1  0.4862093E-001  0.8790374E+02  0.7546771E-02  0.1308009E+00
         -2   -1    0    0    0  501 -0.00000000000E+00  0.00000000000E+00  0.29850758464E+01  0.29850758464E+01  0.00000000000E+00 0.  1.
          2   -1    0    0  501    0  0.00000000000E+00 -0.00000000000E+00 -0.31489041819E+04  0.31489041819E+04  0.00000000000E+00 0. -1.
         24    1    1    2    0    0  0.34295778964E+02 -0.91461306337E+01 -0.22377519517E+04  0.22394778109E+04  0.80419002446E+02 0. -1.
        -24    1    1    2    0    0 -0.34295778964E+02  0.91461306337E+01 -0.90816715433E+03  0.91241144683E+03  0.80419002446E+02 0.  1.
<mgrwt>
<rscale>  0 0.87903743E+02</rscale>
<asrwt>0</asrwt>
<pdfrwt beam="1">  1        2 0.48444555E+00 0.87903743E+02</pdfrwt>
<pdfrwt beam="2">  1       -2 0.45924362E-03 0.87903743E+02</pdfrwt>
<totfact> 0.11003800E+04</totfact>
</mgrwt>
</event>
<event>
 4    1  0.4862093E-001  0.9379697E+02  0.7546771E-02  0.1293909E+00
          1   -1    0    0  501    0  0.00000000000E+00  0.00000000000E+00  0.19764321028E+03  0.19764321028E+03  0.00000000000E+00 0. -1.
         -1   -1    0    0    0  501 -0.00000000000E+00 -0.00000000000E+00 -0.47067624727E+02  0.47067624727E+02  0.00000000000E+00 0.  1.
         24    1    1    2    0    0 -0.19599414224E+02 -0.44119359045E+02  0.46787535133E+02  0.10481862563E+03  0.80419002446E+02 0.  1.
        -24    1    1    2    0    0  0.19599414224E+02  0.44119359045E+02  0.10378805042E+03  0.13989220938E+03  0.80419002446E+02 0.  0.
<mgrwt>
<rscale>  0 0.93796966E+02</rscale>
<asrwt>0</asrwt>
<pdfrwt beam="1">  1        1 0.30406647E-01 0.93796966E+02</pdfrwt>
<pdfrwt beam="2">  1       -1 0.72411731E-02 0.93796966E+02</pdfrwt>
<totfact> 0.13518277E+04</totfact>
</mgrwt>
</event>
<event>
 4    1  0.4862093E-001  0.8102056E+02  0.7546771E-02  0.1326180E+00
         -1   -1    0    0    0  501 -0.00000000000E+00  0.00000000000E+00  0.11246191206E+02  0.11246191206E+02  0.00000000000E+00 0.  1.
          1   -1    0    0  501    0  0.00000000000E+00 -0.00000000000E+00 -0.11081801154E+04  0.11081801154E+04  0.00000000000E+00 0. -1.
         24    1    1    2    0    0  0.97722537525E+01  0.12721920605E+01 -0.16340781617E+03  0.18239091467E+03  0.80419002446E+02 0.  0.
        -24    1    1    2    0    0 -0.97722537525E+01 -0.12721920605E+01 -0.93352610807E+03  0.93703539198E+03  0.80419002446E+02 0. -1.
<mgrwt>
<rscale>  0 0.81020561E+02</rscale>
<asrwt>0</asrwt>
<pdfrwt beam="1">  1        1 0.17048917E+00 0.81020561E+02</pdfrwt>
<pdfrwt beam="2">  1       -1 0.17301840E-02 0.81020561E+02</pdfrwt>
<totfact> 0.10536724E+04</totfact>
</mgrwt>
</event>
<event>
 4    1  0.4862093E-001  0.1118355E+03  0.7546771E-02  0.1257208E+00
          2   -1    0    0  501    0  0.00000000000E+00  0.00000000000E+00  0.23766965053E+03  0.23766965053E+03  0.00000000000E+00 0. -1.
         -2   -1    0    0    0  501 -0.00000000000E+00 -0.00000000000E+00 -0.35849794154E+03  0.35849794154E+03  0.00000000000E+00 0.  1.
         24    1    1    2    0    0 -0.77412923067E+02  0.68709998202E+01  0.21492381865E+03  0.24227966293E+03  0.80419002446E+02 0. -1.
        -24    1    1    2    0    0  0.77412923067E+02 -0.68709998202E+01 -0.33575210966E+03  0.35388792914E+03  0.80419002446E+02 0.  1.
<mgrwt>
<rscale>  0 0.11183554E+03</rscale>
<asrwt>0</asrwt>
<pdfrwt beam="1">  1        2 0.36564562E-01 0.11183554E+03</pdfrwt>
<pdfrwt beam="2">  1       -2 0.55153529E-01 0.11183554E+03</pdfrwt>
<totfact> 0.44377358E+02</totfact>
</mgrwt>
</event>
<event>
 4    1  0.4862093E-001  0.8511363E+02  0.7546771E-02  0.1315136E+00
          1   -1    0    0  501    0  0.00000000000E+00  0.00000000000E+00  0.10176509875E+04  0.10176509875E+04  0.00000000000E+00 0. -1.
         -1   -1    0    0    0  501 -0.00000000000E+00 -0.00000000000E+00 -0.80539204437E+01  0.80539204437E+01  0.00000000000E+00 0.  1.
         24    1    1    2    0    0  0.25869019148E+02 -0.10387711910E+02  0.67956236843E+03  0.68487176848E+03  0.80419002446E+02 0. -1.
        -24    1    1    2    0    0 -0.25869019148E+02  0.10387711910E+02  0.33003469864E+03  0.34083313949E+03  0.80419002446E+02 0.  0.
<mgrwt>
<rscale>  0 0.85113621E+02</rscale>
<asrwt>0</asrwt>
<pdfrwt beam="1">  1        1 0.15656159E+00 0.85113632E+02</pdfrwt>
<pdfrwt beam="2">  1       -1 0.12390655E-02 0.85113632E+02</pdfrwt>
<totfact> 0.19631579E+04</totfact>
</mgrwt>
</event>
<event>
 4    1  0.4862093E-001  0.8672502E+02  0.7546771E-02  0.1310982E+00
          1   -1    0    0  501    0  0.00000000000E+00  0.00000000000E+00  0.87685216533E+02  0.87685216533E+02  0.00000000000E+00 0. -1.
         -1   -1    0    0    0  501 -0.00000000000E+00 -0.00000000000E+00 -0.94911185214E+02  0.94911185214E+02  0.00000000000E+00 0.  1.
         24    1    1    2    0    0 -0.28440783569E+02 -0.15656810151E+02 -0.31938494050E+02  0.92419138877E+02  0.80419002446E+02 0.  1.
        -24    1    1    2    0    0  0.28440783569E+02  0.15656810151E+02  0.24712525370E+02  0.90177262870E+02  0.80419002446E+02 0. -1.
<mgrwt>
<rscale>  0 0.86725024E+02</rscale>
<asrwt>0</asrwt>
<pdfrwt beam="1">  1        1 0.13490033E-01 0.86725024E+02</pdfrwt>
<pdfrwt beam="2">  1       -1 0.14601721E-01 0.86725024E+02</pdfrwt>
<totfact> 0.12870647E+04</totfact>
</mgrwt>
</event>
<event>
 4    1  0.4862093E-001  0.8323141E+02  0.7546771E-02  0.1320123E+00
         -3   -1    0    0    0  501 -0.00000000000E+00  0.00000000000E+00  0.35684413512E+02  0.35684413512E+02  0.00000000000E+00 0.  1.
          3   -1    0    0  501    0  0.00000000000E+00 -0.00000000000E+00 -0.19506658748E+03  0.19506658748E+03  0.00000000000E+00 0. -1.
         24    1    1    2    0    0 -0.20805279272E+02 -0.52333856759E+01 -0.87679849012E+02  0.12089342351E+03  0.80419002446E+02 0.  1.
        -24    1    1    2    0    0  0.20805279272E+02  0.52333856759E+01 -0.71702324956E+02  0.10985757748E+03  0.80419002446E+02 0. -1.
<mgrwt>
<rscale>  0 0.83231398E+02</rscale>
<asrwt>0</asrwt>
<pdfrwt beam="1">  1        3 0.30010244E-01 0.83231409E+02</pdfrwt>
<pdfrwt beam="2">  1       -3 0.54899098E-02 0.83231409E+02</pdfrwt>
<totfact> 0.43277656E+03</totfact>
</mgrwt>
</event>
<event>
 4    1  0.4862093E-001  0.9338312E+02  0.7546771E-02  0.1294860E+00
         -1   -1    0    0    0  501 -0.00000000000E+00  0.00000000000E+00  0.55331592603E+03  0.55331592603E+03  0.00000000000E+00 0.  1.
          1   -1    0    0  501    0  0.00000000000E+00 -0.00000000000E+00 -0.18427315062E+02  0.18427315062E+02  0.00000000000E+00 0. -1.
         24    1    1    2    0    0  0.47307268175E+02 -0.39004021092E+01  0.37620085900E+03  0.38761771505E+03  0.80419002446E+02 0.  0.
        -24    1    1    2    0    0 -0.47307268175E+02  0.39004021092E+01  0.15868775197E+03  0.18412552604E+03  0.80419002446E+02 0. -1.
<mgrwt>
<rscale>  0 0.93383118E+02</rscale>
<asrwt>0</asrwt>
<pdfrwt beam="1">  1        1 0.28349720E-02 0.93383118E+02</pdfrwt>
<pdfrwt beam="2">  1       -1 0.85125514E-01 0.93383118E+02</pdfrwt>
<totfact> 0.48997585E+03</totfact>
</mgrwt>
</event>
<event>
 4    1  0.4862093E-001  0.1236126E+03  0.7546771E-02  0.1237254E+00
         -2   -1    0    0    0  501 -0.00000000000E+00  0.00000000000E+00  0.35746586001E+02  0.35746586001E+02  0.00000000000E+00 0.  1.
          2   -1    0    0  501    0  0.00000000000E+00 -0.00000000000E+00 -0.11207249923E+04  0.11207249923E+04  0.00000000000E+00 0. -1.
         24    1    1    2    0    0  0.16100959350E+02  0.92485737013E+02 -0.99727463087E+03  0.10049063428E+04  0.80419002446E+02 0. -1.
        -24    1    1    2    0    0 -0.16100959350E+02 -0.92485737013E+02 -0.87703775469E+02  0.15156523555E+03  0.80419002446E+02 0.  1.
<mgrwt>
<rscale>  0 0.12361257E+03</rscale>
<asrwt>0</asrwt>
<pdfrwt beam="1">  1        2 0.17241924E+00 0.12361257E+03</pdfrwt>
<pdfrwt beam="2">  1       -2 0.54994746E-02 0.12361257E+03</pdfrwt>
<totfact> 0.36893891E+03</totfact>
</mgrwt>
</event>
<event>
 4    1  0.4862093E-001  0.1378183E+03  0.7546771E-02  0.1216295E+00
          1   -1    0    0  501    0  0.00000000000E+00  0.00000000000E+00  0.48628304922E+03  0.48628304922E+03  0.00000000000E+00 0. -1.
         -1   -1    0    0    0  501 -0.00000000000E+00 -0.00000000000E+00 -0.39829278686E+02  0.39829278686E+02  0.00000000000E+00 0.  1.
         24    1    1    2    0    0 -0.11088595501E+03 -0.15197605720E+02  0.25980194594E+03  0.29409340235E+03  0.80419002446E+02 0.  0.
        -24    1    1    2    0    0  0.11088595501E+03  0.15197605720E+02  0.18665182459E+03  0.23201892555E+03  0.80419002446E+02 0. -1.
<mgrwt>
<rscale>  0 0.13781830E+03</rscale>
<asrwt>0</asrwt>
<pdfrwt beam="1">  1        1 0.74812772E-01 0.13781831E+03</pdfrwt>
<pdfrwt beam="2">  1       -1 0.61275817E-02 0.13781831E+03</pdfrwt>
<totfact> 0.58347238E+03</totfact>
</mgrwt>
</event>
<event>
 4    1  0.4862093E-001  0.8340422E+02  0.7546771E-02  0.1319659E+00
         -2   -1    0    0    0  501 -0.00000000000E+00  0.00000000000E+00  0.80680053333E+01  0.80680053333E+01  0.00000000000E+00 0.  1.
          2   -1    0    0  501    0  0.00000000000E+00 -0.00000000000E+00 -0.12547213534E+04  0.12547213534E+04  0.00000000000E+00 0. -1.
         24    1    1    2    0    0 -0.16536362728E+02 -0.14683194561E+02 -0.97647480446E+03  0.98003025831E+03  0.80419002446E+02 0. -1.
        -24    1    1    2    0    0  0.16536362728E+02  0.14683194561E+02 -0.27017854360E+03  0.28275910042E+03  0.80419002446E+02 0.  1.
<mgrwt>
<rscale>  0 0.83404217E+02</rscale>
<asrwt>0</asrwt>
<pdfrwt beam="1">  1        2 0.19303406E+00 0.83404217E+02</pdfrwt>
<pdfrwt beam="2">  1       -2 0.12412315E-02 0.83404217E+02</pdfrwt>
<totfact> 0.26557874E+04</totfact>
</mgrwt>
</event>
<event>
 4    1  0.4862093E-001  0.1499172E+03  0.7546771E-02  0.1200575E+00
         -2   -1    0    0    0  501 -0.00000000000E+00  0.00000000000E+00  0.10130392481E+03  0.10130392481E+03  0.00000000000E+00 0.  1.
          2   -1    0    0  501    0  0.00000000000E+00 -0.00000000000E+00 -0.27989974611E+03  0.27989974611E+03  0.00000000000E+00 0. -1.
         24    1    1    2    0    0  0.79206280457E+02  0.98662606612E+02 -0.17609263043E+03  0.23126559462E+03  0.80419002446E+02 0. -1.
        -24    1    1    2    0    0 -0.79206280457E+02 -0.98662606612E+02 -0.25031908752E+01  0.14993807631E+03  0.80419002446E+02 0.  1.
<mgrwt>
<rscale>  0 0.14991718E+03</rscale>
<asrwt>0</asrwt>
<pdfrwt beam="1">  1        2 0.43061499E-01 0.14991718E+03</pdfrwt>
<pdfrwt beam="2">  1       -2 0.15585219E-01 0.14991718E+03</pdfrwt>
<totfact> 0.36695873E+03</totfact>
</mgrwt>
</event>
<event>
 4    1  0.4862093E-001  0.9645887E+02  0.7546771E-02  0.1287924E+00
          1   -1    0    0  501    0  0.00000000000E+00  0.00000000000E+00  0.23122302621E+03  0.23122302621E+03  0.00000000000E+00 0. -1.
         -1   -1    0    0    0  501 -0.00000000000E+00 -0.00000000000E+00 -0.64617600823E+02  0.64617600823E+02  0.00000000000E+00 0.  1.
         24    1    1    2    0    0 -0.30943301918E+01 -0.53174454222E+02 -0.75529042502E+01  0.96754120213E+02  0.80419002446E+02 0.  1.
        -24    1    1    2    0    0  0.30943301918E+01  0.53174454222E+02  0.17415832964E+03  0.19908650682E+03  0.80419002446E+02 0. -1.
<mgrwt>
<rscale>  0 0.96458869E+02</rscale>
<asrwt>0</asrwt>
<pdfrwt beam="1">  1        1 0.35572773E-01 0.96458869E+02</pdfrwt>
<pdfrwt beam="2">  1       -1 0.99411695E-02 0.96458869E+02</pdfrwt>
<totfact> 0.69522317E+03</totfact>
</mgrwt>
</event>
<event>
 4    1  0.4862093E-001  0.8893303E+02  0.7546771E-02  0.1305456E+00
         -2   -1    0    0    0  501 -0.00000000000E+00  0.00000000000E+00  0.63141830630E+01  0.63141830630E+01  0.00000000000E+00 0.  1.
          2   -1    0    0  501    0  0.00000000000E+00 -0.00000000000E+00 -0.26136633142E+04  0.26136633142E+04  0.00000000000E+00 0. -1.
         24    1    1    2    0    0  0.28142219909E+02  0.25492795748E+02 -0.22490046729E+04  0.22507623379E+04  0.80419002446E+02 0. -1.
        -24    1    1    2    0    0 -0.28142219909E+02 -0.25492795748E+02 -0.35834445827E+03  0.36921515937E+03  0.80419002446E+02 0.  1.
<mgrwt>
<rscale>  0 0.88933026E+02</rscale>
<asrwt>0</asrwt>
<pdfrwt beam="1">  1        2 0.40210170E+00 0.88933026E+02</pdfrwt>
<pdfrwt beam="2">  1       -2 0.97141362E-03 0.88933026E+02</pdfrwt>
<totfact> 0.76299236E+03</totfact>
</mgrwt>
</event>
<event>
 4    1  0.4862093E-001  0.8435665E+02  0.7546771E-02  0.1317124E+00
          2   -1    0    0  501    0  0.00000000000E+00  0.00000000000E+00  0.47355865799E+03  0.47355865799E+03  0.00000000000E+00 0. -1.
         -2   -1    0    0    0  501 -0.00000000000E+00 -0.00000000000E+00 -0.19076965294E+03  0.19076965294E+03  0.00000000000E+00 0.  1.
         24    1    1    2    0    0  0.25225085118E+02  0.35388812211E+01  0.46020823956E+03  0.46787569750E+03  0.80419002446E+02 0. -1.
        -24    1    1    2    0    0 -0.25225085118E+02 -0.35388812211E+01 -0.17741923450E+03  0.19645261343E+03  0.80419002446E+02 0.  1.
<mgrwt>
<rscale>  0 0.84356651E+02</rscale>
<asrwt>0</asrwt>
<pdfrwt beam="1">  1        2 0.72855178E-01 0.84356651E+02</pdfrwt>
<pdfrwt beam="2">  1       -2 0.29349178E-01 0.84356651E+02</pdfrwt>
<totfact> 0.70246018E+02</totfact>
</mgrwt>
</event>
<event>
 4    1  0.4862093E-001  0.9065273E+02  0.7546771E-02  0.1301279E+00
         -1   -1    0    0    0  501 -0.00000000000E+00  0.00000000000E+00  0.61912794280E+02  0.61912794280E+02  0.00000000000E+00 0.  1.
          1   -1    0    0  501    0  0.00000000000E+00 -0.00000000000E+00 -0.31166003933E+03  0.31166003933E+03  0.00000000000E+00 0. -1.
         24    1    1    2    0    0  0.14604598090E+02 -0.39209788120E+02  0.16654192180E+02  0.92169842363E+02  0.80419002446E+02 0.  1.
        -24    1    1    2    0    0 -0.14604598090E+02  0.39209788120E+02 -0.26640143723E+03  0.28140299124E+03  0.80419002446E+02 0. -1.
<mgrwt>
<rscale>  0 0.90652731E+02</rscale>
<asrwt>0</asrwt>
<pdfrwt beam="1">  1        1 0.47947698E-01 0.90652731E+02</pdfrwt>
<pdfrwt beam="2">  1       -1 0.95250453E-02 0.90652731E+02</pdfrwt>
<totfact> 0.51267646E+03</totfact>
</mgrwt>
</event>
<event>
 4    1  0.4862093E-001  0.8585325E+02  0.7546771E-02  0.1313216E+00
          2   -1    0    0  501    0  0.00000000000E+00  0.00000000000E+00  0.38569230846E+02  0.38569230846E+02  0.00000000000E+00 0. -1.
         -2   -1    0    0    0  501 -0.00000000000E+00 -0.00000000000E+00 -0.28874871715E+03  0.28874871715E+03  0.00000000000E+00 0.  1.
         24    1    1    2    0    0 -0.28142553498E+02 -0.10562289615E+02 -0.29919438025E+02  0.90917292114E+02  0.80419002446E+02 0. -1.
        -24    1    1    2    0    0  0.28142553498E+02  0.10562289615E+02 -0.22026004828E+03  0.23640065589E+03  0.80419002446E+02 0.  1.
<mgrwt>
<rscale>  0 0.85853254E+02</rscale>
<asrwt>0</asrwt>
<pdfrwt beam="1">  1        2 0.59337280E-02 0.85853254E+02</pdfrwt>
<pdfrwt beam="2">  1       -2 0.44422878E-01 0.85853254E+02</pdfrwt>
<totfact> 0.55436332E+03</totfact>
</mgrwt>
</event>
<event>
 4    1  0.4862093E-001  0.8203709E+02  0.7546771E-02  0.1323368E+00
          2   -1    0    0  501    0  0.00000000000E+00  0.00000000000E+00  0.16394787592E+04  0.16394787592E+04  0.00000000000E+00 0. -1.
         -2   -1    0    0    0  501 -0.00000000000E+00 -0.00000000000E+00 -0.65361271828E+01  0.65361271828E+01  0.00000000000E+00 0.  1.
         24    1    1    2    0    0  0.41055606967E+01 -0.15684802131E+02  0.13184046421E+04  0.13209545356E+04  0.80419002446E+02 0. -1.
        -24    1    1    2    0    0 -0.41055606967E+01  0.15684802131E+02  0.31453798988E+03  0.32506035082E+03  0.80419002446E+02 0.  0.
<mgrwt>
<rscale>  0 0.82037093E+02</rscale>
<asrwt>0</asrwt>
<pdfrwt beam="1">  1        2 0.25222717E+00 0.82037093E+02</pdfrwt>
<pdfrwt beam="2">  1       -2 0.10055593E-02 0.82037093E+02</pdfrwt>
<totfact> 0.22659426E+04</totfact>
</mgrwt>
</event>
<event>
 4    1  0.4862093E-001  0.8255158E+02  0.7546771E-02  0.1321963E+00
          1   -1    0    0  501    0  0.00000000000E+00  0.00000000000E+00  0.44098883524E+03  0.44098883524E+03  0.00000000000E+00 0. -1.
         -1   -1    0    0    0  501 -0.00000000000E+00 -0.00000000000E+00 -0.15655637498E+02  0.15655637498E+02  0.00000000000E+00 0.  1.
         24    1    1    2    0    0  0.13529506028E+02 -0.12825631679E+02  0.23861938375E+03  0.25249548633E+03  0.80419002446E+02 0. -1.
        -24    1    1    2    0    0 -0.13529506028E+02  0.12825631679E+02  0.18671381399E+03  0.20414898641E+03  0.80419002446E+02 0.  1.
<mgrwt>
<rscale>  0 0.82551572E+02</rscale>
<asrwt>0</asrwt>
<pdfrwt beam="1">  1        1 0.67844427E-01 0.82551582E+02</pdfrwt>
<pdfrwt beam="2">  1       -1 0.24085600E-02 0.82551582E+02</pdfrwt>
<totfact> 0.24708969E+04</totfact>
</mgrwt>
</event>
<event>
 4    1  0.4862093E-001  0.1174921E+03  0.7546771E-02  0.1247293E+00
         -2   -1    0    0    0  501 -0.00000000000E+00  0.00000000000E+00  0.11803724946E+02  0.11803724946E+02  0.00000000000E+00 0.  1.
          2   -1    0    0  501    0  0.00000000000E+00 -0.00000000000E+00 -0.11880447525E+04  0.11880447525E+04  0.00000000000E+00 0. -1.
         24    1    1    2    0    0  0.47121954666E+02 -0.71531127979E+02 -0.66308395839E+03  0.67341275063E+03  0.80419002446E+02 0. -1.
        -24    1    1    2    0    0 -0.47121954666E+02  0.71531127979E+02 -0.51315706919E+03  0.52643572684E+03  0.80419002446E+02 0.  0.
<mgrwt>
<rscale>  0 0.11749211E+03</rscale>
<asrwt>0</asrwt>
<pdfrwt beam="1">  1        2 0.18277609E+00 0.11749211E+03</pdfrwt>
<pdfrwt beam="2">  1       -2 0.18159580E-02 0.11749211E+03</pdfrwt>
<totfact> 0.17204837E+04</totfact>
</mgrwt>
</event>
<event>
 4    1  0.4862093E-001  0.8519338E+02  0.7546771E-02  0.1314928E+00
         -2   -1    0    0    0  501 -0.00000000000E+00  0.00000000000E+00  0.26254330213E+01  0.26254330213E+01  0.00000000000E+00 0.  1.
          2   -1    0    0  501    0  0.00000000000E+00 -0.00000000000E+00 -0.30247743707E+04  0.30247743707E+04  0.00000000000E+00 0. -1.
         24    1    1    2    0    0 -0.24078561474E+02  0.14523043775E+02 -0.19551328187E+04  0.19569880558E+04  0.80419002446E+02 0. -1.
        -24    1    1    2    0    0  0.24078561474E+02 -0.14523043775E+02 -0.10670161190E+04  0.10704117479E+04  0.80419002446E+02 0.  1.
<mgrwt>
<rscale>  0 0.85193379E+02</rscale>
<asrwt>0</asrwt>
<pdfrwt beam="1">  1        2 0.46534762E+00 0.85193379E+02</pdfrwt>
<pdfrwt beam="2">  1       -2 0.40391475E-03 0.85193379E+02</pdfrwt>
<totfact> 0.15518545E+04</totfact>
</mgrwt>
</event>
<event>
 4    1  0.4862093E-001  0.8878931E+02  0.7546771E-02  0.1305810E+00
         -2   -1    0    0    0  501 -0.00000000000E+00  0.00000000000E+00  0.15462423929E+02  0.15462423929E+02  0.00000000000E+00 0.  1.
          2   -1    0    0  501    0  0.00000000000E+00 -0.00000000000E+00 -0.11585791434E+04  0.11585791434E+04  0.00000000000E+00 0. -1.
         24    1    1    2    0    0  0.33744127712E+02 -0.16663109206E+02 -0.10108185033E+04  0.10147105932E+04  0.80419002446E+02 0. -1.
        -24    1    1    2    0    0 -0.33744127712E+02  0.16663109206E+02 -0.13229821617E+03  0.15933097413E+03  0.80419002446E+02 0.  1.
<mgrwt>
<rscale>  0 0.88789309E+02</rscale>
<asrwt>0</asrwt>
<pdfrwt beam="1">  1        2 0.17824296E+00 0.88789309E+02</pdfrwt>
<pdfrwt beam="2">  1       -2 0.23788342E-02 0.88789309E+02</pdfrwt>
<totfact> 0.11872501E+04</totfact>
</mgrwt>
</event>
<event>
 4    1  0.4862093E-001  0.8046656E+02  0.7546771E-02  0.1327733E+00
          1   -1    0    0  501    0  0.00000000000E+00  0.00000000000E+00  0.10799871838E+04  0.10799871838E+04  0.00000000000E+00 0. -1.
         -1   -1    0    0    0  501 -0.00000000000E+00 -0.00000000000E+00 -0.67248686905E+01  0.67248686905E+01  0.00000000000E+00 0.  1.
         24    1    1    2    0    0  0.11419558909E+01  0.25194358245E+01  0.35766535501E+03  0.36660520147E+03  0.80419002446E+02 0.  0.
        -24    1    1    2    0    0 -0.11419558909E+01 -0.25194358245E+01  0.71559696005E+03  0.72010685097E+03  0.80419002446E+02 0. -1.
<mgrwt>
<rscale>  0 0.80466562E+02</rscale>
<asrwt>0</asrwt>
<pdfrwt beam="1">  1        1 0.16615174E+00 0.80466562E+02</pdfrwt>
<pdfrwt beam="2">  1       -1 0.10345960E-02 0.80466562E+02</pdfrwt>
<totfact> 0.22764445E+04</totfact>
</mgrwt>
</event>
<event>
 4    1  0.4862093E-001  0.8242221E+02  0.7546771E-02  0.1322315E+00
          1   -1    0    0  501    0  0.00000000000E+00  0.00000000000E+00  0.99646656037E+02  0.99646656037E+02  0.00000000000E+00 0. -1.
         -1   -1    0    0    0  501 -0.00000000000E+00 -0.00000000000E+00 -0.68420707339E+02  0.68420707339E+02  0.00000000000E+00 0.  1.
         24    1    1    2    0    0  0.18053370170E+02  0.52985315098E+00  0.10578210569E+02  0.83098251558E+02  0.80419002446E+02 0.  1.
        -24    1    1    2    0    0 -0.18053370170E+02 -0.52985315098E+00  0.20647738130E+02  0.84969111818E+02  0.80419002446E+02 0. -1.
<mgrwt>
<rscale>  0 0.82422211E+02</rscale>
<asrwt>0</asrwt>
<pdfrwt beam="1">  1        1 0.15330255E-01 0.82422211E+02</pdfrwt>
<pdfrwt beam="2">  1       -1 0.10526263E-01 0.82422211E+02</pdfrwt>
<totfact> 0.17913109E+04</totfact>
</mgrwt>
</event>
<event>
 4    1  0.4862093E-001  0.9796653E+02  0.7546771E-02  0.1284631E+00
         -2   -1    0    0    0  501 -0.00000000000E+00  0.00000000000E+00  0.72771059953E+02  0.72771059953E+02  0.00000000000E+00 0.  1.
          2   -1    0    0  501    0  0.00000000000E+00 -0.00000000000E+00 -0.36276406801E+03  0.36276406801E+03  0.00000000000E+00 0. -1.
         24    1    1    2    0    0  0.30285407922E+02 -0.47042736106E+02 -0.31872575940E+03  0.33344197488E+03  0.80419002446E+02 0. -1.
        -24    1    1    2    0    0 -0.30285407922E+02  0.47042736106E+02  0.28732751339E+02  0.10209315309E+03  0.80419002446E+02 0.  1.
<mgrwt>
<rscale>  0 0.97966530E+02</rscale>
<asrwt>0</asrwt>
<pdfrwt beam="1">  1        2 0.55809858E-01 0.97966530E+02</pdfrwt>
<pdfrwt beam="2">  1       -2 0.11195547E-01 0.97966530E+02</pdfrwt>
<totfact> 0.46400049E+03</totfact>
</mgrwt>
</event>
<event>
 4    1  0.4862093E-001  0.8668664E+02  0.7546771E-02  0.1311080E+00
         -1   -1    0    0    0  501 -0.00000000000E+00  0.00000000000E+00  0.14664632912E+02  0.14664632912E+02  0.00000000000E+00 0.  1.
          1   -1    0    0  501    0  0.00000000000E+00 -0.00000000000E+00 -0.70330206884E+03  0.70330206884E+03  0.00000000000E+00 0. -1.
         24    1    1    2    0    0  0.12142801056E+02 -0.29998507946E+02 -0.15730373768E+03  0.17960801747E+03  0.80419002446E+02 0.  0.
        -24    1    1    2    0    0 -0.12142801056E+02  0.29998507946E+02 -0.53133369824E+03  0.53835868428E+03  0.80419002446E+02 0.  1.
<mgrwt>
<rscale>  0 0.86686643E+02</rscale>
<asrwt>0</asrwt>
<pdfrwt beam="1">  1        1 0.10820032E+00 0.86686643E+02</pdfrwt>
<pdfrwt beam="2">  1       -1 0.22560974E-02 0.86686643E+02</pdfrwt>
<totfact> 0.14742744E+04</totfact>
</mgrwt>
</event>
<event>
 4    1  0.4862093E-001  0.9877773E+02  0.7546771E-02  0.1282887E+00
         -1   -1    0    0    0  501 -0.00000000000E+00  0.00000000000E+00  0.33484252312E+02  0.33484252312E+02  0.00000000000E+00 0.  1.
          1   -1    0    0  501    0  0.00000000000E+00 -0.00000000000E+00 -0.53174374129E+03  0.53174374129E+03  0.00000000000E+00 0. -1.
         24    1    1    2    0    0 -0.57006793595E+02  0.63284576048E+01 -0.59124231642E+02  0.11512043525E+03  0.80419002446E+02 0.  1.
        -24    1    1    2    0    0  0.57006793595E+02 -0.63284576048E+01 -0.43913525734E+03  0.45010755835E+03  0.80419002446E+02 0. -1.
<mgrwt>
<rscale>  0 0.98777730E+02</rscale>
<asrwt>0</asrwt>
<pdfrwt beam="1">  1        1 0.81806725E-01 0.98777730E+02</pdfrwt>
<pdfrwt beam="2">  1       -1 0.51514237E-02 0.98777730E+02</pdfrwt>
<totfact> 0.65793621E+03</totfact>
</mgrwt>
</event>
<event>
 4    1  0.4862093E-001  0.1116845E+03  0.7546771E-02  0.1257482E+00
         -1   -1    0    0    0  501 -0.00000000000E+00  0.00000000000E+00  0.75654953206E+02  0.75654953206E+02  0.00000000000E+00 0.  1.
          1   -1    0    0  501    0  0.00000000000E+00 -0.00000000000E+00 -0.17669836262E+03  0.17669836262E+03  0.00000000000E+00 0. -1.
         24    1    1    2    0    0 -0.72515280979E+02 -0.27344944129E+02 -0.83163765073E+02  0.13924668657E+03  0.80419002446E+02 0.  0.
        -24    1    1    2    0    0  0.72515280979E+02  0.27344944129E+02 -0.17879644338E+02  0.11310662925E+03  0.80419002446E+02 0. -1.
<mgrwt>
<rscale>  0 0.11168452E+03</rscale>
<asrwt>0</asrwt>
<pdfrwt beam="1">  1        1 0.27184363E-01 0.11168453E+03</pdfrwt>
<pdfrwt beam="2">  1       -1 0.11639224E-01 0.11168453E+03</pdfrwt>
<totfact> 0.77047619E+03</totfact>
</mgrwt>
</event>
<event>
 4    1  0.4862093E-001  0.8231816E+02  0.7546771E-02  0.1322599E+00
          2   -1    0    0  501    0  0.00000000000E+00  0.00000000000E+00  0.97219314723E+01  0.97219314723E+01  0.00000000000E+00 0. -1.
         -2   -1    0    0    0  501 -0.00000000000E+00 -0.00000000000E+00 -0.71055898057E+03  0.71055898057E+03  0.00000000000E+00 0.  1.
         24    1    1    2    0    0  0.15941526335E+02 -0.74113312864E+01 -0.40015068948E+03  0.40853010947E+03  0.80419002446E+02 0.  1.
        -24    1    1    2    0    0 -0.15941526335E+02  0.74113312864E+01 -0.30068635961E+03  0.31175080257E+03  0.80419002446E+02 0. -1.
<mgrwt>
<rscale>  0 0.82318150E+02</rscale>
<asrwt>0</asrwt>
<pdfrwt beam="1">  1        2 0.14956817E-02 0.82318160E+02</pdfrwt>
<pdfrwt beam="2">  1       -2 0.10931677E+00 0.82318160E+02</pdfrwt>
<totfact> 0.51029870E+03</totfact>
</mgrwt>
</event>
<event>
 4    1  0.4862093E-001  0.9022941E+02  0.7546771E-02  0.1302297E+00
          2   -1    0    0  501    0  0.00000000000E+00  0.00000000000E+00  0.60583025806E+02  0.60583025806E+02  0.00000000000E+00 0. -1.
         -2   -1    0    0    0  501 -0.00000000000E+00 -0.00000000000E+00 -0.30531409609E+03  0.30531409609E+03  0.00000000000E+00 0.  1.
         24    1    1    2    0    0  0.34704809216E+02 -0.21672634781E+02 -0.25925367229E+03  0.27450648340E+03  0.80419002446E+02 0.  0.
        -24    1    1    2    0    0 -0.34704809216E+02  0.21672634781E+02  0.14522602002E+02  0.91390638494E+02  0.80419002446E+02 0. -1.
<mgrwt>
<rscale>  0 0.90229401E+02</rscale>
<asrwt>0</asrwt>
<pdfrwt beam="1">  1        2 0.93204656E-02 0.90229413E+02</pdfrwt>
<pdfrwt beam="2">  1       -2 0.46971399E-01 0.90229413E+02</pdfrwt>
<totfact> 0.28474063E+03</totfact>
</mgrwt>
</event>
<event>
 4    1  0.4862093E-001  0.1719813E+03  0.7546771E-02  0.1175797E+00
         -2   -1    0    0    0  501 -0.00000000000E+00  0.00000000000E+00  0.29895644364E+02  0.29895644364E+02  0.00000000000E+00 0.  1.
          2   -1    0    0  501    0  0.00000000000E+00 -0.00000000000E+00 -0.11565881570E+04  0.11565881570E+04  0.00000000000E+00 0. -1.
         24    1    1    2    0    0 -0.14798445977E+03  0.34798404830E+02 -0.33776783187E+03  0.37903120388E+03  0.80419002446E+02 0.  1.
        -24    1    1    2    0    0  0.14798445977E+03 -0.34798404830E+02 -0.78892468078E+03  0.80745259751E+03  0.80419002446E+02 0. -1.
<mgrwt>
<rscale>  0 0.17198126E+03</rscale>
<asrwt>0</asrwt>
<pdfrwt beam="1">  1        2 0.17793665E+00 0.17198128E+03</pdfrwt>
<pdfrwt beam="2">  1       -2 0.45993296E-02 0.17198128E+03</pdfrwt>
<totfact> 0.46497734E+03</totfact>
</mgrwt>
</event>
<event>
 4    1  0.4862093E-001  0.8496966E+02  0.7546771E-02  0.1315512E+00
          1   -1    0    0  501    0  0.00000000000E+00  0.00000000000E+00  0.39580337766E+03  0.39580337766E+03  0.00000000000E+00 0. -1.
         -1   -1    0    0    0  501 -0.00000000000E+00 -0.00000000000E+00 -0.18459246738E+02  0.18459246738E+02  0.00000000000E+00 0.  1.
         24    1    1    2    0    0 -0.21932579323E+02 -0.16479857480E+02  0.21119562779E+03  0.22764760681E+03  0.80419002446E+02 0.  0.
        -24    1    1    2    0    0  0.21932579323E+02  0.16479857480E+02  0.16614850313E+03  0.18661501758E+03  0.80419002446E+02 0. -1.
<mgrwt>
<rscale>  0 0.84969650E+02</rscale>
<asrwt>0</asrwt>
<pdfrwt beam="1">  1        1 0.60892821E-01 0.84969661E+02</pdfrwt>
<pdfrwt beam="2">  1       -1 0.28398844E-02 0.84969661E+02</pdfrwt>
<totfact> 0.22400773E+04</totfact>
</mgrwt>
</event>
<event>
 4    1  0.4862093E-001  0.9031619E+02  0.7546771E-02  0.1302088E+00
         -2   -1    0    0    0  501 -0.00000000000E+00  0.00000000000E+00  0.77832405722E+01  0.77832405722E+01  0.00000000000E+00 0.  1.
          2   -1    0    0  501    0  0.00000000000E+00 -0.00000000000E+00 -0.16109316600E+04  0.16109316600E+04  0.00000000000E+00 0. -1.
         24    1    1    2    0    0  0.36236097878E+02  0.19409902554E+02 -0.12800068258E+04  0.12831891868E+04  0.80419002446E+02 0. -1.
        -24    1    1    2    0    0 -0.36236097878E+02 -0.19409902554E+02 -0.32314159363E+03  0.33552571376E+03  0.80419002446E+02 0.  1.
<mgrwt>
<rscale>  0 0.90316195E+02</rscale>
<asrwt>0</asrwt>
<pdfrwt beam="1">  1        2 0.24783589E+00 0.90316195E+02</pdfrwt>
<pdfrwt beam="2">  1       -2 0.11974204E-02 0.90316195E+02</pdfrwt>
<totfact> 0.18416609E+04</totfact>
</mgrwt>
</event>
<event>
 4    1  0.4862093E-001  0.8219534E+02  0.7546771E-02  0.1322934E+00
          2   -1    0    0  501    0  0.00000000000E+00  0.00000000000E+00  0.38396588515E+03  0.38396588515E+03  0.00000000000E+00 0. -1.
         -2   -1    0    0    0  501 -0.00000000000E+00 -0.00000000000E+00 -0.17783704480E+02  0.17783704480E+02  0.00000000000E+00 0.  1.
         24    1    1    2    0    0  0.16548959029E+02 -0.38716155739E+01  0.20375556064E+03  0.21970981293E+03  0.80419002446E+02 0.  1.
        -24    1    1    2    0    0 -0.16548959029E+02  0.38716155739E+01  0.16242662004E+03  0.18203977671E+03  0.80419002446E+02 0. -1.
<mgrwt>
<rscale>  0 0.82195337E+02</rscale>
<asrwt>0</asrwt>
<pdfrwt beam="1">  1        2 0.59071668E-01 0.82195337E+02</pdfrwt>
<pdfrwt beam="2">  1       -2 0.27359548E-02 0.82195337E+02</pdfrwt>
<totfact> 0.35531582E+04</totfact>
</mgrwt>
</event>
<event>
 4    1  0.4862093E-001  0.8616352E+02  0.7546771E-02  0.1312418E+00
         -2   -1    0    0    0  501 -0.00000000000E+00  0.00000000000E+00  0.38559389449E+02  0.38559389449E+02  0.00000000000E+00 0.  1.
          2   -1    0    0  501    0  0.00000000000E+00 -0.00000000000E+00 -0.85933298937E+03  0.85933298937E+03  0.00000000000E+00 0. -1.
         24    1    1    2    0    0 -0.22030632091E+02 -0.21716049820E+02 -0.80585328077E+03  0.81044658162E+03  0.80419002446E+02 0. -1.
        -24    1    1    2    0    0  0.22030632091E+02  0.21716049820E+02 -0.14920319147E+02  0.87445797200E+02  0.80419002446E+02 0.  1.
<mgrwt>
<rscale>  0 0.86163516E+02</rscale>
<asrwt>0</asrwt>
<pdfrwt beam="1">  1        2 0.13220505E+00 0.86163516E+02</pdfrwt>
<pdfrwt beam="2">  1       -2 0.59322149E-02 0.86163516E+02</pdfrwt>
<totfact> 0.46458009E+03</totfact>
</mgrwt>
</event>
<event>
 4    1  0.4862093E-001  0.8061057E+02  0.7546771E-02  0.1327328E+00
         -4   -1    0    0    0  501 -0.00000000000E+00  0.00000000000E+00  0.28396104181E+03  0.28396104181E+03  0.00000000000E+00 0.  1.
          4   -1    0    0  501    0  0.00000000000E+00 -0.00000000000E+00 -0.22940251395E+02  0.22940251395E+02  0.00000000000E+00 0. -1.
         24    1    1    2    0    0  0.55527206773E+01  0.10814776677E+00  0.13813376868E+03  0.15993435655E+03  0.80419002446E+02 0. -1.
        -24    1    1    2    0    0 -0.55527206773E+01 -0.10814776677E+00  0.12288702174E+03  0.14696693665E+03  0.80419002446E+02 0. -1.
<mgrwt>
<rscale>  0 0.80610558E+02</rscale>
<asrwt>0</asrwt>
<pdfrwt beam="1">  1        4 0.35292696E-02 0.80610568E+02</pdfrwt>
<pdfrwt beam="2">  1       -4 0.43686312E-01 0.80610568E+02</pdfrwt>
<totfact> 0.30475573E+03</totfact>
</mgrwt>
</event>
<event>
 4    1  0.4862093E-001  0.9098060E+02  0.7546771E-02  0.1300494E+00
          1   -1    0    0  501    0  0.00000000000E+00  0.00000000000E+00  0.30429082092E+04  0.30429082092E+04  0.00000000000E+00 0. -1.
         -1   -1    0    0    0  501 -0.00000000000E+00 -0.00000000000E+00 -0.41605061522E+01  0.41605061522E+01  0.00000000000E+00 0.  1.
         24    1    1    2    0    0 -0.23924896422E+02 -0.35183142420E+02  0.62297955722E+03  0.62958795958E+03  0.80419002446E+02 0.  1.
        -24    1    1    2    0    0  0.23924896422E+02  0.35183142420E+02  0.24157681458E+04  0.24174807557E+04  0.80419002446E+02 0. -1.
<mgrwt>
<rscale>  0 0.90980603E+02</rscale>
<asrwt>0</asrwt>
<pdfrwt beam="1">  1        1 0.46813794E+00 0.90980603E+02</pdfrwt>
<pdfrwt beam="2">  1       -1 0.64008030E-03 0.90980603E+02</pdfrwt>
<totfact> 0.24362355E+03</totfact>
</mgrwt>
</event>
<event>
 4    1  0.4862093E-001  0.1057982E+03  0.7546771E-02  0.1268555E+00
          2   -1    0    0  501    0  0.00000000000E+00  0.00000000000E+00  0.32762152754E+03  0.32762152754E+03  0.00000000000E+00 0. -1.
         -2   -1    0    0    0  501 -0.00000000000E+00 -0.00000000000E+00 -0.96414061287E+02  0.96414061287E+02  0.00000000000E+00 0.  1.
         24    1    1    2    0    0 -0.38134768816E+02 -0.57199579144E+02  0.28596375487E+03  0.30490742447E+03  0.80419002446E+02 0.  0.
        -24    1    1    2    0    0  0.38134768816E+02  0.57199579144E+02 -0.54756288608E+02  0.11912816436E+03  0.80419002446E+02 0.  1.
<mgrwt>
<rscale>  0 0.10579824E+03</rscale>
<asrwt>0</asrwt>
<pdfrwt beam="1">  1        2 0.50403311E-01 0.10579824E+03</pdfrwt>
<pdfrwt beam="2">  1       -2 0.14832933E-01 0.10579824E+03</pdfrwt>
<totfact> 0.33100052E+03</totfact>
</mgrwt>
</event>
<event>
 4    1  0.4862093E-001  0.8619020E+02  0.7546771E-02  0.1312349E+00
         -2   -1    0    0    0  501 -0.00000000000E+00  0.00000000000E+00  0.28744517223E+01  0.28744517223E+01  0.00000000000E+00 0.  1.
          2   -1    0    0  501    0  0.00000000000E+00 -0.00000000000E+00 -0.30923163186E+04  0.30923163186E+04  0.00000000000E+00 0. -1.
         24    1    1    2    0    0  0.74506213384E+01  0.30100212899E+02 -0.21719251227E+04  0.21736346265E+04  0.80419002446E+02 0. -1.
        -24    1    1    2    0    0 -0.74506213384E+01 -0.30100212899E+02 -0.91751674419E+03  0.92155614392E+03  0.80419002446E+02 0. -1.
<mgrwt>
<rscale>  0 0.86190200E+02</rscale>
<asrwt>0</asrwt>
<pdfrwt beam="1">  1        2 0.47573845E+00 0.86190200E+02</pdfrwt>
<pdfrwt beam="2">  1       -2 0.44222568E-03 0.86190200E+02</pdfrwt>
<totfact> 0.12509615E+04</totfact>
</mgrwt>
</event>
<event>
 4    1  0.4862093E-001  0.2747994E+03  0.7546771E-02  0.1098564E+00
          2   -1    0    0  501    0  0.00000000000E+00  0.00000000000E+00  0.21900594746E+03  0.21900594746E+03  0.00000000000E+00 0. -1.
         -2   -1    0    0    0  501 -0.00000000000E+00 -0.00000000000E+00 -0.35500448268E+03  0.35500448268E+03  0.00000000000E+00 0.  1.
         24    1    1    2    0    0  0.13153270483E+02 -0.26243937597E+03 -0.11664360672E+03  0.29853036952E+03  0.80419002446E+02 0.  1.
        -24    1    1    2    0    0 -0.13153270483E+02  0.26243937597E+03 -0.19354928496E+02  0.27548006061E+03  0.80419002446E+02 0. -1.
<mgrwt>
<rscale>  0 0.27479933E+03</rscale>
<asrwt>0</asrwt>
<pdfrwt beam="1">  1        2 0.33693223E-01 0.27479936E+03</pdfrwt>
<pdfrwt beam="2">  1       -2 0.54616074E-01 0.27479936E+03</pdfrwt>
<totfact> 0.49712406E+02</totfact>
</mgrwt>
</event>
<event>
 4    1  0.4862093E-001  0.9516932E+02  0.7546771E-02  0.1290795E+00
          2   -1    0    0  501    0  0.00000000000E+00  0.00000000000E+00  0.32988617786E+02  0.32988617786E+02  0.00000000000E+00 0. -1.
         -2   -1    0    0    0  501 -0.00000000000E+00 -0.00000000000E+00 -0.44922046922E+03  0.44922046922E+03  0.00000000000E+00 0.  1.
         24    1    1    2    0    0  0.15489156314E+02  0.48477517943E+02 -0.57774457368E+02  0.11133322769E+03  0.80419002446E+02 0. -1.
        -24    1    1    2    0    0 -0.15489156314E+02 -0.48477517943E+02 -0.35845739406E+03  0.37087585931E+03  0.80419002446E+02 0.  1.
<mgrwt>
<rscale>  0 0.95169321E+02</rscale>
<asrwt>0</asrwt>
<pdfrwt beam="1">  1        2 0.50751721E-02 0.95169321E+02</pdfrwt>
<pdfrwt beam="2">  1       -2 0.69110839E-01 0.95169321E+02</pdfrwt>
<totfact> 0.28158191E+03</totfact>
</mgrwt>
</event>
<event>
 4    1  0.4862093E-001  0.8405518E+02  0.7546771E-02  0.1317922E+00
          2   -1    0    0  501    0  0.00000000000E+00  0.00000000000E+00  0.44450110150E+03  0.44450110150E+03  0.00000000000E+00 0. -1.
         -2   -1    0    0    0  501 -0.00000000000E+00 -0.00000000000E+00 -0.23972968068E+02  0.23972968068E+02  0.00000000000E+00 0.  1.
         24    1    1    2    0    0  0.23676472946E+02  0.61222511844E+01  0.34623624709E+03  0.35629315469E+03  0.80419002446E+02 0. -1.
        -24    1    1    2    0    0 -0.23676472946E+02 -0.61222511844E+01  0.74291886340E+02  0.11218091487E+03  0.80419002446E+02 0.  1.
<mgrwt>
<rscale>  0 0.84055180E+02</rscale>
<asrwt>0</asrwt>
<pdfrwt beam="1">  1        2 0.68384779E-01 0.84055180E+02</pdfrwt>
<pdfrwt beam="2">  1       -2 0.36881492E-02 0.84055180E+02</pdfrwt>
<totfact> 0.19783071E+04</totfact>
</mgrwt>
</event>
<event>
 4    1  0.4862093E-001  0.1079177E+03  0.7546771E-02  0.1264475E+00
         -1   -1    0    0    0  501 -0.00000000000E+00  0.00000000000E+00  0.83732167834E+02  0.83732167834E+02  0.00000000000E+00 0.  1.
          1   -1    0    0  501    0  0.00000000000E+00 -0.00000000000E+00 -0.18750407196E+03  0.18750407196E+03  0.00000000000E+00 0. -1.
         24    1    1    2    0    0  0.50488852732E+02  0.51282456283E+02  0.17027226459E+02  0.10925272064E+03  0.80419002446E+02 0.  1.
        -24    1    1    2    0    0 -0.50488852732E+02 -0.51282456283E+02 -0.12079913059E+03  0.16198351916E+03  0.80419002446E+02 0. -1.
<mgrwt>
<rscale>  0 0.10791770E+03</rscale>
<asrwt>0</asrwt>
<pdfrwt beam="1">  1        1 0.28846780E-01 0.10791770E+03</pdfrwt>
<pdfrwt beam="2">  1       -1 0.12881872E-01 0.10791770E+03</pdfrwt>
<totfact> 0.61097563E+03</totfact>
</mgrwt>
</event>
<event>
 4    1  0.4862093E-001  0.9822875E+02  0.7546771E-02  0.1284065E+00
          2   -1    0    0  501    0  0.00000000000E+00  0.00000000000E+00  0.29790412846E+02  0.29790412846E+02  0.00000000000E+00 0. -1.
         -2   -1    0    0    0  501 -0.00000000000E+00 -0.00000000000E+00 -0.32758053225E+03  0.32758053225E+03  0.00000000000E+00 0.  1.
         24    1    1    2    0    0 -0.97335250643E+01  0.55560098713E+02 -0.16785538820E+03  0.19448473817E+03  0.80419002446E+02 0.  1.
        -24    1    1    2    0    0  0.97335250643E+01 -0.55560098713E+02 -0.12993473121E+03  0.16288620693E+03  0.80419002446E+02 0. -1.
<mgrwt>
<rscale>  0 0.98228735E+02</rscale>
<asrwt>0</asrwt>
<pdfrwt beam="1">  1        2 0.45831402E-02 0.98228748E+02</pdfrwt>
<pdfrwt beam="2">  1       -2 0.50397007E-01 0.98228748E+02</pdfrwt>
<totfact> 0.61254413E+03</totfact>
</mgrwt>
</event>
<event>
 4    1  0.4862093E-001  0.9185651E+02  0.7546771E-02  0.1298417E+00
         -3   -1    0    0    0  501 -0.00000000000E+00  0.00000000000E+00  0.19055386499E+03  0.19055386499E+03  0.00000000000E+00 0.  1.
          3   -1    0    0  501    0  0.00000000000E+00 -0.00000000000E+00 -0.73856757845E+02  0.73856757845E+02  0.00000000000E+00 0. -1.
         24    1    1    2    0    0 -0.44112948502E+02 -0.49447530323E+01  0.14201150192E+03  0.16912978874E+03  0.80419002446E+02 0.  0.
        -24    1    1    2    0    0  0.44112948502E+02  0.49447530323E+01 -0.25314394775E+02  0.95280834092E+02  0.80419002446E+02 0.  1.
<mgrwt>
<rscale>  0 0.91856512E+02</rscale>
<asrwt>0</asrwt>
<pdfrwt beam="1">  1        3 0.11362578E-01 0.91856512E+02</pdfrwt>
<pdfrwt beam="2">  1       -3 0.29315979E-01 0.91856512E+02</pdfrwt>
<totfact> 0.14300218E+03</totfact>
</mgrwt>
</event>
<event>
 4    1  0.4862093E-001  0.1738052E+03  0.7546771E-02  0.1173937E+00
          1   -1    0    0  501    0  0.00000000000E+00  0.00000000000E+00  0.49359587173E+02  0.49359587173E+02  0.00000000000E+00 0. -1.
         -1   -1    0    0    0  501 -0.00000000000E+00 -0.00000000000E+00 -0.86984081623E+03  0.86984081623E+03  0.00000000000E+00 0.  1.
         24    1    1    2    0    0 -0.63839843224E+02 -0.14023365203E+03 -0.16001395936E+03  0.23624708652E+03  0.80419002446E+02 0. -1.
        -24    1    1    2    0    0  0.63839843224E+02  0.14023365203E+03 -0.66046726970E+03  0.68295331688E+03  0.80419002446E+02 0.  1.
<mgrwt>
<rscale>  0 0.17380514E+03</rscale>
<asrwt>0</asrwt>
<pdfrwt beam="1">  1        1 0.75937821E-02 0.17380516E+03</pdfrwt>
<pdfrwt beam="2">  1       -1 0.13382167E+00 0.17380516E+03</pdfrwt>
<totfact> 0.47267303E+02</totfact>
</mgrwt>
</event>
<event>
 4    1  0.4862093E-001  0.8044411E+02  0.7546771E-02  0.1327796E+00
         -2   -1    0    0    0  501 -0.00000000000E+00  0.00000000000E+00  0.40869960431E+01  0.40869960431E+01  0.00000000000E+00 0.  1.
          2   -1    0    0  501    0  0.00000000000E+00 -0.00000000000E+00 -0.15967499205E+04  0.15967499205E+04  0.00000000000E+00 0. -1.
         24    1    1    2    0    0  0.16738209881E+01 -0.11124563788E+01 -0.86958239176E+03  0.87329536312E+03  0.80419002446E+02 0. -1.
        -24    1    1    2    0    0 -0.16738209881E+01  0.11124563788E+01 -0.72308053273E+03  0.72754155345E+03  0.80419002446E+02 0.  0.
<mgrwt>
<rscale>  0 0.80444112E+02</rscale>
<asrwt>0</asrwt>
<pdfrwt beam="1">  1        2 0.24565368E+00 0.80444112E+02</pdfrwt>
<pdfrwt beam="2">  1       -2 0.62876902E-03 0.80444112E+02</pdfrwt>
<totfact> 0.45991467E+04</totfact>
</mgrwt>
</event>
<event>
 4    1  0.4862093E-001  0.8491004E+02  0.7546771E-02  0.1315668E+00
          4   -1    0    0  501    0  0.00000000000E+00  0.00000000000E+00  0.91075607218E+02  0.91075607218E+02  0.00000000000E+00 0. -1.
         -4   -1    0    0    0  501 -0.00000000000E+00 -0.00000000000E+00 -0.79534973507E+02  0.79534973507E+02  0.00000000000E+00 0.  1.
         24    1    1    2    0    0 -0.20007761027E+01 -0.27175265824E+02  0.11613096780E+02  0.85700514286E+02  0.80419002446E+02 0. -1.
        -24    1    1    2    0    0  0.20007761027E+01  0.27175265824E+02 -0.72463068727E-01  0.84910066440E+02  0.80419002446E+02 0.  1.
<mgrwt>
<rscale>  0 0.84910036E+02</rscale>
<asrwt>0</asrwt>
<pdfrwt beam="1">  1        4 0.14011632E-01 0.84910036E+02</pdfrwt>
<pdfrwt beam="2">  1       -4 0.12236150E-01 0.84910036E+02</pdfrwt>
<totfact> 0.33067057E+03</totfact>
</mgrwt>
</event>
<event>
 4    1  0.4862093E-001  0.1311949E+03  0.7546771E-02  0.1225693E+00
          2   -1    0    0  501    0  0.00000000000E+00  0.00000000000E+00  0.15547642494E+04  0.15547642494E+04  0.00000000000E+00 0. -1.
         -2   -1    0    0    0  501 -0.00000000000E+00 -0.00000000000E+00 -0.11471962573E+02  0.11471962573E+02  0.00000000000E+00 0.  1.
         24    1    1    2    0    0 -0.49100882159E+02  0.91290749358E+02  0.91813263517E+03  0.92745870489E+03  0.80419002446E+02 0. -1.
        -24    1    1    2    0    0  0.49100882159E+02 -0.91290749358E+02  0.62515965162E+03  0.63877750705E+03  0.80419002446E+02 0.  1.
<mgrwt>
<rscale>  0 0.13119494E+03</rscale>
<asrwt>0</asrwt>
<pdfrwt beam="1">  1        2 0.23919433E+00 0.13119494E+03</pdfrwt>
<pdfrwt beam="2">  1       -2 0.17649185E-02 0.13119494E+03</pdfrwt>
<totfact> 0.11524138E+04</totfact>
</mgrwt>
</event>
<event>
 4    1  0.4862093E-001  0.8244031E+02  0.7546771E-02  0.1322265E+00
         -3   -1    0    0    0  501 -0.00000000000E+00  0.00000000000E+00  0.54785226328E+03  0.54785226328E+03  0.00000000000E+00 0.  1.
          3   -1    0    0  501    0  0.00000000000E+00 -0.00000000000E+00 -0.10705206571E+03  0.10705206571E+03  0.00000000000E+00 0. -1.
         24    1    1    2    0    0  0.14253941108E+02  0.11225575416E+02  0.52829512469E+03  0.53468882830E+03  0.80419002446E+02 0.  1.
        -24    1    1    2    0    0 -0.14253941108E+02 -0.11225575416E+02 -0.87494927116E+02  0.12021550069E+03  0.80419002446E+02 0. -1.
<mgrwt>
<rscale>  0 0.82440308E+02</rscale>
<asrwt>0</asrwt>
<pdfrwt beam="1">  1        3 0.16469549E-01 0.82440308E+02</pdfrwt>
<pdfrwt beam="2">  1       -3 0.84284962E-01 0.82440308E+02</pdfrwt>
<totfact> 0.92902545E+01</totfact>
</mgrwt>
</event>
<event>
 4    1  0.4862093E-001  0.8067121E+02  0.7546771E-02  0.1327157E+00
         -2   -1    0    0    0  501 -0.00000000000E+00  0.00000000000E+00  0.27453958783E+02  0.27453958783E+02  0.00000000000E+00 0.  1.
          2   -1    0    0  501    0  0.00000000000E+00 -0.00000000000E+00 -0.34146150618E+03  0.34146150618E+03  0.00000000000E+00 0. -1.
         24    1    1    2    0    0 -0.22821329711E+01  0.59514874142E+01 -0.25900584855E+03  0.27127822225E+03  0.80419002446E+02 0.  0.
        -24    1    1    2    0    0  0.22821329711E+01 -0.59514874142E+01 -0.55001698853E+02  0.97637242712E+02  0.80419002446E+02 0.  1.
<mgrwt>
<rscale>  0 0.80671211E+02</rscale>
<asrwt>0</asrwt>
<pdfrwt beam="1">  1        2 0.52532541E-01 0.80671211E+02</pdfrwt>
<pdfrwt beam="2">  1       -2 0.42236858E-02 0.80671211E+02</pdfrwt>
<totfact> 0.21291098E+04</totfact>
</mgrwt>
</event>
<event>
 4    1  0.4862093E-001  0.1324870E+03  0.7546771E-02  0.1223812E+00
          1   -1    0    0  501    0  0.00000000000E+00  0.00000000000E+00  0.49887136121E+03  0.49887136121E+03  0.00000000000E+00 0. -1.
         -1   -1    0    0    0  501 -0.00000000000E+00 -0.00000000000E+00 -0.35377421651E+02  0.35377421651E+02  0.00000000000E+00 0.  1.
         24    1    1    2    0    0  0.98112558653E+02  0.38203430308E+02  0.21204680686E+03  0.25003327880E+03  0.80419002446E+02 0.  1.
        -24    1    1    2    0    0 -0.98112558653E+02 -0.38203430308E+02  0.25144713270E+03  0.28421550406E+03  0.80419002446E+02 0.  0.
<mgrwt>
<rscale>  0 0.13248695E+03</rscale>
<asrwt>0</asrwt>
<pdfrwt beam="1">  1        1 0.76749435E-01 0.13248695E+03</pdfrwt>
<pdfrwt beam="2">  1       -1 0.54426806E-02 0.13248695E+03</pdfrwt>
<totfact> 0.67167822E+03</totfact>
</mgrwt>
</event>
<event>
 4    1  0.4862093E-001  0.1237598E+03  0.7546771E-02  0.1237020E+00
         -2   -1    0    0    0  501 -0.00000000000E+00  0.00000000000E+00  0.70387349190E+01  0.70387349190E+01  0.00000000000E+00 0.  1.
          2   -1    0    0  501    0  0.00000000000E+00 -0.00000000000E+00 -0.22386773846E+04  0.22386773846E+04  0.00000000000E+00 0. -1.
         24    1    1    2    0    0 -0.92212592552E+02  0.18603566418E+02 -0.92797671637E+03  0.93619295927E+03  0.80419002446E+02 0. -1.
        -24    1    1    2    0    0  0.92212592552E+02 -0.18603566418E+02 -0.13036619333E+04  0.13095231603E+04  0.80419002446E+02 0.  0.
<mgrwt>
<rscale>  0 0.12375975E+03</rscale>
<asrwt>0</asrwt>
<pdfrwt beam="1">  1        2 0.34441192E+00 0.12375976E+03</pdfrwt>
<pdfrwt beam="2">  1       -2 0.10828822E-02 0.12375976E+03</pdfrwt>
<totfact> 0.10364213E+04</totfact>
</mgrwt>
</event>
<event>
 4    1  0.4862093E-001  0.1458245E+03  0.7546771E-02  0.1205700E+00
         -2   -1    0    0    0  501 -0.00000000000E+00  0.00000000000E+00  0.42598966706E+03  0.42598966706E+03  0.00000000000E+00 0.  1.
          2   -1    0    0  501    0  0.00000000000E+00 -0.00000000000E+00 -0.61003230990E+02  0.61003230990E+02  0.00000000000E+00 0. -1.
         24    1    1    2    0    0 -0.50054083425E+02  0.11086998424E+03  0.78697823844E+02  0.16570494291E+03  0.80419002446E+02 0. -1.
        -24    1    1    2    0    0  0.50054083425E+02 -0.11086998424E+03  0.28628861222E+03  0.32128795514E+03  0.80419002446E+02 0.  1.
<mgrwt>
<rscale>  0 0.14582449E+03</rscale>
<asrwt>0</asrwt>
<pdfrwt beam="1">  1        2 0.93851127E-02 0.14582449E+03</pdfrwt>
<pdfrwt beam="2">  1       -2 0.65536870E-01 0.14582449E+03</pdfrwt>
<totfact> 0.14836797E+03</totfact>
</mgrwt>
</event>
<event>
 4    1  0.4862093E-001  0.9145296E+02  0.7546771E-02  0.1299371E+00
          2   -1    0    0  501    0  0.00000000000E+00  0.00000000000E+00  0.12777978113E+03  0.12777978113E+03  0.00000000000E+00 0. -1.
         -2   -1    0    0    0  501 -0.00000000000E+00 -0.00000000000E+00 -0.66225291396E+02  0.66225291396E+02  0.00000000000E+00 0.  1.
         24    1    1    2    0    0 -0.34987715414E+02 -0.25928442207E+02  0.20305789764E+02  0.93680122745E+02  0.80419002446E+02 0. -1.
        -24    1    1    2    0    0  0.34987715414E+02  0.25928442207E+02  0.41248699972E+02  0.10032494978E+03  0.80419002446E+02 0.  1.
<mgrwt>
<rscale>  0 0.91452952E+02</rscale>
<asrwt>0</asrwt>
<pdfrwt beam="1">  1        2 0.19658428E-01 0.91452963E+02</pdfrwt>
<pdfrwt beam="2">  1       -2 0.10188506E-01 0.91452963E+02</pdfrwt>
<totfact> 0.16330003E+04</totfact>
</mgrwt>
</event>
<event>
 4    1  0.4862093E-001  0.9183155E+02  0.7546771E-02  0.1298476E+00
          1   -1    0    0  501    0  0.00000000000E+00  0.00000000000E+00  0.56338179242E+02  0.56338179242E+02  0.00000000000E+00 0. -1.
         -1   -1    0    0    0  501 -0.00000000000E+00 -0.00000000000E+00 -0.44194124564E+03  0.44194124564E+03  0.00000000000E+00 0.  1.
         24    1    1    2    0    0  0.23927154546E+02  0.37327064968E+02 -0.39540267013E+03  0.40592647857E+03  0.80419002446E+02 0.  1.
        -24    1    1    2    0    0 -0.23927154546E+02 -0.37327064968E+02  0.97996037376E+01  0.92352946307E+02  0.80419002446E+02 0. -1.
<mgrwt>
<rscale>  0 0.91831555E+02</rscale>
<asrwt>0</asrwt>
<pdfrwt beam="1">  1        1 0.86674122E-02 0.91831555E+02</pdfrwt>
<pdfrwt beam="2">  1       -1 0.67990960E-01 0.91831555E+02</pdfrwt>
<totfact> 0.16973407E+03</totfact>
</mgrwt>
</event>
<event>
 4    1  0.4862093E-001  0.9307791E+02  0.7546771E-02  0.1295565E+00
         -2   -1    0    0    0  501 -0.00000000000E+00  0.00000000000E+00  0.20315791951E+02  0.20315791951E+02  0.00000000000E+00 0.  1.
          2   -1    0    0  501    0  0.00000000000E+00 -0.00000000000E+00 -0.71226805197E+03  0.71226805197E+03  0.00000000000E+00 0. -1.
         24    1    1    2    0    0 -0.14643137655E+02 -0.44518094586E+02 -0.57801291628E+03  0.58545916131E+03  0.80419002446E+02 0. -1.
        -24    1    1    2    0    0  0.14643137655E+02  0.44518094586E+02 -0.11393934374E+03  0.14712468261E+03  0.80419002446E+02 0.  1.
<mgrwt>
<rscale>  0 0.93077915E+02</rscale>
<asrwt>0</asrwt>
<pdfrwt beam="1">  1        2 0.10957970E+00 0.93077915E+02</pdfrwt>
<pdfrwt beam="2">  1       -2 0.31255065E-02 0.93077915E+02</pdfrwt>
<totfact> 0.15089541E+04</totfact>
</mgrwt>
</event>
<event>
 4    1  0.4862093E-001  0.9668769E+02  0.7546771E-02  0.1287420E+00
          2   -1    0    0  501    0  0.00000000000E+00  0.00000000000E+00  0.22756525858E+04  0.22756525858E+04  0.00000000000E+00 0. -1.
         -2   -1    0    0    0  501 -0.00000000000E+00 -0.00000000000E+00 -0.62516298792E+01  0.62516298792E+01  0.00000000000E+00 0.  1.
         24    1    1    2    0    0  0.14265894347E+02 -0.51747247099E+02  0.18027981657E+04  0.18053890815E+04  0.80419002446E+02 0. -1.
        -24    1    1    2    0    0 -0.14265894347E+02  0.51747247099E+02  0.46660279021E+03  0.47651513419E+03  0.80419002446E+02 0.  1.
<mgrwt>
<rscale>  0 0.96687689E+02</rscale>
<asrwt>0</asrwt>
<pdfrwt beam="1">  1        2 0.35009974E+00 0.96687689E+02</pdfrwt>
<pdfrwt beam="2">  1       -2 0.96179103E-03 0.96687689E+02</pdfrwt>
<totfact> 0.11647309E+04</totfact>
</mgrwt>
</event>
<event>
 4    1  0.4862093E-001  0.9434729E+02  0.7546771E-02  0.1292653E+00
         -2   -1    0    0    0  501 -0.00000000000E+00  0.00000000000E+00  0.53355714199E+01  0.53355714199E+01  0.00000000000E+00 0.  1.
          2   -1    0    0  501    0  0.00000000000E+00 -0.00000000000E+00 -0.25506983019E+04  0.25506983019E+04  0.00000000000E+00 0. -1.
         24    1    1    2    0    0  0.40755805292E+02  0.27805738529E+02 -0.20243663015E+04  0.20265636761E+04  0.80419002446E+02 0. -1.
        -24    1    1    2    0    0 -0.40755805292E+02 -0.27805738529E+02 -0.52099642899E+03  0.52947019721E+03  0.80419002446E+02 0.  1.
<mgrwt>
<rscale>  0 0.94347288E+02</rscale>
<asrwt>0</asrwt>
<pdfrwt beam="1">  1        2 0.39241478E+00 0.94347288E+02</pdfrwt>
<pdfrwt beam="2">  1       -2 0.82085786E-03 0.94347288E+02</pdfrwt>
<totfact> 0.10470083E+04</totfact>
</mgrwt>
</event>
<event>
 4    1  0.4862093E-001  0.9991309E+02  0.7546771E-02  0.1280479E+00
          2   -1    0    0  501    0  0.00000000000E+00  0.00000000000E+00  0.12292251721E+04  0.12292251721E+04  0.00000000000E+00 0. -1.
         -2   -1    0    0    0  501 -0.00000000000E+00 -0.00000000000E+00 -0.13110612080E+02  0.13110612080E+02  0.00000000000E+00 0.  1.
         24    1    1    2    0    0  0.56454551852E+02  0.18118874543E+02  0.99125928948E+03  0.99628189032E+03  0.80419002446E+02 0. -1.
        -24    1    1    2    0    0 -0.56454551852E+02 -0.18118874543E+02  0.22485527051E+03  0.24605389383E+03  0.80419002446E+02 0.  1.
<mgrwt>
<rscale>  0 0.99913092E+02</rscale>
<asrwt>0</asrwt>
<pdfrwt beam="1">  1        2 0.18911147E+00 0.99913092E+02</pdfrwt>
<pdfrwt beam="2">  1       -2 0.20170182E-02 0.99913092E+02</pdfrwt>
<totfact> 0.13890094E+04</totfact>
</mgrwt>
</event>
<event>
 4    1  0.4862093E-001  0.1284405E+03  0.7546771E-02  0.1229788E+00
         -1   -1    0    0    0  501 -0.00000000000E+00  0.00000000000E+00  0.43096348576E+03  0.43096348576E+03  0.00000000000E+00 0.  1.
          1   -1    0    0  501    0  0.00000000000E+00 -0.00000000000E+00 -0.13746720290E+03  0.13746720290E+03  0.00000000000E+00 0. -1.
         24    1    1    2    0    0 -0.49652817067E+02  0.86973241875E+02  0.38817045996E+03  0.40886827828E+03  0.80419002446E+02 0.  1.
        -24    1    1    2    0    0  0.49652817067E+02 -0.86973241875E+02 -0.94674177090E+02  0.15956241038E+03  0.80419002446E+02 0. -1.
<mgrwt>
<rscale>  0 0.12844050E+03</rscale>
<asrwt>0</asrwt>
<pdfrwt beam="1">  1        1 0.21148801E-01 0.12844050E+03</pdfrwt>
<pdfrwt beam="2">  1       -1 0.66302074E-01 0.12844050E+03</pdfrwt>
<totfact> 0.56740191E+02</totfact>
</mgrwt>
</event>
<event>
 4    1  0.4862093E-001  0.1300741E+03  0.7546771E-02  0.1227346E+00
         -2   -1    0    0    0  501 -0.00000000000E+00  0.00000000000E+00  0.16414534381E+04  0.16414534381E+04  0.00000000000E+00 0.  1.
          2   -1    0    0  501    0  0.00000000000E+00 -0.00000000000E+00 -0.26365864698E+02  0.26365864698E+02  0.00000000000E+00 0. -1.
         24    1    1    2    0    0 -0.61433483519E+02  0.81718914308E+02  0.15674198898E+03  0.20368436591E+03  0.80419002446E+02 0. -1.
        -24    1    1    2    0    0  0.61433483519E+02 -0.81718914308E+02  0.14583455845E+04  0.14641349369E+04  0.80419002446E+02 0.  1.
<mgrwt>
<rscale>  0 0.13007409E+03</rscale>
<asrwt>0</asrwt>
<pdfrwt beam="1">  1        2 0.40562882E-02 0.13007409E+03</pdfrwt>
<pdfrwt beam="2">  1       -2 0.25253122E+00 0.13007409E+03</pdfrwt>
<totfact> 0.14447506E+02</totfact>
</mgrwt>
</event>
<event>
 4    1  0.4862093E-001  0.1324060E+03  0.7546771E-02  0.1223929E+00
         -2   -1    0    0    0  501 -0.00000000000E+00  0.00000000000E+00  0.10004046062E+02  0.10004046062E+02  0.00000000000E+00 0.  1.
          2   -1    0    0  501    0  0.00000000000E+00 -0.00000000000E+00 -0.25311264950E+04  0.25311264950E+04  0.00000000000E+00 0. -1.
         24    1    1    2    0    0  0.39645911165E+02  0.97428592142E+02 -0.55582687885E+03  0.57137978967E+03  0.80419002446E+02 0.  1.
        -24    1    1    2    0    0 -0.39645911165E+02 -0.97428592142E+02 -0.19652955701E+04  0.19697507514E+04  0.80419002446E+02 0. -1.
<mgrwt>
<rscale>  0 0.13240600E+03</rscale>
<asrwt>0</asrwt>
<pdfrwt beam="1">  1        2 0.38940399E+00 0.13240602E+03</pdfrwt>
<pdfrwt beam="2">  1       -2 0.15390843E-02 0.13240602E+03</pdfrwt>
<totfact> 0.43956378E+03</totfact>
</mgrwt>
</event>
<event>
 4    1  0.4862093E-001  0.8416597E+02  0.7546771E-02  0.1317628E+00
          1   -1    0    0  501    0  0.00000000000E+00  0.00000000000E+00  0.24106425259E+01  0.24106425259E+01  0.00000000000E+00 0. -1.
         -1   -1    0    0    0  501 -0.00000000000E+00 -0.00000000000E+00 -0.30589487156E+04  0.30589487156E+04  0.00000000000E+00 0.  1.
         24    1    1    2    0    0 -0.17618595750E+02  0.17500834926E+02 -0.18318831578E+04  0.18338156434E+04  0.80419002446E+02 0.  1.
        -24    1    1    2    0    0  0.17618595750E+02 -0.17500834926E+02 -0.12246549152E+04  0.12275437147E+04  0.80419002446E+02 0. -1.
<mgrwt>
<rscale>  0 0.84165968E+02</rscale>
<asrwt>0</asrwt>
<pdfrwt beam="1">  1        1 0.37086698E-03 0.84165968E+02</pdfrwt>
<pdfrwt beam="2">  1       -1 0.47060889E+00 0.84165968E+02</pdfrwt>
<totfact> 0.19177423E+02</totfact>
</mgrwt>
</event>
<event>
 4    1  0.4862093E-001  0.1117990E+03  0.7546771E-02  0.1257274E+00
          2   -1    0    0  501    0  0.00000000000E+00  0.00000000000E+00  0.73953474697E+03  0.73953474697E+03  0.00000000000E+00 0. -1.
         -2   -1    0    0    0  501 -0.00000000000E+00 -0.00000000000E+00 -0.27074587511E+02  0.27074587511E+02  0.00000000000E+00 0.  1.
         24    1    1    2    0    0  0.76917039635E+02  0.10750729831E+02  0.59119117784E+03  0.60166937257E+03  0.80419002446E+02 0. -1.
        -24    1    1    2    0    0 -0.76917039635E+02 -0.10750729831E+02  0.12126898162E+03  0.16493996191E+03  0.80419002446E+02 0.  1.
<mgrwt>
<rscale>  0 0.11179904E+03</rscale>
<asrwt>0</asrwt>
<pdfrwt beam="1">  1        2 0.11377456E+00 0.11179904E+03</pdfrwt>
<pdfrwt beam="2">  1       -2 0.41653217E-02 0.11179904E+03</pdfrwt>
<totfact> 0.95961815E+03</totfact>
</mgrwt>
</event>
<event>
 4    1  0.4862093E-001  0.8719675E+02  0.7546771E-02  0.1309786E+00
         -1   -1    0    0    0  501 -0.00000000000E+00  0.00000000000E+00  0.17795903319E+03  0.17795903319E+03  0.00000000000E+00 0.  1.
          1   -1    0    0  501    0  0.00000000000E+00 -0.00000000000E+00 -0.43321670228E+02  0.43321670228E+02  0.00000000000E+00 0. -1.
         24    1    1    2    0    0 -0.27070152259E+02 -0.20081425150E+02  0.80304916610E+02  0.11854177477E+03  0.80419002446E+02 0. -1.
        -24    1    1    2    0    0  0.27070152259E+02  0.20081425150E+02  0.54332446357E+02  0.10273892865E+03  0.80419002446E+02 0.  0.
<mgrwt>
<rscale>  0 0.87196747E+02</rscale>
<asrwt>0</asrwt>
<pdfrwt beam="1">  1        1 0.66648724E-02 0.87196747E+02</pdfrwt>
<pdfrwt beam="2">  1       -1 0.27378312E-01 0.87196747E+02</pdfrwt>
<totfact> 0.11957071E+04</totfact>
</mgrwt>
</event>
<event>
 4    1  0.4862093E-001  0.8052427E+02  0.7546771E-02  0.1327570E+00
          2   -1    0    0  501    0  0.00000000000E+00  0.00000000000E+00  0.21167652533E+02  0.21167652533E+02  0.00000000000E+00 0. -1.
         -2   -1    0    0    0  501 -0.00000000000E+00 -0.00000000000E+00 -0.34991706603E+03  0.34991706603E+03  0.00000000000E+00 0.  1.
         24    1    1    2    0    0 -0.36276386398E+01 -0.19438059702E+01 -0.22986404585E+03  0.24356032861E+03  0.80419002446E+02 0.  0.
        -24    1    1    2    0    0  0.36276386398E+01  0.19438059702E+01 -0.98885367643E+02  0.12752438995E+03  0.80419002446E+02 0. -1.
<mgrwt>
<rscale>  0 0.80524255E+02</rscale>
<asrwt>0</asrwt>
<pdfrwt beam="1">  1        2 0.32565619E-02 0.80524266E+02</pdfrwt>
<pdfrwt beam="2">  1       -2 0.53833395E-01 0.80524266E+02</pdfrwt>
<totfact> 0.82408704E+03</totfact>
</mgrwt>
</event>
<event>
 4    1  0.4862093E-001  0.9024119E+02  0.7546771E-02  0.1302269E+00
          1   -1    0    0  501    0  0.00000000000E+00  0.00000000000E+00  0.33041834617E+03  0.33041834617E+03  0.00000000000E+00 0. -1.
         -1   -1    0    0    0  501 -0.00000000000E+00 -0.00000000000E+00 -0.56348954693E+02  0.56348954693E+02  0.00000000000E+00 0.  1.
         24    1    1    2    0    0 -0.37784509590E+02 -0.15766660289E+02 -0.80184201408E+01  0.90596731495E+02  0.80419002446E+02 0.  1.
        -24    1    1    2    0    0  0.37784509590E+02  0.15766660289E+02  0.28208781162E+03  0.29617056937E+03  0.80419002446E+02 0. -1.
<mgrwt>
<rscale>  0 0.90241192E+02</rscale>
<asrwt>0</asrwt>
<pdfrwt beam="1">  1        1 0.50833591E-01 0.90241192E+02</pdfrwt>
<pdfrwt beam="2">  1       -1 0.86690701E-02 0.90241192E+02</pdfrwt>
<totfact> 0.54960357E+03</totfact>
</mgrwt>
</event>
<event>
 4    1  0.4862093E-001  0.1105582E+03  0.7546771E-02  0.1259540E+00
         -2   -1    0    0    0  501 -0.00000000000E+00  0.00000000000E+00  0.15706858051E+02  0.15706858051E+02  0.00000000000E+00 0.  1.
          2   -1    0    0  501    0  0.00000000000E+00 -0.00000000000E+00 -0.77824042581E+03  0.77824042581E+03  0.00000000000E+00 0. -1.
         24    1    1    2    0    0 -0.18664253608E+01 -0.75844701359E+02 -0.37850025860E+03  0.39431657837E+03  0.80419002446E+02 0. -1.
        -24    1    1    2    0    0  0.18664253608E+01  0.75844701359E+02 -0.38403330916E+03  0.39963070548E+03  0.80419002446E+02 0.  1.
<mgrwt>
<rscale>  0 0.11055823E+03</rscale>
<asrwt>0</asrwt>
<pdfrwt beam="1">  1        2 0.11972930E+00 0.11055824E+03</pdfrwt>
<pdfrwt beam="2">  1       -2 0.24164397E-02 0.11055824E+03</pdfrwt>
<totfact> 0.20020934E+04</totfact>
</mgrwt>
</event>
<event>
 4    1  0.4862093E-001  0.8275252E+02  0.7546771E-02  0.1321417E+00
         -1   -1    0    0    0  501 -0.00000000000E+00  0.00000000000E+00  0.38591624288E+01  0.38591624288E+01  0.00000000000E+00 0.  1.
          1   -1    0    0  501    0  0.00000000000E+00 -0.00000000000E+00 -0.21598255810E+04  0.21598255810E+04  0.00000000000E+00 0. -1.
         24    1    1    2    0    0  0.16540862402E+02 -0.10352013220E+02 -0.62101743196E+03  0.62650668876E+03  0.80419002446E+02 0.  1.
        -24    1    1    2    0    0 -0.16540862402E+02  0.10352013220E+02 -0.15349489866E+04  0.15371780547E+04  0.80419002446E+02 0. -1.
<mgrwt>
<rscale>  0 0.82752524E+02</rscale>
<asrwt>0</asrwt>
<pdfrwt beam="1">  1        1 0.33228051E+00 0.82752524E+02</pdfrwt>
<pdfrwt beam="2">  1       -1 0.59371791E-03 0.82752524E+02</pdfrwt>
<totfact> 0.10144030E+04</totfact>
</mgrwt>
</event>
<event>
 4    1  0.4862093E-001  0.8279348E+02  0.7546771E-02  0.1321306E+00
         -2   -1    0    0    0  501 -0.00000000000E+00  0.00000000000E+00  0.15766751741E+02  0.15766751741E+02  0.00000000000E+00 0.  1.
          2   -1    0    0  501    0  0.00000000000E+00 -0.00000000000E+00 -0.62320631568E+03  0.62320631568E+03  0.00000000000E+00 0. -1.
         24    1    1    2    0    0  0.72075785977E+01  0.18319261779E+02 -0.47940285167E+03  0.48649959371E+03  0.80419002446E+02 0. -1.
        -24    1    1    2    0    0 -0.72075785977E+01 -0.18319261779E+02 -0.12803671228E+03  0.15247347371E+03  0.80419002446E+02 0.  1.
<mgrwt>
<rscale>  0 0.82793481E+02</rscale>
<asrwt>0</asrwt>
<pdfrwt beam="1">  1        2 0.95877881E-01 0.82793481E+02</pdfrwt>
<pdfrwt beam="2">  1       -2 0.24256545E-02 0.82793481E+02</pdfrwt>
<totfact> 0.25114659E+04</totfact>
</mgrwt>
</event>
<event>
 4    1  0.4862093E-001  0.1038102E+03  0.7546771E-02  0.1272482E+00
         -2   -1    0    0    0  501 -0.00000000000E+00  0.00000000000E+00  0.16125804632E+03  0.16125804632E+03  0.00000000000E+00 0.  1.
          2   -1    0    0  501    0  0.00000000000E+00 -0.00000000000E+00 -0.73380060321E+02  0.73380060321E+02  0.00000000000E+00 0. -1.
         24    1    1    2    0    0 -0.55375444571E+02  0.35254899262E+02  0.88826833196E+01  0.10418956666E+03  0.80419002446E+02 0. -1.
        -24    1    1    2    0    0  0.55375444571E+02 -0.35254899262E+02  0.78995302678E+02  0.13044853998E+03  0.80419002446E+02 0.  1.
<mgrwt>
<rscale>  0 0.10381023E+03</rscale>
<asrwt>0</asrwt>
<pdfrwt beam="1">  1        2 0.11289240E-01 0.10381023E+03</pdfrwt>
<pdfrwt beam="2">  1       -2 0.24808930E-01 0.10381023E+03</pdfrwt>
<totfact> 0.73322967E+03</totfact>
</mgrwt>
</event>
<event>
 4    1  0.4862093E-001  0.1263201E+03  0.7546771E-02  0.1233021E+00
         -2   -1    0    0    0  501 -0.00000000000E+00  0.00000000000E+00  0.13765508025E+02  0.13765508025E+02  0.00000000000E+00 0.  1.
          2   -1    0    0  501    0  0.00000000000E+00 -0.00000000000E+00 -0.16883408848E+04  0.16883408848E+04  0.00000000000E+00 0. -1.
         24    1    1    2    0    0  0.95513514769E+02 -0.19149927768E+02 -0.13137390252E+04  0.13197980882E+04  0.80419002446E+02 0. -1.
        -24    1    1    2    0    0 -0.95513514769E+02  0.19149927768E+02 -0.36083635154E+03  0.38230830462E+03  0.80419002446E+02 0.  1.
<mgrwt>
<rscale>  0 0.12632010E+03</rscale>
<asrwt>0</asrwt>
<pdfrwt beam="1">  1        2 0.25974460E+00 0.12632010E+03</pdfrwt>
<pdfrwt beam="2">  1       -2 0.21177717E-02 0.12632010E+03</pdfrwt>
<totfact> 0.75457611E+03</totfact>
</mgrwt>
</event>
<event>
 4    1  0.4862093E-001  0.8155316E+02  0.7546771E-02  0.1324701E+00
          1   -1    0    0  501    0  0.00000000000E+00  0.00000000000E+00  0.10333771627E+04  0.10333771627E+04  0.00000000000E+00 0. -1.
         -1   -1    0    0    0  501 -0.00000000000E+00 -0.00000000000E+00 -0.10761955952E+02  0.10761955952E+02  0.00000000000E+00 0.  1.
         24    1    1    2    0    0 -0.10121224946E+02  0.90145552031E+01  0.18031456382E+03  0.19789961920E+03  0.80419002446E+02 0.  0.
        -24    1    1    2    0    0  0.10121224946E+02 -0.90145552031E+01  0.84230064297E+03  0.84623949950E+03  0.80419002446E+02 0. -1.
<mgrwt>
<rscale>  0 0.81553157E+02</rscale>
<asrwt>0</asrwt>
<pdfrwt beam="1">  1        1 0.15898102E+00 0.81553157E+02</pdfrwt>
<pdfrwt beam="2">  1       -1 0.16556863E-02 0.81553157E+02</pdfrwt>
<totfact> 0.12651938E+04</totfact>
</mgrwt>
</event>
<event>
 4    1  0.4862093E-001  0.8139066E+02  0.7546771E-02  0.1325151E+00
          2   -1    0    0  501    0  0.00000000000E+00  0.00000000000E+00  0.59538280194E+02  0.59538280194E+02  0.00000000000E+00 0. -1.
         -2   -1    0    0    0  501 -0.00000000000E+00 -0.00000000000E+00 -0.11217559080E+03  0.11217559080E+03  0.00000000000E+00 0.  1.
         24    1    1    2    0    0 -0.28030079887E+01 -0.12221590610E+02 -0.18576985339E+02  0.83483797647E+02  0.80419002446E+02 0. -1.
        -24    1    1    2    0    0  0.28030079887E+01  0.12221590610E+02 -0.34060325262E+02  0.88230073343E+02  0.80419002446E+02 0.  1.
<mgrwt>
<rscale>  0 0.81390663E+02</rscale>
<asrwt>0</asrwt>
<pdfrwt beam="1">  1        2 0.91597354E-02 0.81390663E+02</pdfrwt>
<pdfrwt beam="2">  1       -2 0.17257783E-01 0.81390663E+02</pdfrwt>
<totfact> 0.16984964E+04</totfact>
</mgrwt>
</event>
<event>
 4    1  0.4862093E-001  0.8140512E+02  0.7546771E-02  0.1325111E+00
          1   -1    0    0  501    0  0.00000000000E+00  0.00000000000E+00  0.83866143523E+02  0.83866143523E+02  0.00000000000E+00 0. -1.
         -1   -1    0    0    0  501 -0.00000000000E+00 -0.00000000000E+00 -0.10674103741E+03  0.10674103741E+03  0.00000000000E+00 0.  1.
         24    1    1    2    0    0  0.91923045423E+01  0.86648311115E+01 -0.60008458319E+02  0.10113262968E+03  0.80419002446E+02 0.  0.
        -24    1    1    2    0    0 -0.91923045423E+01 -0.86648311115E+01  0.37133564432E+02  0.89474551258E+02  0.80419002446E+02 0. -1.
<mgrwt>
<rscale>  0 0.81405121E+02</rscale>
<asrwt>0</asrwt>
<pdfrwt beam="1">  1        1 0.12902484E-01 0.81405121E+02</pdfrwt>
<pdfrwt beam="2">  1       -1 0.16421698E-01 0.81405121E+02</pdfrwt>
<totfact> 0.11285526E+04</totfact>
</mgrwt>
</event>
<event>
 4    1  0.4862093E-001  0.8694596E+02  0.7546771E-02  0.1310421E+00
          1   -1    0    0  501    0  0.00000000000E+00  0.00000000000E+00  0.11200516354E+04  0.11200516354E+04  0.00000000000E+00 0. -1.
         -1   -1    0    0    0  501 -0.00000000000E+00 -0.00000000000E+00 -0.14404801203E+02  0.14404801203E+02  0.00000000000E+00 0.  1.
         24    1    1    2    0    0 -0.32652698728E+02 -0.51171028639E+01  0.13930950693E+03  0.16421552348E+03  0.80419002446E+02 0.  1.
        -24    1    1    2    0    0  0.32652698728E+02  0.51171028639E+01  0.96633732732E+03  0.97024091317E+03  0.80419002446E+02 0. -1.
<mgrwt>
<rscale>  0 0.86945957E+02</rscale>
<asrwt>0</asrwt>
<pdfrwt beam="1">  1        1 0.17231557E+00 0.86945957E+02</pdfrwt>
<pdfrwt beam="2">  1       -1 0.22161241E-02 0.86945957E+02</pdfrwt>
<totfact> 0.73036647E+03</totfact>
</mgrwt>
</event>
<event>
 4    1  0.4862093E-001  0.8362348E+02  0.7546771E-02  0.1319072E+00
         -3   -1    0    0    0  501 -0.00000000000E+00  0.00000000000E+00  0.84456552467E+03  0.84456552467E+03  0.00000000000E+00 0.  1.
          3   -1    0    0  501    0  0.00000000000E+00 -0.00000000000E+00 -0.17065385138E+02  0.17065385138E+02  0.00000000000E+00 0. -1.
         24    1    1    2    0    0  0.14356193622E+02  0.17876502106E+02  0.72286291543E+03  0.72768377753E+03  0.80419002446E+02 0.  1.
        -24    1    1    2    0    0 -0.14356193622E+02 -0.17876502106E+02  0.10463722410E+03  0.13394713227E+03  0.80419002446E+02 0.  1.
<mgrwt>
<rscale>  0 0.83623475E+02</rscale>
<asrwt>0</asrwt>
<pdfrwt beam="1">  1        3 0.26254445E-02 0.83623475E+02</pdfrwt>
<pdfrwt beam="2">  1       -3 0.12993313E+00 0.83623475E+02</pdfrwt>
<totfact> 0.65489686E+02</totfact>
</mgrwt>
</event>
<event>
 4    1  0.4862093E-001  0.8464705E+02  0.7546771E-02  0.1316358E+00
          1   -1    0    0  501    0  0.00000000000E+00  0.00000000000E+00  0.50036062113E+03  0.50036062113E+03  0.00000000000E+00 0. -1.
         -1   -1    0    0    0  501 -0.00000000000E+00 -0.00000000000E+00 -0.49596641251E+02  0.49596641251E+02  0.00000000000E+00 0.  1.
         24    1    1    2    0    0  0.24904579721E+02  0.88129651445E+01 -0.65266557613E+01  0.84898289944E+02  0.80419002446E+02 0.  0.
        -24    1    1    2    0    0 -0.24904579721E+02 -0.88129651445E+01  0.45729063564E+03  0.46505897244E+03  0.80419002446E+02 0. -1.
<mgrwt>
<rscale>  0 0.84647046E+02</rscale>
<asrwt>0</asrwt>
<pdfrwt beam="1">  1        1 0.76978554E-01 0.84647046E+02</pdfrwt>
<pdfrwt beam="2">  1       -1 0.76302528E-02 0.84647046E+02</pdfrwt>
<totfact> 0.39470619E+03</totfact>
</mgrwt>
</event>
<event>
 4    1  0.4862093E-001  0.1061822E+03  0.7546771E-02  0.1267808E+00
          2   -1    0    0  501    0  0.00000000000E+00  0.00000000000E+00  0.48356661842E+03  0.48356661842E+03  0.00000000000E+00 0. -1.
         -2   -1    0    0    0  501 -0.00000000000E+00 -0.00000000000E+00 -0.24155531339E+02  0.24155531339E+02  0.00000000000E+00 0.  1.
         24    1    1    2    0    0  0.56728303733E+02  0.39866500445E+02  0.18236805481E+03  0.21102786942E+03  0.80419002446E+02 0.  1.
        -24    1    1    2    0    0 -0.56728303733E+02 -0.39866500445E+02  0.27704303227E+03  0.29669428034E+03  0.80419002446E+02 0. -1.
<mgrwt>
<rscale>  0 0.10618219E+03</rscale>
<asrwt>0</asrwt>
<pdfrwt beam="1">  1        2 0.74394857E-01 0.10618220E+03</pdfrwt>
<pdfrwt beam="2">  1       -2 0.37162359E-02 0.10618220E+03</pdfrwt>
<totfact> 0.18289520E+04</totfact>
</mgrwt>
</event>
<event>
 4    1  0.4862093E-001  0.8840766E+02  0.7546771E-02  0.1306754E+00
          1   -1    0    0  501    0  0.00000000000E+00  0.00000000000E+00  0.17563783159E+03  0.17563783159E+03  0.00000000000E+00 0. -1.
         -1   -1    0    0    0  501 -0.00000000000E+00 -0.00000000000E+00 -0.57867134564E+02  0.57867134564E+02  0.00000000000E+00 0.  1.
         24    1    1    2    0    0 -0.31851911412E+02 -0.18279882082E+02  0.27719660398E+01  0.88451105700E+02  0.80419002446E+02 0.  0.
        -24    1    1    2    0    0  0.31851911412E+02  0.18279882082E+02  0.11499873098E+03  0.14505386045E+03  0.80419002446E+02 0.  0.
<mgrwt>
<rscale>  0 0.88407660E+02</rscale>
<asrwt>0</asrwt>
<pdfrwt beam="1">  1        1 0.27021205E-01 0.88407660E+02</pdfrwt>
<pdfrwt beam="2">  1       -1 0.89026362E-02 0.88407660E+02</pdfrwt>
<totfact> 0.11418527E+04</totfact>
</mgrwt>
</event>
<event>
 4    1  0.4862093E-001  0.8304894E+02  0.7546771E-02  0.1320615E+00
          2   -1    0    0  501    0  0.00000000000E+00  0.00000000000E+00  0.33738423178E+03  0.33738423178E+03  0.00000000000E+00 0. -1.
         -2   -1    0    0    0  501 -0.00000000000E+00 -0.00000000000E+00 -0.20453860352E+02  0.20453860352E+02  0.00000000000E+00 0.  1.
         24    1    1    2    0    0  0.13506545676E+02 -0.15731608830E+02  0.16259898665E+03  0.18258027469E+03  0.80419002446E+02 0. -1.
        -24    1    1    2    0    0 -0.13506545676E+02  0.15731608830E+02  0.15433138478E+03  0.17525781744E+03  0.80419002446E+02 0.  1.
<mgrwt>
<rscale>  0 0.83048939E+02</rscale>
<asrwt>0</asrwt>
<pdfrwt beam="1">  1        2 0.51905262E-01 0.83048939E+02</pdfrwt>
<pdfrwt beam="2">  1       -2 0.31467480E-02 0.83048939E+02</pdfrwt>
<totfact> 0.33249277E+04</totfact>
</mgrwt>
</event>
<event>
 4    1  0.4862093E-001  0.9244615E+02  0.7546771E-02  0.1297034E+00
         -2   -1    0    0    0  501 -0.00000000000E+00  0.00000000000E+00  0.91937371124E+02  0.91937371124E+02  0.00000000000E+00 0.  1.
          2   -1    0    0  501    0  0.00000000000E+00 -0.00000000000E+00 -0.29568121029E+03  0.29568121029E+03  0.00000000000E+00 0. -1.
         24    1    1    2    0    0 -0.41368206981E+02 -0.19176723912E+02 -0.26234963493E+03  0.27816114429E+03  0.80419002446E+02 0. -1.
        -24    1    1    2    0    0  0.41368206981E+02  0.19176723912E+02  0.58605795770E+02  0.10945743712E+03  0.80419002446E+02 0.  1.
<mgrwt>
<rscale>  0 0.92446153E+02</rscale>
<asrwt>0</asrwt>
<pdfrwt beam="1">  1        2 0.45489417E-01 0.92446153E+02</pdfrwt>
<pdfrwt beam="2">  1       -2 0.14144211E-01 0.92446153E+02</pdfrwt>
<totfact> 0.39496990E+03</totfact>
</mgrwt>
</event>
<event>
 4    1  0.4862093E-001  0.1087486E+03  0.7546771E-02  0.1262905E+00
          1   -1    0    0  501    0  0.00000000000E+00  0.00000000000E+00  0.31091477081E+03  0.31091477081E+03  0.00000000000E+00 0. -1.
         -1   -1    0    0    0  501 -0.00000000000E+00 -0.00000000000E+00 -0.12481461013E+03  0.12481461013E+03  0.00000000000E+00 0.  1.
         24    1    1    2    0    0 -0.73046951248E+02 -0.48159494482E+01 -0.88609359072E+02  0.14027788466E+03  0.80419002446E+02 0.  1.
        -24    1    1    2    0    0  0.73046951248E+02  0.48159494482E+01  0.27470951975E+03  0.29545149627E+03  0.80419002446E+02 0. -1.
<mgrwt>
<rscale>  0 0.10874864E+03</rscale>
<asrwt>0</asrwt>
<pdfrwt beam="1">  1        1 0.47833041E-01 0.10874864E+03</pdfrwt>
<pdfrwt beam="2">  1       -1 0.19202248E-01 0.10874864E+03</pdfrwt>
<totfact> 0.17577422E+03</totfact>
</mgrwt>
</event>
<event>
 4    1  0.4862093E-001  0.8114906E+02  0.7546771E-02  0.1325822E+00
          2   -1    0    0  501    0  0.00000000000E+00  0.00000000000E+00  0.12632512537E+04  0.12632512537E+04  0.00000000000E+00 0. -1.
         -2   -1    0    0    0  501 -0.00000000000E+00 -0.00000000000E+00 -0.19801404580E+02  0.19801404580E+02  0.00000000000E+00 0.  1.
         24    1    1    2    0    0  0.45262693158E+01 -0.98725551712E+01  0.11723706245E+04  0.11751757535E+04  0.80419002446E+02 0. -1.
        -24    1    1    2    0    0 -0.45262693158E+01  0.98725551712E+01  0.71079224629E+02  0.10787690479E+03  0.80419002446E+02 0.  1.
<mgrwt>
<rscale>  0 0.81149063E+02</rscale>
<asrwt>0</asrwt>
<pdfrwt beam="1">  1        2 0.19434628E+00 0.81149063E+02</pdfrwt>
<pdfrwt beam="2">  1       -2 0.30463709E-02 0.81149063E+02</pdfrwt>
<totfact> 0.72509829E+03</totfact>
</mgrwt>
</event>
<event>
 4    1  0.4862093E-001  0.8173486E+02  0.7546771E-02  0.1324199E+00
         -1   -1    0    0    0  501 -0.00000000000E+00  0.00000000000E+00  0.24281579909E+03  0.24281579909E+03  0.00000000000E+00 0.  1.
          1   -1    0    0  501    0  0.00000000000E+00 -0.00000000000E+00 -0.31865797319E+03  0.31865797319E+03  0.00000000000E+00 0. -1.
         24    1    1    2    0    0  0.14203459111E+00 -0.14606563449E+02  0.23042282191E+03  0.24448980486E+03  0.80419002446E+02 0.  1.
        -24    1    1    2    0    0 -0.14203459111E+00  0.14606563449E+02 -0.30626499600E+03  0.31698396742E+03  0.80419002446E+02 0. -1.
<mgrwt>
<rscale>  0 0.81734863E+02</rscale>
<asrwt>0</asrwt>
<pdfrwt beam="1">  1        1 0.49024303E-01 0.81734863E+02</pdfrwt>
<pdfrwt beam="2">  1       -1 0.37356277E-01 0.81734863E+02</pdfrwt>
<totfact> 0.56782017E+02</totfact>
</mgrwt>
</event>
<event>
 4    1  0.4862093E-001  0.8158730E+02  0.7546771E-02  0.1324606E+00
          4   -1    0    0  501    0  0.00000000000E+00  0.00000000000E+00  0.24850789042E+02  0.24850789042E+02  0.00000000000E+00 0. -1.
         -4   -1    0    0    0  501 -0.00000000000E+00 -0.00000000000E+00 -0.28306186555E+03  0.28306186555E+03  0.00000000000E+00 0.  1.
         24    1    1    2    0    0 -0.13756368748E+02 -0.18424308716E+00 -0.93425029605E+02  0.12403517137E+03  0.80419002446E+02 0.  0.
        -24    1    1    2    0    0  0.13756368748E+02  0.18424308716E+00 -0.16478604690E+03  0.18387748322E+03  0.80419002446E+02 0.  0.
<mgrwt>
<rscale>  0 0.81587300E+02</rscale>
<asrwt>0</asrwt>
<pdfrwt beam="1">  1        4 0.38231986E-02 0.81587300E+02</pdfrwt>
<pdfrwt beam="2">  1       -4 0.43547976E-01 0.81587300E+02</pdfrwt>
<totfact> 0.27153424E+03</totfact>
</mgrwt>
</event>
<event>
 4    1  0.4862093E-001  0.8243412E+02  0.7546771E-02  0.1322282E+00
          4   -1    0    0  501    0  0.00000000000E+00  0.00000000000E+00  0.94340045296E+02  0.94340045296E+02  0.00000000000E+00 0. -1.
         -4   -1    0    0    0  501 -0.00000000000E+00 -0.00000000000E+00 -0.24060144044E+03  0.24060144044E+03  0.00000000000E+00 0.  1.
         24    1    1    2    0    0  0.16400843138E+02  0.76929281485E+01  0.67047625643E+02  0.10625802962E+03  0.80419002446E+02 0. -1.
        -24    1    1    2    0    0 -0.16400843138E+02 -0.76929281485E+01 -0.21330902079E+03  0.22868345612E+03  0.80419002446E+02 0.  0.
<mgrwt>
<rscale>  0 0.82434124E+02</rscale>
<asrwt>0</asrwt>
<pdfrwt beam="1">  1        4 0.14513853E-01 0.82434124E+02</pdfrwt>
<pdfrwt beam="2">  1       -4 0.37015606E-01 0.82434124E+02</pdfrwt>
<totfact> 0.42206418E+02</totfact>
</mgrwt>
</event>
<event>
 4    1  0.4862093E-001  0.1135405E+03  0.7546771E-02  0.1254150E+00
         -4   -1    0    0    0  501 -0.00000000000E+00  0.00000000000E+00  0.48368794427E+02  0.48368794427E+02  0.00000000000E+00 0.  1.
          4   -1    0    0  501    0  0.00000000000E+00 -0.00000000000E+00 -0.27128870427E+03  0.27128870427E+03  0.00000000000E+00 0. -1.
         24    1    1    2    0    0 -0.79923935998E+02 -0.60320449527E+01 -0.13264181462E+03  0.17460036670E+03  0.80419002446E+02 0.  0.
        -24    1    1    2    0    0  0.79923935998E+02  0.60320449527E+01 -0.90278095225E+02  0.14505713200E+03  0.80419002446E+02 0.  1.
<mgrwt>
<rscale>  0 0.11354046E+03</rscale>
<asrwt>0</asrwt>
<pdfrwt beam="1">  1        4 0.41736724E-01 0.11354046E+03</pdfrwt>
<pdfrwt beam="2">  1       -4 0.74413530E-02 0.11354046E+03</pdfrwt>
<totfact> 0.11046109E+03</totfact>
</mgrwt>
</event>
<event>
 4    1  0.4862093E-001  0.9170588E+02  0.7546771E-02  0.1298772E+00
         -2   -1    0    0    0  501 -0.00000000000E+00  0.00000000000E+00  0.16213464685E+02  0.16213464685E+02  0.00000000000E+00 0.  1.
          2   -1    0    0  501    0  0.00000000000E+00 -0.00000000000E+00 -0.52079516670E+03  0.52079516670E+03  0.00000000000E+00 0. -1.
         24    1    1    2    0    0  0.17791229379E+02 -0.40326427557E+02 -0.23527049936E+03  0.25251172730E+03  0.80419002446E+02 0.  1.
        -24    1    1    2    0    0 -0.17791229379E+02  0.40326427557E+02 -0.26931120266E+03  0.28449690408E+03  0.80419002446E+02 0. -1.
<mgrwt>
<rscale>  0 0.91705870E+02</rscale>
<asrwt>0</asrwt>
<pdfrwt beam="1">  1        2 0.80122335E-01 0.91705882E+02</pdfrwt>
<pdfrwt beam="2">  1       -2 0.24943791E-02 0.91705882E+02</pdfrwt>
<totfact> 0.29741092E+04</totfact>
</mgrwt>
</event>
<event>
 4    1  0.4862093E-001  0.1106579E+03  0.7546771E-02  0.1259356E+00
          1   -1    0    0  501    0  0.00000000000E+00  0.00000000000E+00  0.14156937787E+04  0.14156937787E+04  0.00000000000E+00 0. -1.
         -1   -1    0    0    0  501 -0.00000000000E+00 -0.00000000000E+00 -0.11355135453E+02  0.11355135453E+02  0.00000000000E+00 0.  1.
         24    1    1    2    0    0  0.60406240392E+02  0.46141563319E+02  0.35388016448E+03  0.37077802593E+03  0.80419002446E+02 0.  1.
        -24    1    1    2    0    0 -0.60406240392E+02 -0.46141563319E+02  0.10504584788E+04  0.10562708882E+04  0.80419002446E+02 0. -1.
<mgrwt>
<rscale>  0 0.11065791E+03</rscale>
<asrwt>0</asrwt>
<pdfrwt beam="1">  1        1 0.21779890E+00 0.11065791E+03</pdfrwt>
<pdfrwt beam="2">  1       -1 0.17469450E-02 0.11065791E+03</pdfrwt>
<totfact> 0.66019378E+03</totfact>
</mgrwt>
</event>
<event>
 4    1  0.4862093E-001  0.8055804E+02  0.7546771E-02  0.1327475E+00
         -1   -1    0    0    0  501 -0.00000000000E+00  0.00000000000E+00  0.25513179124E+02  0.25513179124E+02  0.00000000000E+00 0.  1.
          1   -1    0    0  501    0  0.00000000000E+00 -0.00000000000E+00 -0.27166874334E+03  0.27166874334E+03  0.00000000000E+00 0. -1.
         24    1    1    2    0    0  0.18896312621E+01  0.43372308368E+01 -0.85574189465E+02  0.11752676348E+03  0.80419002446E+02 0.  0.
        -24    1    1    2    0    0 -0.18896312621E+01 -0.43372308368E+01 -0.16058137476E+03  0.17965515899E+03  0.80419002446E+02 0. -1.
<mgrwt>
<rscale>  0 0.80558043E+02</rscale>
<asrwt>0</asrwt>
<pdfrwt beam="1">  1        1 0.41795192E-01 0.80558043E+02</pdfrwt>
<pdfrwt beam="2">  1       -1 0.39251044E-02 0.80558043E+02</pdfrwt>
<totfact> 0.22131668E+04</totfact>
</mgrwt>
</event>
<event>
 4    1  0.4862093E-001  0.1087483E+03  0.7546771E-02  0.1262906E+00
          4   -1    0    0  501    0  0.00000000000E+00  0.00000000000E+00  0.72821644570E+01  0.72821644570E+01  0.00000000000E+00 0. -1.
         -4   -1    0    0    0  501 -0.00000000000E+00 -0.00000000000E+00 -0.19029293619E+04  0.19029293619E+04  0.00000000000E+00 0.  1.
         24    1    1    2    0    0 -0.48802572189E+02  0.54564532868E+02 -0.58215176798E+03  0.59222198221E+03  0.80419002446E+02 0. -1.
        -24    1    1    2    0    0  0.48802572189E+02 -0.54564532868E+02 -0.13134954295E+04  0.13179895442E+04  0.80419002446E+02 0.  1.
<mgrwt>
<rscale>  0 0.10874831E+03</rscale>
<asrwt>0</asrwt>
<pdfrwt beam="1">  1        4 0.11203317E-02 0.10874831E+03</pdfrwt>
<pdfrwt beam="2">  1       -4 0.29275869E+00 0.10874831E+03</pdfrwt>
<totfact> 0.16731105E+02</totfact>
</mgrwt>
</event>
<event>
 4    1  0.4862093E-001  0.8318115E+02  0.7546771E-02  0.1320259E+00
          1   -1    0    0  501    0  0.00000000000E+00  0.00000000000E+00  0.15599478911E+04  0.15599478911E+04  0.00000000000E+00 0. -1.
         -1   -1    0    0    0  501 -0.00000000000E+00 -0.00000000000E+00 -0.71465903519E+01  0.71465903519E+01  0.00000000000E+00 0.  1.
         24    1    1    2    0    0 -0.18765742984E+02 -0.99867536714E+01  0.29379764205E+03  0.30534596573E+03  0.80419002446E+02 0.  1.
        -24    1    1    2    0    0  0.18765742984E+02  0.99867536714E+01  0.12590036587E+04  0.12617485158E+04  0.80419002446E+02 0. -1.
<mgrwt>
<rscale>  0 0.83181154E+02</rscale>
<asrwt>0</asrwt>
<pdfrwt beam="1">  1        1 0.23999171E+00 0.83181154E+02</pdfrwt>
<pdfrwt beam="2">  1       -1 0.10994767E-02 0.83181154E+02</pdfrwt>
<totfact> 0.10147680E+04</totfact>
</mgrwt>
</event>
<event>
 4    1  0.4862093E-001  0.9043590E+02  0.7546771E-02  0.1301800E+00
         -3   -1    0    0    0  501 -0.00000000000E+00  0.00000000000E+00  0.88568903493E+02  0.88568903493E+02  0.00000000000E+00 0.  1.
          3   -1    0    0  501    0  0.00000000000E+00 -0.00000000000E+00 -0.10160222885E+03  0.10160222885E+03  0.00000000000E+00 0. -1.
         24    1    1    2    0    0 -0.39357971672E+02 -0.12743109782E+02  0.22189010529E+02  0.93118230888E+02  0.80419002446E+02 0.  1.
        -24    1    1    2    0    0  0.39357971672E+02  0.12743109782E+02 -0.35222335885E+02  0.97052901454E+02  0.80419002446E+02 0. -1.
<mgrwt>
<rscale>  0 0.90435904E+02</rscale>
<asrwt>0</asrwt>
<pdfrwt beam="1">  1        3 0.15631112E-01 0.90435904E+02</pdfrwt>
<pdfrwt beam="2">  1       -3 0.13625985E-01 0.90435904E+02</pdfrwt>
<totfact> 0.31850922E+03</totfact>
</mgrwt>
</event>
<event>
 4    1  0.4862093E-001  0.2438950E+03  0.7546771E-02  0.1117225E+00
         -2   -1    0    0    0  501 -0.00000000000E+00  0.00000000000E+00  0.33865412253E+02  0.33865412253E+02  0.00000000000E+00 0.  1.
          2   -1    0    0  501    0  0.00000000000E+00 -0.00000000000E+00 -0.18065179563E+04  0.18065179563E+04  0.00000000000E+00 0. -1.
         24    1    1    2    0    0 -0.12186340528E+03  0.19536336085E+03 -0.73321728132E+03  0.77271749682E+03  0.80419002446E+02 0. -1.
        -24    1    1    2    0    0  0.12186340528E+03 -0.19536336085E+03 -0.10394352627E+04  0.10676658717E+04  0.80419002446E+02 0.  0.
<mgrwt>
<rscale>  0 0.24389498E+03</rscale>
<asrwt>0</asrwt>
<pdfrwt beam="1">  1        2 0.27792585E+00 0.24389501E+03</pdfrwt>
<pdfrwt beam="2">  1       -2 0.52100631E-02 0.24389501E+03</pdfrwt>
<totfact> 0.17291732E+03</totfact>
</mgrwt>
</event>
<event>
 4    1  0.4862093E-001  0.1067487E+03  0.7546771E-02  0.1266712E+00
         -1   -1    0    0    0  501 -0.00000000000E+00  0.00000000000E+00  0.94270986470E+01  0.94270986470E+01  0.00000000000E+00 0.  1.
          1   -1    0    0  501    0  0.00000000000E+00 -0.00000000000E+00 -0.18296116015E+04  0.18296116015E+04  0.00000000000E+00 0. -1.
         24    1    1    2    0    0  0.27668300031E+02 -0.64517648484E+02 -0.37445753266E+03  0.38937606695E+03  0.80419002446E+02 0.  1.
        -24    1    1    2    0    0 -0.27668300031E+02  0.64517648484E+02 -0.14457269702E+04  0.14496626332E+04  0.80419002446E+02 0. -1.
<mgrwt>
<rscale>  0 0.10674867E+03</rscale>
<asrwt>0</asrwt>
<pdfrwt beam="1">  1        1 0.28147886E+00 0.10674867E+03</pdfrwt>
<pdfrwt beam="2">  1       -1 0.14503221E-02 0.10674867E+03</pdfrwt>
<totfact> 0.46851810E+03</totfact>
</mgrwt>
</event>
<event>
 4    1  0.4862093E-001  0.8570557E+02  0.7546771E-02  0.1313598E+00
          2   -1    0    0  501    0  0.00000000000E+00  0.00000000000E+00  0.15378566615E+04  0.15378566615E+04  0.00000000000E+00 0. -1.
         -2   -1    0    0    0  501 -0.00000000000E+00 -0.00000000000E+00 -0.56440142717E+01  0.56440142717E+01  0.00000000000E+00 0.  1.
         24    1    1    2    0    0  0.80358913554E+01 -0.28524599952E+02  0.10686875159E+04  0.10721186739E+04  0.80419002446E+02 0. -1.
        -24    1    1    2    0    0 -0.80358913554E+01  0.28524599952E+02  0.46352513138E+03  0.47138200191E+03  0.80419002446E+02 0.  1.
<mgrwt>
<rscale>  0 0.85705568E+02</rscale>
<asrwt>0</asrwt>
<pdfrwt beam="1">  1        2 0.23659300E+00 0.85705568E+02</pdfrwt>
<pdfrwt beam="2">  1       -2 0.86831111E-03 0.85705568E+02</pdfrwt>
<totfact> 0.31472794E+04</totfact>
</mgrwt>
</event>
<event>
 4    1  0.4862093E-001  0.2473412E+03  0.7546771E-02  0.1114997E+00
          1   -1    0    0  501    0  0.00000000000E+00  0.00000000000E+00  0.84072207036E+02  0.84072207036E+02  0.00000000000E+00 0. -1.
         -1   -1    0    0    0  501 -0.00000000000E+00 -0.00000000000E+00 -0.74325879965E+03  0.74325879965E+03  0.00000000000E+00 0.  1.
         24    1    1    2    0    0  0.23325346902E+03  0.17413324690E+02 -0.26970342265E+03  0.36594747824E+03  0.80419002446E+02 0.  1.
        -24    1    1    2    0    0 -0.23325346902E+03 -0.17413324690E+02 -0.38948316996E+03  0.46138352845E+03  0.80419002446E+02 0. -1.
<mgrwt>
<rscale>  0 0.24734113E+03</rscale>
<asrwt>0</asrwt>
<pdfrwt beam="1">  1        1 0.12934185E-01 0.24734116E+03</pdfrwt>
<pdfrwt beam="2">  1       -1 0.11434751E+00 0.24734116E+03</pdfrwt>
<totfact> 0.33739322E+02</totfact>
</mgrwt>
</event>
<event>
 4    1  0.4862093E-001  0.1025198E+03  0.7546771E-02  0.1275085E+00
          2   -1    0    0  501    0  0.00000000000E+00  0.00000000000E+00  0.49916490200E+02  0.49916490200E+02  0.00000000000E+00 0. -1.
         -2   -1    0    0    0  501 -0.00000000000E+00 -0.00000000000E+00 -0.21100680434E+03  0.21100680434E+03  0.00000000000E+00 0.  1.
         24    1    1    2    0    0  0.60782604243E+02  0.18670244780E+02 -0.74528743730E+02  0.12674719963E+03  0.80419002446E+02 0.  1.
        -24    1    1    2    0    0 -0.60782604243E+02 -0.18670244780E+02 -0.86561570414E+02  0.13417609491E+03  0.80419002446E+02 0.  0.
<mgrwt>
<rscale>  0 0.10251985E+03</rscale>
<asrwt>0</asrwt>
<pdfrwt beam="1">  1        2 0.76794600E-02 0.10251985E+03</pdfrwt>
<pdfrwt beam="2">  1       -2 0.32462585E-01 0.10251985E+03</pdfrwt>
<totfact> 0.72948714E+03</totfact>
</mgrwt>
</event>
<event>
 4    1  0.4862093E-001  0.8130988E+02  0.7546771E-02  0.1325375E+00
         -1   -1    0    0    0  501 -0.00000000000E+00  0.00000000000E+00  0.61763086531E+02  0.61763086531E+02  0.00000000000E+00 0.  1.
          1   -1    0    0  501    0  0.00000000000E+00 -0.00000000000E+00 -0.12702389405E+04  0.12702389405E+04  0.00000000000E+00 0. -1.
         24    1    1    2    0    0  0.11797029656E+02  0.22159739791E+01  0.33083686630E+02  0.87782838441E+02  0.80419002446E+02 0.  1.
        -24    1    1    2    0    0 -0.11797029656E+02 -0.22159739791E+01 -0.12415595406E+04  0.12442191886E+04  0.80419002446E+02 0. -1.
<mgrwt>
<rscale>  0 0.81309879E+02</rscale>
<asrwt>0</asrwt>
<pdfrwt beam="1">  1        1 0.19542139E+00 0.81309879E+02</pdfrwt>
<pdfrwt beam="2">  1       -1 0.95020127E-02 0.81309879E+02</pdfrwt>
<totfact> 0.69153506E+02</totfact>
</mgrwt>
</event>
<event>
 4    1  0.4862093E-001  0.9699442E+02  0.7546771E-02  0.1286746E+00
         -1   -1    0    0    0  501 -0.00000000000E+00  0.00000000000E+00  0.36372481176E+02  0.36372481176E+02  0.00000000000E+00 0.  1.
          1   -1    0    0  501    0  0.00000000000E+00 -0.00000000000E+00 -0.25901962448E+03  0.25901962448E+03  0.00000000000E+00 0. -1.
         24    1    1    2    0    0 -0.21589616218E+02 -0.49745253275E+02 -0.10578075602E+03  0.14351824292E+03  0.80419002446E+02 0. -1.
        -24    1    1    2    0    0  0.21589616218E+02  0.49745253275E+02 -0.11686638728E+03  0.15187386274E+03  0.80419002446E+02 0.  1.
<mgrwt>
<rscale>  0 0.96994421E+02</rscale>
<asrwt>0</asrwt>
<pdfrwt beam="1">  1        1 0.39849175E-01 0.96994421E+02</pdfrwt>
<pdfrwt beam="2">  1       -1 0.55957661E-02 0.96994421E+02</pdfrwt>
<totfact> 0.14257389E+04</totfact>
</mgrwt>
</event>
<event>
 4    1  0.4862093E-001  0.8948491E+02  0.7546771E-02  0.1304104E+00
          1   -1    0    0  501    0  0.00000000000E+00  0.00000000000E+00  0.79293123146E+01  0.79293123146E+01  0.00000000000E+00 0. -1.
         -1   -1    0    0    0  501 -0.00000000000E+00 -0.00000000000E+00 -0.10402640545E+04  0.10402640545E+04  0.00000000000E+00 0.  1.
         24    1    1    2    0    0  0.27004481522E+02 -0.28479604288E+02 -0.42657730173E+03  0.43586206555E+03  0.80419002446E+02 0. -1.
        -24    1    1    2    0    0 -0.27004481522E+02  0.28479604288E+02 -0.60575744043E+03  0.61233130124E+03  0.80419002446E+02 0.  1.
<mgrwt>
<rscale>  0 0.89484903E+02</rscale>
<asrwt>0</asrwt>
<pdfrwt beam="1">  1        1 0.12198947E-02 0.89484914E+02</pdfrwt>
<pdfrwt beam="2">  1       -1 0.16004056E+00 0.89484914E+02</pdfrwt>
<totfact> 0.36109017E+03</totfact>
</mgrwt>
</event>
<event>
 4    1  0.4862093E-001  0.8258895E+02  0.7546771E-02  0.1321861E+00
          3   -1    0    0  501    0  0.00000000000E+00  0.00000000000E+00  0.41904974444E+02  0.41904974444E+02  0.00000000000E+00 0. -1.
         -3   -1    0    0    0  501 -0.00000000000E+00 -0.00000000000E+00 -0.16826359524E+03  0.16826359524E+03  0.00000000000E+00 0.  1.
         24    1    1    2    0    0 -0.14061461499E+02 -0.12489630554E+02 -0.44194095557E+02  0.93669897018E+02  0.80419002446E+02 0. -1.
        -24    1    1    2    0    0  0.14061461499E+02  0.12489630554E+02 -0.82164525241E+02  0.11649867267E+03  0.80419002446E+02 0.  1.
<mgrwt>
<rscale>  0 0.82588941E+02</rscale>
<asrwt>0</asrwt>
<pdfrwt beam="1">  1        3 0.64469192E-02 0.82588952E+02</pdfrwt>
<pdfrwt beam="2">  1       -3 0.25886707E-01 0.82588952E+02</pdfrwt>
<totfact> 0.43803896E+03</totfact>
</mgrwt>
</event>
<event>
 4    1  0.4862093E-001  0.8352273E+02  0.7546771E-02  0.1319342E+00
         -1   -1    0    0    0  501 -0.00000000000E+00  0.00000000000E+00  0.35152574198E+01  0.35152574198E+01  0.00000000000E+00 0.  1.
          1   -1    0    0  501    0  0.00000000000E+00 -0.00000000000E+00 -0.19858698561E+04  0.19858698561E+04  0.00000000000E+00 0. -1.
         24    1    1    2    0    0 -0.22059233598E+02  0.47134621864E+01 -0.10172636543E+04  0.10206867222E+04  0.80419002446E+02 0. -1.
        -24    1    1    2    0    0  0.22059233598E+02 -0.47134621864E+01 -0.96509094442E+03  0.96869839138E+03  0.80419002446E+02 0.  1.
<mgrwt>
<rscale>  0 0.83522717E+02</rscale>
<asrwt>0</asrwt>
<pdfrwt beam="1">  1        1 0.30551887E+00 0.83522727E+02</pdfrwt>
<pdfrwt beam="2">  1       -1 0.54080807E-03 0.83522727E+02</pdfrwt>
<totfact> 0.14858259E+04</totfact>
</mgrwt>
</event>
<event>
 4    1  0.4862093E-001  0.8767693E+02  0.7546771E-02  0.1308577E+00
         -2   -1    0    0    0  501 -0.00000000000E+00  0.00000000000E+00  0.20220295407E+03  0.20220295407E+03  0.00000000000E+00 0.  1.
          2   -1    0    0  501    0  0.00000000000E+00 -0.00000000000E+00 -0.29514905313E+03  0.29514905313E+03  0.00000000000E+00 0. -1.
         24    1    1    2    0    0  0.77179367801E+01 -0.34065535663E+02 -0.27858147226E+03  0.29205287177E+03  0.80419002446E+02 0. -1.
        -24    1    1    2    0    0 -0.77179367801E+01  0.34065535663E+02  0.18563537320E+03  0.20529913543E+03  0.80419002446E+02 0.  1.
<mgrwt>
<rscale>  0 0.87676925E+02</rscale>
<asrwt>0</asrwt>
<pdfrwt beam="1">  1        2 0.45407547E-01 0.87676925E+02</pdfrwt>
<pdfrwt beam="2">  1       -2 0.31108147E-01 0.87676925E+02</pdfrwt>
<totfact> 0.10412522E+03</totfact>
</mgrwt>
</event>
<event>
 4    1  0.4862093E-001  0.8082838E+02  0.7546771E-02  0.1326717E+00
          2   -1    0    0  501    0  0.00000000000E+00  0.00000000000E+00  0.11087017553E+04  0.11087017553E+04  0.00000000000E+00 0. -1.
         -2   -1    0    0    0  501 -0.00000000000E+00 -0.00000000000E+00 -0.11738586260E+02  0.11738586260E+02  0.00000000000E+00 0.  1.
         24    1    1    2    0    0 -0.46012489299E+01 -0.66962577807E+01  0.94382697392E+03  0.94728168145E+03  0.80419002446E+02 0. -1.
        -24    1    1    2    0    0  0.46012489299E+01  0.66962577807E+01  0.15313619512E+03  0.17315866010E+03  0.80419002446E+02 0.  1.
<mgrwt>
<rscale>  0 0.80828382E+02</rscale>
<asrwt>0</asrwt>
<pdfrwt beam="1">  1        2 0.17056942E+00 0.80828382E+02</pdfrwt>
<pdfrwt beam="2">  1       -2 0.18059372E-02 0.80828382E+02</pdfrwt>
<totfact> 0.18653146E+04</totfact>
</mgrwt>
</event>
<event>
 4    1  0.4862093E-001  0.8404666E+02  0.7546771E-02  0.1317945E+00
         -2   -1    0    0    0  501 -0.00000000000E+00  0.00000000000E+00  0.44109522167E+03  0.44109522167E+03  0.00000000000E+00 0.  1.
          2   -1    0    0  501    0  0.00000000000E+00 -0.00000000000E+00 -0.18310985855E+02  0.18310985855E+02  0.00000000000E+00 0. -1.
         24    1    1    2    0    0  0.11484588423E+02  0.21557567908E+02  0.13004169506E+03  0.15483760174E+03  0.80419002446E+02 0. -1.
        -24    1    1    2    0    0 -0.11484588423E+02 -0.21557567908E+02  0.29274254076E+03  0.30456860578E+03  0.80419002446E+02 0.  1.
<mgrwt>
<rscale>  0 0.84046656E+02</rscale>
<asrwt>0</asrwt>
<pdfrwt beam="1">  1        2 0.28170751E-02 0.84046656E+02</pdfrwt>
<pdfrwt beam="2">  1       -2 0.67860795E-01 0.84046656E+02</pdfrwt>
<totfact> 0.62570097E+03</totfact>
</mgrwt>
</event>
<event>
 4    1  0.4862093E-001  0.1401460E+03  0.7546771E-02  0.1213133E+00
          1   -1    0    0  501    0  0.00000000000E+00  0.00000000000E+00  0.16131590551E+04  0.16131590551E+04  0.00000000000E+00 0. -1.
         -1   -1    0    0    0  501 -0.00000000000E+00 -0.00000000000E+00 -0.29559893632E+02  0.29559893632E+02  0.00000000000E+00 0.  1.
         24    1    1    2    0    0  0.69099403492E+02 -0.91645897021E+02  0.16191291123E+03  0.21414178663E+03  0.80419002446E+02 0.  1.
        -24    1    1    2    0    0 -0.69099403492E+02  0.91645897021E+02  0.14216862502E+04  0.14285771621E+04  0.80419002446E+02 0. -1.
<mgrwt>
<rscale>  0 0.14014605E+03</rscale>
<asrwt>0</asrwt>
<pdfrwt beam="1">  1        1 0.24817825E+00 0.14014605E+03</pdfrwt>
<pdfrwt beam="2">  1       -1 0.45476772E-02 0.14014605E+03</pdfrwt>
<totfact> 0.12327456E+03</totfact>
</mgrwt>
</event>
<event>
 4    1  0.4862093E-001  0.9874333E+02  0.7546771E-02  0.1282961E+00
          3   -1    0    0  501    0  0.00000000000E+00  0.00000000000E+00  0.34051459404E+02  0.34051459404E+02  0.00000000000E+00 0. -1.
         -3   -1    0    0    0  501 -0.00000000000E+00 -0.00000000000E+00 -0.28639250765E+03  0.28639250765E+03  0.00000000000E+00 0.  1.
         24    1    1    2    0    0  0.51090989673E+02  0.25937149172E+02 -0.12396854315E+03  0.15848798244E+03  0.80419002446E+02 0. -1.
        -24    1    1    2    0    0 -0.51090989673E+02 -0.25937149172E+02 -0.12837250510E+03  0.16195598461E+03  0.80419002446E+02 0.  1.
<mgrwt>
<rscale>  0 0.98743320E+02</rscale>
<asrwt>0</asrwt>
<pdfrwt beam="1">  1        3 0.52386860E-02 0.98743333E+02</pdfrwt>
<pdfrwt beam="2">  1       -3 0.44060386E-01 0.98743333E+02</pdfrwt>
<totfact> 0.23447441E+03</totfact>
</mgrwt>
</event>
<event>
 4    1  0.4862093E-001  0.9182182E+02  0.7546771E-02  0.1298499E+00
         -2   -1    0    0    0  501 -0.00000000000E+00  0.00000000000E+00  0.43007157385E+03  0.43007157385E+03  0.00000000000E+00 0.  1.
          2   -1    0    0  501    0  0.00000000000E+00 -0.00000000000E+00 -0.45037067595E+02  0.45037067595E+02  0.00000000000E+00 0. -1.
         24    1    1    2    0    0  0.14717219897E+02  0.41802327723E+02  0.14002220948E+02  0.92883310182E+02  0.80419002446E+02 0. -1.
        -24    1    1    2    0    0 -0.14717219897E+02 -0.41802327723E+02  0.37103228530E+03  0.38222533126E+03  0.80419002446E+02 0.  1.
<mgrwt>
<rscale>  0 0.91821823E+02</rscale>
<asrwt>0</asrwt>
<pdfrwt beam="1">  1        2 0.69287799E-02 0.91821823E+02</pdfrwt>
<pdfrwt beam="2">  1       -2 0.66164855E-01 0.91821823E+02</pdfrwt>
<totfact> 0.20693713E+03</totfact>
</mgrwt>
</event>
<event>
 4    1  0.4862093E-001  0.1275831E+03  0.7546771E-02  0.1231087E+00
          3   -1    0    0  501    0  0.00000000000E+00  0.00000000000E+00  0.21366661086E+03  0.21366661086E+03  0.00000000000E+00 0. -1.
         -3   -1    0    0    0  501 -0.00000000000E+00 -0.00000000000E+00 -0.18409889681E+03  0.18409889681E+03  0.00000000000E+00 0.  1.
         24    1    1    2    0    0 -0.95548930421E+02 -0.26088841561E+02 -0.13748716879E+03  0.18756375794E+03  0.80419002446E+02 0.  1.
        -24    1    1    2    0    0  0.95548930421E+02  0.26088841561E+02  0.16705488283E+03  0.21020174973E+03  0.80419002446E+02 0. -1.
<mgrwt>
<rscale>  0 0.12758308E+03</rscale>
<asrwt>0</asrwt>
<pdfrwt beam="1">  1        3 0.32871786E-01 0.12758308E+03</pdfrwt>
<pdfrwt beam="2">  1       -3 0.28322907E-01 0.12758308E+03</pdfrwt>
<totfact> 0.25009383E+02</totfact>
</mgrwt>
</event>
<event>
 4    1  0.4862093E-001  0.1021265E+03  0.7546771E-02  0.1275887E+00
          2   -1    0    0  501    0  0.00000000000E+00  0.00000000000E+00  0.22129431717E+03  0.22129431717E+03  0.00000000000E+00 0. -1.
         -2   -1    0    0    0  501 -0.00000000000E+00 -0.00000000000E+00 -0.51755683491E+02  0.51755683491E+02  0.00000000000E+00 0.  1.
         24    1    1    2    0    0 -0.30585620106E+02  0.55019311722E+02  0.12558006232E+03  0.16186467442E+03  0.80419002446E+02 0.  1.
        -24    1    1    2    0    0  0.30585620106E+02 -0.55019311722E+02  0.43958571356E+02  0.11118532623E+03  0.80419002446E+02 0.  0.
<mgrwt>
<rscale>  0 0.10212649E+03</rscale>
<asrwt>0</asrwt>
<pdfrwt beam="1">  1        2 0.34045279E-01 0.10212649E+03</pdfrwt>
<pdfrwt beam="2">  1       -2 0.79624130E-02 0.10212649E+03</pdfrwt>
<totfact> 0.13288089E+04</totfact>
</mgrwt>
</event>
<event>
 4    1  0.4862093E-001  0.8469946E+02  0.7546771E-02  0.1316220E+00
         -2   -1    0    0    0  501 -0.00000000000E+00  0.00000000000E+00  0.26781853269E+02  0.26781853269E+02  0.00000000000E+00 0.  1.
          2   -1    0    0  501    0  0.00000000000E+00 -0.00000000000E+00 -0.11885236542E+04  0.11885236542E+04  0.00000000000E+00 0. -1.
         24    1    1    2    0    0  0.13650092331E+02 -0.22813528296E+02 -0.11156817365E+04  0.11188921911E+04  0.80419002446E+02 0.  0.
        -24    1    1    2    0    0 -0.13650092331E+02  0.22813528296E+02 -0.46060064453E+02  0.96413316434E+02  0.80419002446E+02 0.  0.
<mgrwt>
<rscale>  0 0.84699457E+02</rscale>
<asrwt>0</asrwt>
<pdfrwt beam="1">  1        2 0.18284977E+00 0.84699457E+02</pdfrwt>
<pdfrwt beam="2">  1       -2 0.41202856E-02 0.84699457E+02</pdfrwt>
<totfact> 0.51285726E+03</totfact>
</mgrwt>
</event>
<event>
 4    1  0.4862093E-001  0.8192066E+02  0.7546771E-02  0.1323688E+00
         -2   -1    0    0    0  501 -0.00000000000E+00  0.00000000000E+00  0.62394136265E+01  0.62394136265E+01  0.00000000000E+00 0.  1.
          2   -1    0    0  501    0  0.00000000000E+00 -0.00000000000E+00 -0.14389868124E+04  0.14389868124E+04  0.00000000000E+00 0. -1.
         24    1    1    2    0    0  0.15605994159E+02 -0.48147570428E+00 -0.10795130883E+04  0.10826169695E+04  0.80419002446E+02 0. -1.
        -24    1    1    2    0    0 -0.15605994159E+02  0.48147570428E+00 -0.35323431048E+03  0.36260925654E+03  0.80419002446E+02 0.  1.
<mgrwt>
<rscale>  0 0.81920662E+02</rscale>
<asrwt>0</asrwt>
<pdfrwt beam="1">  1        2 0.22138253E+00 0.81920662E+02</pdfrwt>
<pdfrwt beam="2">  1       -2 0.95991003E-03 0.81920662E+02</pdfrwt>
<totfact> 0.30564199E+04</totfact>
</mgrwt>
</event>
<event>
 4    1  0.4862093E-001  0.8838715E+02  0.7546771E-02  0.1306805E+00
          1   -1    0    0  501    0  0.00000000000E+00  0.00000000000E+00  0.16950214402E+03  0.16950214402E+03  0.00000000000E+00 0. -1.
         -1   -1    0    0    0  501 -0.00000000000E+00 -0.00000000000E+00 -0.50514692695E+02  0.50514692695E+02  0.00000000000E+00 0.  1.
         24    1    1    2    0    0 -0.35505602279E+02  0.91882941235E+01  0.26934240325E+02  0.92399901506E+02  0.80419002446E+02 0.  1.
        -24    1    1    2    0    0  0.35505602279E+02 -0.91882941235E+01  0.92053210995E+02  0.12761693520E+03  0.80419002446E+02 0. -1.
<mgrwt>
<rscale>  0 0.88387151E+02</rscale>
<asrwt>0</asrwt>
<pdfrwt beam="1">  1        1 0.26077253E-01 0.88387151E+02</pdfrwt>
<pdfrwt beam="2">  1       -1 0.77714913E-02 0.88387151E+02</pdfrwt>
<totfact> 0.14616149E+04</totfact>
</mgrwt>
</event>
<event>
 4    1  0.4862093E-001  0.1543483E+03  0.7546771E-02  0.1195229E+00
         -1   -1    0    0    0  501 -0.00000000000E+00  0.00000000000E+00  0.12318065720E+02  0.12318065720E+02  0.00000000000E+00 0.  1.
          1   -1    0    0  501    0  0.00000000000E+00 -0.00000000000E+00 -0.20041415778E+04  0.20041415778E+04  0.00000000000E+00 0. -1.
         24    1    1    2    0    0 -0.11141321487E+03 -0.70308496227E+02 -0.80732279961E+03  0.82194495425E+03  0.80419002446E+02 0.  1.
        -24    1    1    2    0    0  0.11141321487E+03  0.70308496227E+02 -0.11845007125E+04  0.11945146893E+04  0.80419002446E+02 0. -1.
<mgrwt>
<rscale>  0 0.15434832E+03</rscale>
<asrwt>0</asrwt>
<pdfrwt beam="1">  1        1 0.30832934E+00 0.15434832E+03</pdfrwt>
<pdfrwt beam="2">  1       -1 0.18950879E-02 0.15434832E+03</pdfrwt>
<totfact> 0.24875196E+03</totfact>
</mgrwt>
</event>
<event>
 4    1  0.4862093E-001  0.8735120E+02  0.7546771E-02  0.1309396E+00
          2   -1    0    0  501    0  0.00000000000E+00  0.00000000000E+00  0.35063914229E+03  0.35063914229E+03  0.00000000000E+00 0. -1.
         -2   -1    0    0    0  501 -0.00000000000E+00 -0.00000000000E+00 -0.53558626389E+02  0.53558626389E+02  0.00000000000E+00 0.  1.
         24    1    1    2    0    0 -0.30842983531E+02 -0.14550803199E+02  0.30426121932E+03  0.31655192472E+03  0.80419002446E+02 0. -1.
        -24    1    1    2    0    0  0.30842983531E+02  0.14550803199E+02 -0.71807034235E+01  0.87645843957E+02  0.80419002446E+02 0.  1.
<mgrwt>
<rscale>  0 0.87351196E+02</rscale>
<asrwt>0</asrwt>
<pdfrwt beam="1">  1        2 0.53944482E-01 0.87351196E+02</pdfrwt>
<pdfrwt beam="2">  1       -2 0.82397889E-02 0.87351196E+02</pdfrwt>
<totfact> 0.76739351E+03</totfact>
</mgrwt>
</event>
<event>
 4    1  0.4862093E-001  0.9046705E+02  0.7546771E-02  0.1301725E+00
          2   -1    0    0  501    0  0.00000000000E+00  0.00000000000E+00  0.94817280907E+03  0.94817280907E+03  0.00000000000E+00 0. -1.
         -2   -1    0    0    0  501 -0.00000000000E+00 -0.00000000000E+00 -0.52010339053E+02  0.52010339053E+02  0.00000000000E+00 0.  1.
         24    1    1    2    0    0 -0.15886299244E+02  0.38271345892E+02  0.90479379605E+03  0.90930528413E+03  0.80419002446E+02 0. -1.
        -24    1    1    2    0    0  0.15886299244E+02 -0.38271345892E+02 -0.86313260356E+01  0.90877863991E+02  0.80419002446E+02 0.  1.
<mgrwt>
<rscale>  0 0.90467046E+02</rscale>
<asrwt>0</asrwt>
<pdfrwt beam="1">  1        2 0.14587273E+00 0.90467046E+02</pdfrwt>
<pdfrwt beam="2">  1       -2 0.80015913E-02 0.90467046E+02</pdfrwt>
<totfact> 0.26096401E+03</totfact>
</mgrwt>
</event>
<event>
 4    1  0.4862093E-001  0.1018688E+03  0.7546771E-02  0.1276415E+00
          2   -1    0    0  501    0  0.00000000000E+00  0.00000000000E+00  0.94424716689E+03  0.94424716689E+03  0.00000000000E+00 0. -1.
         -2   -1    0    0    0  501 -0.00000000000E+00 -0.00000000000E+00 -0.16383731127E+02  0.16383731127E+02  0.00000000000E+00 0.  1.
         24    1    1    2    0    0  0.62269337397E+02  0.57061156709E+01  0.73952338822E+03  0.74650658926E+03  0.80419002446E+02 0. -1.
        -24    1    1    2    0    0 -0.62269337397E+02 -0.57061156709E+01  0.18834004755E+03  0.21412430876E+03  0.80419002446E+02 0.  1.
<mgrwt>
<rscale>  0 0.10186877E+03</rscale>
<asrwt>0</asrwt>
<pdfrwt beam="1">  1        2 0.14526875E+00 0.10186877E+03</pdfrwt>
<pdfrwt beam="2">  1       -2 0.25205748E-02 0.10186877E+03</pdfrwt>
<totfact> 0.14645258E+04</totfact>
</mgrwt>
</event>
<event>
 4    1  0.4862093E-001  0.8277893E+02  0.7546771E-02  0.1321345E+00
         -1   -1    0    0    0  501 -0.00000000000E+00  0.00000000000E+00  0.98476762533E+01  0.98476762533E+01  0.00000000000E+00 0.  1.
          1   -1    0    0  501    0  0.00000000000E+00 -0.00000000000E+00 -0.35840804532E+04  0.35840804532E+04  0.00000000000E+00 0. -1.
         24    1    1    2    0    0  0.16367505908E+02  0.10827746001E+02 -0.17399289509E+03  0.19268076922E+03  0.80419002446E+02 0.  1.
        -24    1    1    2    0    0 -0.16367505908E+02 -0.10827746001E+02 -0.34002398819E+04  0.34012473603E+04  0.80419002446E+02 0. -1.
<mgrwt>
<rscale>  0 0.82778930E+02</rscale>
<asrwt>0</asrwt>
<pdfrwt beam="1">  1        1 0.55139756E+00 0.82778930E+02</pdfrwt>
<pdfrwt beam="2">  1       -1 0.15150256E-02 0.82778930E+02</pdfrwt>
<totfact> 0.29912622E+02</totfact>
</mgrwt>
</event>
<event>
 4    1  0.4862093E-001  0.8818994E+02  0.7546771E-02  0.1307295E+00
         -2   -1    0    0    0  501 -0.00000000000E+00  0.00000000000E+00  0.23954478062E+02  0.23954478062E+02  0.00000000000E+00 0.  1.
          2   -1    0    0  501    0  0.00000000000E+00 -0.00000000000E+00 -0.67616380170E+03  0.67616380170E+03  0.00000000000E+00 0. -1.
         24    1    1    2    0    0  0.30444846267E+02  0.19579588306E+02 -0.57849344840E+03  0.58517701146E+03  0.80419002446E+02 0. -1.
        -24    1    1    2    0    0 -0.30444846267E+02 -0.19579588306E+02 -0.73715875231E+02  0.11494126830E+03  0.80419002446E+02 0.  1.
<mgrwt>
<rscale>  0 0.88189936E+02</rscale>
<asrwt>0</asrwt>
<pdfrwt beam="1">  1        2 0.10402518E+00 0.88189936E+02</pdfrwt>
<pdfrwt beam="2">  1       -2 0.36853050E-02 0.88189936E+02</pdfrwt>
<totfact> 0.12545977E+04</totfact>
</mgrwt>
</event>
<event>
 4    1  0.4862093E-001  0.9998766E+02  0.7546771E-02  0.1280322E+00
         -2   -1    0    0    0  501 -0.00000000000E+00  0.00000000000E+00  0.37055117522E+03  0.37055117522E+03  0.00000000000E+00 0.  1.
          2   -1    0    0  501    0  0.00000000000E+00 -0.00000000000E+00 -0.38040314728E+02  0.38040314728E+02  0.00000000000E+00 0. -1.
         24    1    1    2    0    0 -0.34312659821E+02  0.48507295733E+02  0.56096997384E+02  0.11464905335E+03  0.80419002446E+02 0. -1.
        -24    1    1    2    0    0  0.34312659821E+02 -0.48507295733E+02  0.27641386311E+03  0.29394243661E+03  0.80419002446E+02 0.  1.
<mgrwt>
<rscale>  0 0.99987661E+02</rscale>
<asrwt>0</asrwt>
<pdfrwt beam="1">  1        2 0.58523564E-02 0.99987661E+02</pdfrwt>
<pdfrwt beam="2">  1       -2 0.57007870E-01 0.99987661E+02</pdfrwt>
<totfact> 0.35004960E+03</totfact>
</mgrwt>
</event>
<event>
 4    1  0.4862093E-001  0.9444911E+02  0.7546771E-02  0.1292422E+00
          1   -1    0    0  501    0  0.00000000000E+00  0.00000000000E+00  0.48701908822E+03  0.48701908822E+03  0.00000000000E+00 0. -1.
         -1   -1    0    0    0  501 -0.00000000000E+00 -0.00000000000E+00 -0.32531196046E+02  0.32531196046E+02  0.00000000000E+00 0.  1.
         24    1    1    2    0    0 -0.49253325485E+02  0.52466955914E+01  0.55527575819E+02  0.10956251876E+03  0.80419002446E+02 0.  1.
        -24    1    1    2    0    0  0.49253325485E+02 -0.52466955914E+01  0.39896031635E+03  0.40998776550E+03  0.80419002446E+02 0. -1.
<mgrwt>
<rscale>  0 0.94449107E+02</rscale>
<asrwt>0</asrwt>
<pdfrwt beam="1">  1        1 0.74926008E-01 0.94449107E+02</pdfrwt>
<pdfrwt beam="2">  1       -1 0.50047998E-02 0.94449107E+02</pdfrwt>
<totfact> 0.76654595E+03</totfact>
</mgrwt>
</event>
<event>
 4    1  0.4862093E-001  0.8076979E+02  0.7546771E-02  0.1326881E+00
          1   -1    0    0  501    0  0.00000000000E+00  0.00000000000E+00  0.55023504425E+02  0.55023504425E+02  0.00000000000E+00 0. -1.
         -1   -1    0    0    0  501 -0.00000000000E+00 -0.00000000000E+00 -0.17708065990E+03  0.17708065990E+03  0.00000000000E+00 0.  1.
         24    1    1    2    0    0 -0.71989955964E+01  0.21719832907E+01 -0.12774156031E+03  0.15113459311E+03  0.80419002446E+02 0.  0.
        -24    1    1    2    0    0  0.71989955964E+01 -0.21719832907E+01  0.56844048437E+01  0.80969571209E+02  0.80419002446E+02 0. -1.
<mgrwt>
<rscale>  0 0.80769790E+02</rscale>
<asrwt>0</asrwt>
<pdfrwt beam="1">  1        1 0.84651546E-02 0.80769790E+02</pdfrwt>
<pdfrwt beam="2">  1       -1 0.27243178E-01 0.80769790E+02</pdfrwt>
<totfact> 0.87126617E+03</totfact>
</mgrwt>
</event>
<event>
 4    1  0.4862093E-001  0.8451469E+02  0.7546771E-02  0.1316707E+00
         -2   -1    0    0    0  501 -0.00000000000E+00  0.00000000000E+00  0.91505315950E+02  0.91505315950E+02  0.00000000000E+00 0.  1.
          2   -1    0    0  501    0  0.00000000000E+00 -0.00000000000E+00 -0.15599431126E+03  0.15599431126E+03  0.00000000000E+00 0. -1.
         24    1    1    2    0    0 -0.14000373145E+02 -0.21897619420E+02 -0.11971463052E+03  0.14654120546E+03  0.80419002446E+02 0. -1.
        -24    1    1    2    0    0  0.14000373145E+02  0.21897619420E+02  0.55225635202E+02  0.10095842175E+03  0.80419002446E+02 0.  1.
<mgrwt>
<rscale>  0 0.84514686E+02</rscale>
<asrwt>0</asrwt>
<pdfrwt beam="1">  1        2 0.23999125E-01 0.84514686E+02</pdfrwt>
<pdfrwt beam="2">  1       -2 0.14077741E-01 0.84514686E+02</pdfrwt>
<totfact> 0.77999553E+03</totfact>
</mgrwt>
</event>
<event>
 4    1  0.4862093E-001  0.8149659E+02  0.7546771E-02  0.1324857E+00
         -2   -1    0    0    0  501 -0.00000000000E+00  0.00000000000E+00  0.55512257547E+02  0.55512257547E+02  0.00000000000E+00 0.  1.
          2   -1    0    0  501    0  0.00000000000E+00 -0.00000000000E+00 -0.84061855923E+03  0.84061855923E+03  0.00000000000E+00 0. -1.
         24    1    1    2    0    0  0.13188701355E+02  0.73210122788E+00 -0.80750908522E+03  0.81161112393E+03  0.80419002446E+02 0. -1.
        -24    1    1    2    0    0 -0.13188701355E+02 -0.73210122788E+00  0.22402783532E+02  0.84519692853E+02  0.80419002446E+02 0.  1.
<mgrwt>
<rscale>  0 0.81496587E+02</rscale>
<asrwt>0</asrwt>
<pdfrwt beam="1">  1        2 0.12932593E+00 0.81496587E+02</pdfrwt>
<pdfrwt beam="2">  1       -2 0.85403478E-02 0.81496587E+02</pdfrwt>
<totfact> 0.27444176E+03</totfact>
</mgrwt>
</event>
<event>
 4    1  0.4862093E-001  0.1131695E+03  0.7546771E-02  0.1254811E+00
          2   -1    0    0  501    0  0.00000000000E+00  0.00000000000E+00  0.39182978966E+03  0.39182978966E+03  0.00000000000E+00 0. -1.
         -2   -1    0    0    0  501 -0.00000000000E+00 -0.00000000000E+00 -0.33995699606E+02  0.33995699606E+02  0.00000000000E+00 0.  1.
         24    1    1    2    0    0  0.76190695900E+02 -0.23132211282E+02  0.22070780402E+03  0.24803078851E+03  0.80419002446E+02 0. -1.
        -24    1    1    2    0    0 -0.76190695900E+02  0.23132211282E+02  0.13712628604E+03  0.17779470076E+03  0.80419002446E+02 0.  0.
<mgrwt>
<rscale>  0 0.11316951E+03</rscale>
<asrwt>0</asrwt>
<pdfrwt beam="1">  1        2 0.60281503E-01 0.11316951E+03</pdfrwt>
<pdfrwt beam="2">  1       -2 0.52301079E-02 0.11316951E+03</pdfrwt>
<totfact> 0.13870176E+04</totfact>
</mgrwt>
</event>
<event>
 4    1  0.4862093E-001  0.8155558E+02  0.7546771E-02  0.1324694E+00
          1   -1    0    0  501    0  0.00000000000E+00  0.00000000000E+00  0.12621135123E+03  0.12621135123E+03  0.00000000000E+00 0. -1.
         -1   -1    0    0    0  501 -0.00000000000E+00 -0.00000000000E+00 -0.74009957229E+02  0.74009957229E+02  0.00000000000E+00 0.  1.
         24    1    1    2    0    0 -0.11518305028E+02  0.71710943712E+01 -0.27618391642E+02  0.86105095415E+02  0.80419002446E+02 0.  1.
        -24    1    1    2    0    0  0.11518305028E+02 -0.71710943712E+01  0.79819785646E+02  0.11411621305E+03  0.80419002446E+02 0. -1.
<mgrwt>
<rscale>  0 0.81555576E+02</rscale>
<asrwt>0</asrwt>
<pdfrwt beam="1">  1        1 0.19417131E-01 0.81555576E+02</pdfrwt>
<pdfrwt beam="2">  1       -1 0.11386147E-01 0.81555576E+02</pdfrwt>
<totfact> 0.11787504E+04</totfact>
</mgrwt>
</event>
<event>
 4    1  0.4862093E-001  0.8873727E+02  0.7546771E-02  0.1305939E+00
         -2   -1    0    0    0  501 -0.00000000000E+00  0.00000000000E+00  0.71500050916E+03  0.71500050916E+03  0.00000000000E+00 0.  1.
          2   -1    0    0  501    0  0.00000000000E+00 -0.00000000000E+00 -0.19019115642E+02  0.19019115642E+02  0.00000000000E+00 0. -1.
         24    1    1    2    0    0  0.25857447086E+02  0.27174980214E+02  0.10987207945E+03  0.14123093470E+03  0.80419002446E+02 0. -1.
        -24    1    1    2    0    0 -0.25857447086E+02 -0.27174980214E+02  0.58610931407E+03  0.59278869010E+03  0.80419002446E+02 0.  1.
<mgrwt>
<rscale>  0 0.88737270E+02</rscale>
<asrwt>0</asrwt>
<pdfrwt beam="1">  1        2 0.29260183E-02 0.88737270E+02</pdfrwt>
<pdfrwt beam="2">  1       -2 0.11000006E+00 0.88737270E+02</pdfrwt>
<totfact> 0.20574813E+03</totfact>
</mgrwt>
</event>
<event>
 4    1  0.4862093E-001  0.8187697E+02  0.7546771E-02  0.1323808E+00
          2   -1    0    0  501    0  0.00000000000E+00  0.00000000000E+00  0.11233570657E+04  0.11233570657E+04  0.00000000000E+00 0. -1.
         -2   -1    0    0    0  501 -0.00000000000E+00 -0.00000000000E+00 -0.30531246525E+02  0.30531246525E+02  0.00000000000E+00 0.  1.
         24    1    1    2    0    0  0.13673067531E+02 -0.70476159742E+01  0.10639091588E+04  0.10670550763E+04  0.80419002446E+02 0. -1.
        -24    1    1    2    0    0 -0.13673067531E+02  0.70476159742E+01  0.28916660396E+02  0.86833235973E+02  0.80419002446E+02 0.  1.
<mgrwt>
<rscale>  0 0.81876966E+02</rscale>
<asrwt>0</asrwt>
<pdfrwt beam="1">  1        2 0.17282413E+00 0.81876966E+02</pdfrwt>
<pdfrwt beam="2">  1       -2 0.46971157E-02 0.81876966E+02</pdfrwt>
<totfact> 0.45842839E+03</totfact>
</mgrwt>
</event>
<event>
 4    1  0.4862093E-001  0.8771029E+02  0.7546771E-02  0.1308493E+00
         -1   -1    0    0    0  501 -0.00000000000E+00  0.00000000000E+00  0.13523710228E+04  0.13523710228E+04  0.00000000000E+00 0.  1.
          1   -1    0    0  501    0  0.00000000000E+00 -0.00000000000E+00 -0.66010294966E+01  0.66010294966E+01  0.00000000000E+00 0. -1.
         24    1    1    2    0    0  0.39999666686E+01  0.34783311634E+02  0.92550919009E+03  0.92965604145E+03  0.80419002446E+02 0.  1.
        -24    1    1    2    0    0 -0.39999666686E+01 -0.34783311634E+02  0.42026080325E+03  0.42931601089E+03  0.80419002446E+02 0. -1.
<mgrwt>
<rscale>  0 0.87710287E+02</rscale>
<asrwt>0</asrwt>
<pdfrwt beam="1">  1        1 0.10155441E-02 0.87710287E+02</pdfrwt>
<pdfrwt beam="2">  1       -1 0.20805686E+00 0.87710287E+02</pdfrwt>
<totfact> 0.22032649E+03</totfact>
</mgrwt>
</event>
<event>
 4    1  0.4862093E-001  0.8625002E+02  0.7546771E-02  0.1312196E+00
         -4   -1    0    0    0  501 -0.00000000000E+00  0.00000000000E+00  0.14442041861E+03  0.14442041861E+03  0.00000000000E+00 0.  1.
          4   -1    0    0  501    0  0.00000000000E+00 -0.00000000000E+00 -0.91075505389E+02  0.91075505389E+02  0.00000000000E+00 0. -1.
         24    1    1    2    0    0  0.29966657962E+02  0.85935584248E+01 -0.50936545951E+02  0.10016784666E+03  0.80419002446E+02 0. -1.
        -24    1    1    2    0    0 -0.29966657962E+02 -0.85935584248E+01  0.10428145917E+03  0.13532807734E+03  0.80419002446E+02 0.  1.
<mgrwt>
<rscale>  0 0.86250019E+02</rscale>
<asrwt>0</asrwt>
<pdfrwt beam="1">  1        4 0.14011616E-01 0.86250019E+02</pdfrwt>
<pdfrwt beam="2">  1       -4 0.22218526E-01 0.86250019E+02</pdfrwt>
<totfact> 0.11719729E+03</totfact>
</mgrwt>
</event>
<event>
 4    1  0.4862093E-001  0.8077704E+02  0.7546771E-02  0.1326861E+00
         -1   -1    0    0    0  501 -0.00000000000E+00  0.00000000000E+00  0.39315368790E+03  0.39315368790E+03  0.00000000000E+00 0.  1.
          1   -1    0    0  501    0  0.00000000000E+00 -0.00000000000E+00 -0.23584024855E+02  0.23584024855E+02  0.00000000000E+00 0. -1.
         24    1    1    2    0    0 -0.64123417939E+01  0.40738493442E+01  0.29820468299E+03  0.30895139308E+03  0.80419002446E+02 0.  0.
        -24    1    1    2    0    0  0.64123417939E+01 -0.40738493442E+01  0.71364980053E+02  0.10778631967E+03  0.80419002446E+02 0. -1.
<mgrwt>
<rscale>  0 0.80777041E+02</rscale>
<asrwt>0</asrwt>
<pdfrwt beam="1">  1        1 0.36283118E-02 0.80777041E+02</pdfrwt>
<pdfrwt beam="2">  1       -1 0.60485178E-01 0.80777041E+02</pdfrwt>
<totfact> 0.67613486E+03</totfact>
</mgrwt>
</event>
<event>
 4    1  0.4862093E-001  0.1142467E+03  0.7546771E-02  0.1252902E+00
         -2   -1    0    0    0  501 -0.00000000000E+00  0.00000000000E+00  0.67945442100E+01  0.67945442100E+01  0.00000000000E+00 0.  1.
          2   -1    0    0  501    0  0.00000000000E+00 -0.00000000000E+00 -0.19541121356E+04  0.19541121356E+04  0.00000000000E+00 0. -1.
         24    1    1    2    0    0  0.52653938612E+02  0.61746710620E+02 -0.84602802608E+03  0.85370705185E+03  0.80419002446E+02 0. -1.
        -24    1    1    2    0    0 -0.52653938612E+02 -0.61746710620E+02 -0.11012895654E+04  0.11071996280E+04  0.80419002446E+02 0.  1.
<mgrwt>
<rscale>  0 0.11424672E+03</rscale>
<asrwt>0</asrwt>
<pdfrwt beam="1">  1        2 0.30063323E+00 0.11424673E+03</pdfrwt>
<pdfrwt beam="2">  1       -2 0.10453124E-02 0.11424673E+03</pdfrwt>
<totfact> 0.15194116E+04</totfact>
</mgrwt>
</event>
<event>
 4    1  0.4862093E-001  0.1564738E+03  0.7546771E-02  0.1192736E+00
         -4   -1    0    0    0  501 -0.00000000000E+00  0.00000000000E+00  0.37027571625E+03  0.37027571625E+03  0.00000000000E+00 0.  1.
          4   -1    0    0  501    0  0.00000000000E+00 -0.00000000000E+00 -0.90626134224E+02  0.90626134224E+02  0.00000000000E+00 0. -1.
         24    1    1    2    0    0  0.13415078387E+03 -0.45153162852E+01  0.19997574328E+02  0.15774644157E+03  0.80419002446E+02 0. -1.
        -24    1    1    2    0    0 -0.13415078387E+03  0.45153162852E+01  0.25965200770E+03  0.30315540891E+03  0.80419002446E+02 0.  1.
<mgrwt>
<rscale>  0 0.15647376E+03</rscale>
<asrwt>0</asrwt>
<pdfrwt beam="1">  1        4 0.13942482E-01 0.15647376E+03</pdfrwt>
<pdfrwt beam="2">  1       -4 0.56965494E-01 0.15647376E+03</pdfrwt>
<totfact> 0.21688531E+02</totfact>
</mgrwt>
</event>
<event>
 4    1  0.4862093E-001  0.8536968E+02  0.7546771E-02  0.1314469E+00
         -3   -1    0    0    0  501 -0.00000000000E+00  0.00000000000E+00  0.11083925331E+03  0.11083925331E+03  0.00000000000E+00 0.  1.
          3   -1    0    0  501    0  0.00000000000E+00 -0.00000000000E+00 -0.90611885453E+02  0.90611885453E+02  0.00000000000E+00 0. -1.
         24    1    1    2    0    0 -0.12894200022E+01 -0.28619989323E+02  0.62871938979E+02  0.10602293647E+03  0.80419002446E+02 0. -1.
        -24    1    1    2    0    0  0.12894200022E+01  0.28619989323E+02 -0.42644571119E+02  0.95428202294E+02  0.80419002446E+02 0.  0.
<mgrwt>
<rscale>  0 0.85369680E+02</rscale>
<asrwt>0</asrwt>
<pdfrwt beam="1">  1        3 0.13940290E-01 0.85369680E+02</pdfrwt>
<pdfrwt beam="2">  1       -3 0.17052193E-01 0.85369680E+02</pdfrwt>
<totfact> 0.26095238E+03</totfact>
</mgrwt>
</event>
<event>
 4    1  0.4862093E-001  0.8514128E+02  0.7546771E-02  0.1315063E+00
         -3   -1    0    0    0  501 -0.00000000000E+00  0.00000000000E+00  0.44448121371E+02  0.44448121371E+02  0.00000000000E+00 0.  1.
          3   -1    0    0  501    0  0.00000000000E+00 -0.00000000000E+00 -0.19840951177E+03  0.19840951177E+03  0.00000000000E+00 0. -1.
         24    1    1    2    0    0  0.19170485589E+02  0.20354701017E+02 -0.25747811292E+02  0.88949351386E+02  0.80419002446E+02 0.  1.
        -24    1    1    2    0    0 -0.19170485589E+02 -0.20354701017E+02 -0.12821357911E+03  0.15390828176E+03  0.80419002446E+02 0. -1.
<mgrwt>
<rscale>  0 0.85141279E+02</rscale>
<asrwt>0</asrwt>
<pdfrwt beam="1">  1        3 0.30524540E-01 0.85141279E+02</pdfrwt>
<pdfrwt beam="2">  1       -3 0.68381725E-02 0.85141279E+02</pdfrwt>
<totfact> 0.29791475E+03</totfact>
</mgrwt>
</event>
<event>
 4    1  0.4862093E-001  0.8279592E+02  0.7546771E-02  0.1321299E+00
          2   -1    0    0  501    0  0.00000000000E+00  0.00000000000E+00  0.15878575459E+04  0.15878575459E+04  0.00000000000E+00 0. -1.
         -2   -1    0    0    0  501 -0.00000000000E+00 -0.00000000000E+00 -0.66880382065E+01  0.66880382065E+01  0.00000000000E+00 0.  1.
         24    1    1    2    0    0 -0.64791900584E+01 -0.18600209616E+02  0.12652689543E+04  0.12679750354E+04  0.80419002446E+02 0. -1.
        -24    1    1    2    0    0  0.64791900584E+01  0.18600209616E+02  0.31590055344E+03  0.32657054877E+03  0.80419002446E+02 0.  0.
<mgrwt>
<rscale>  0 0.82795916E+02</rscale>
<asrwt>0</asrwt>
<pdfrwt beam="1">  1        2 0.24428548E+00 0.82795916E+02</pdfrwt>
<pdfrwt beam="2">  1       -2 0.10289302E-02 0.82795916E+02</pdfrwt>
<totfact> 0.23303597E+04</totfact>
</mgrwt>
</event>
<event>
 4    1  0.4862093E-001  0.9201419E+02  0.7546771E-02  0.1298046E+00
         -2   -1    0    0    0  501 -0.00000000000E+00  0.00000000000E+00  0.19240432801E+03  0.19240432801E+03  0.00000000000E+00 0.  1.
          2   -1    0    0  501    0  0.00000000000E+00 -0.00000000000E+00 -0.55332683391E+02  0.55332683391E+02  0.00000000000E+00 0. -1.
         24    1    1    2    0    0 -0.39857783950E+02  0.20267036609E+02  0.12488533438E+02  0.92857822159E+02  0.80419002446E+02 0. -1.
        -24    1    1    2    0    0  0.39857783950E+02 -0.20267036609E+02  0.12458311118E+03  0.15487918924E+03  0.80419002446E+02 0.  1.
<mgrwt>
<rscale>  0 0.92014193E+02</rscale>
<asrwt>0</asrwt>
<pdfrwt beam="1">  1        2 0.85127206E-02 0.92014193E+02</pdfrwt>
<pdfrwt beam="2">  1       -2 0.29600666E-01 0.92014193E+02</pdfrwt>
<totfact> 0.75023249E+03</totfact>
</mgrwt>
</event>
<event>
 4    1  0.4862093E-001  0.1032321E+03  0.7546771E-02  0.1273642E+00
          2   -1    0    0  501    0  0.00000000000E+00  0.00000000000E+00  0.15333094075E+04  0.15333094075E+04  0.00000000000E+00 0. -1.
         -2   -1    0    0    0  501 -0.00000000000E+00 -0.00000000000E+00 -0.11364659710E+02  0.11364659710E+02  0.00000000000E+00 0.  1.
         24    1    1    2    0    0  0.64526728668E+02  0.50948887180E+01  0.12423271869E+04  0.12466088849E+04  0.80419002446E+02 0. -1.
        -24    1    1    2    0    0 -0.64526728668E+02 -0.50948887180E+01  0.27961756089E+03  0.29806518232E+03  0.80419002446E+02 0.  1.
<mgrwt>
<rscale>  0 0.10323213E+03</rscale>
<asrwt>0</asrwt>
<pdfrwt beam="1">  1        2 0.23589359E+00 0.10323213E+03</pdfrwt>
<pdfrwt beam="2">  1       -2 0.17484104E-02 0.10323213E+03</pdfrwt>
<totfact> 0.11841731E+04</totfact>
</mgrwt>
</event>
<event>
 4    1  0.4862093E-001  0.8043056E+02  0.7546771E-02  0.1327834E+00
          2   -1    0    0  501    0  0.00000000000E+00  0.00000000000E+00  0.10196727148E+04  0.10196727148E+04  0.00000000000E+00 0. -1.
         -2   -1    0    0    0  501 -0.00000000000E+00 -0.00000000000E+00 -0.70968413013E+01  0.70968413013E+01  0.00000000000E+00 0.  1.
         24    1    1    2    0    0 -0.40093671168E+00 -0.13033014530E+01  0.67346832072E+03  0.67825412223E+03  0.80419002446E+02 0.  0.
        -24    1    1    2    0    0  0.40093671168E+00  0.13033014530E+01  0.33910755275E+03  0.34851543385E+03  0.80419002446E+02 0.  1.
<mgrwt>
<rscale>  0 0.80430562E+02</rscale>
<asrwt>0</asrwt>
<pdfrwt beam="1">  1        2 0.15687261E+00 0.80430562E+02</pdfrwt>
<pdfrwt beam="2">  1       -2 0.10918225E-02 0.80430562E+02</pdfrwt>
<totfact> 0.42786061E+04</totfact>
</mgrwt>
</event>
<event>
 4    1  0.4862093E-001  0.8090568E+02  0.7546771E-02  0.1326501E+00
         -1   -1    0    0    0  501 -0.00000000000E+00  0.00000000000E+00  0.21824868349E+02  0.21824868349E+02  0.00000000000E+00 0.  1.
          1   -1    0    0  501    0  0.00000000000E+00 -0.00000000000E+00 -0.50880970121E+03  0.50880970121E+03  0.00000000000E+00 0. -1.
         24    1    1    2    0    0 -0.85014734224E+01  0.24975473506E+01 -0.73493681705E+02  0.10930256172E+03  0.80419002446E+02 0.  1.
        -24    1    1    2    0    0  0.85014734224E+01 -0.24975473506E+01 -0.41349115116E+03  0.42133200784E+03  0.80419002446E+02 0. -1.
<mgrwt>
<rscale>  0 0.80905678E+02</rscale>
<asrwt>0</asrwt>
<pdfrwt beam="1">  1        1 0.78278405E-01 0.80905678E+02</pdfrwt>
<pdfrwt beam="2">  1       -1 0.33576725E-02 0.80905678E+02</pdfrwt>
<totfact> 0.12774098E+04</totfact>
</mgrwt>
</event>
<event>
 4    1  0.4862093E-001  0.9909468E+02  0.7546771E-02  0.1282211E+00
          1   -1    0    0  501    0  0.00000000000E+00  0.00000000000E+00  0.51084548326E+02  0.51084548326E+02  0.00000000000E+00 0. -1.
         -1   -1    0    0    0  501 -0.00000000000E+00 -0.00000000000E+00 -0.33253161460E+03  0.33253161460E+03  0.00000000000E+00 0.  1.
         24    1    1    2    0    0 -0.23946641090E+02  0.52717146321E+02 -0.26531510412E+03  0.28321698319E+03  0.80419002446E+02 0.  1.
        -24    1    1    2    0    0  0.23946641090E+02 -0.52717146321E+02 -0.16131962154E+02  0.10039917974E+03  0.80419002446E+02 0. -1.
<mgrwt>
<rscale>  0 0.99094677E+02</rscale>
<asrwt>0</asrwt>
<pdfrwt beam="1">  1        1 0.78591613E-02 0.99094677E+02</pdfrwt>
<pdfrwt beam="2">  1       -1 0.51158710E-01 0.99094677E+02</pdfrwt>
<totfact> 0.33087436E+03</totfact>
</mgrwt>
</event>
<event>
 4    1  0.4862093E-001  0.9845331E+02  0.7546771E-02  0.1283582E+00
         -1   -1    0    0    0  501 -0.00000000000E+00  0.00000000000E+00  0.99649565178E+02  0.99649565178E+02  0.00000000000E+00 0.  1.
          1   -1    0    0  501    0  0.00000000000E+00 -0.00000000000E+00 -0.13845783191E+03  0.13845783191E+03  0.00000000000E+00 0. -1.
         24    1    1    2    0    0  0.51249849648E+02  0.24480413646E+02  0.45528222665E+02  0.10847060779E+03  0.80419002446E+02 0.  1.
        -24    1    1    2    0    0 -0.51249849648E+02 -0.24480413646E+02 -0.84336489396E+02  0.12963678930E+03  0.80419002446E+02 0. -1.
<mgrwt>
<rscale>  0 0.98453307E+02</rscale>
<asrwt>0</asrwt>
<pdfrwt beam="1">  1        1 0.21301205E-01 0.98453307E+02</pdfrwt>
<pdfrwt beam="2">  1       -1 0.15330702E-01 0.98453307E+02</pdfrwt>
<totfact> 0.67599615E+03</totfact>
</mgrwt>
</event>
<event>
 4    1  0.4862093E-001  0.8423940E+02  0.7546771E-02  0.1317434E+00
          4   -1    0    0  501    0  0.00000000000E+00  0.00000000000E+00  0.32613519793E+03  0.32613519793E+03  0.00000000000E+00 0. -1.
         -4   -1    0    0    0  501 -0.00000000000E+00 -0.00000000000E+00 -0.76041864606E+02  0.76041864606E+02  0.00000000000E+00 0.  1.
         24    1    1    2    0    0  0.11127376390E+02  0.22477594049E+02  0.29494672094E+03  0.30674068020E+03  0.80419002446E+02 0. -1.
        -24    1    1    2    0    0 -0.11127376390E+02 -0.22477594049E+02 -0.44853387615E+02  0.95436382341E+02  0.80419002446E+02 0.  1.
<mgrwt>
<rscale>  0 0.84239401E+02</rscale>
<asrwt>0</asrwt>
<pdfrwt beam="1">  1        4 0.50174645E-01 0.84239401E+02</pdfrwt>
<pdfrwt beam="2">  1       -4 0.11698749E-01 0.84239401E+02</pdfrwt>
<totfact> 0.33657148E+02</totfact>
</mgrwt>
</event>
<event>
 4    1  0.4862093E-001  0.8509177E+02  0.7546771E-02  0.1315193E+00
          1   -1    0    0  501    0  0.00000000000E+00  0.00000000000E+00  0.14596489160E+04  0.14596489160E+04  0.00000000000E+00 0. -1.
         -1   -1    0    0    0  501 -0.00000000000E+00 -0.00000000000E+00 -0.12929733257E+02  0.12929733257E+02  0.00000000000E+00 0.  1.
         24    1    1    2    0    0  0.25937291630E+02  0.10032426019E+02  0.14531463823E+03  0.16839522768E+03  0.80419002446E+02 0.  1.
        -24    1    1    2    0    0 -0.25937291630E+02 -0.10032426019E+02  0.13014045445E+04  0.13041834216E+04  0.80419002446E+02 0. -1.
<mgrwt>
<rscale>  0 0.85091766E+02</rscale>
<asrwt>0</asrwt>
<pdfrwt beam="1">  1        1 0.22456124E+00 0.85091766E+02</pdfrwt>
<pdfrwt beam="2">  1       -1 0.19891909E-02 0.85091766E+02</pdfrwt>
<totfact> 0.50818076E+03</totfact>
</mgrwt>
</event>
<event>
 4    1  0.4862093E-001  0.8572934E+02  0.7546771E-02  0.1313536E+00
          2   -1    0    0  501    0  0.00000000000E+00  0.00000000000E+00  0.28231348154E+04  0.28231348154E+04  0.00000000000E+00 0. -1.
         -2   -1    0    0    0  501 -0.00000000000E+00 -0.00000000000E+00 -0.30893881285E+01  0.30893881285E+01  0.00000000000E+00 0.  1.
         24    1    1    2    0    0  0.47604747230E+01  0.29319655884E+02  0.19705405430E+04  0.19724045103E+04  0.80419002446E+02 0. -1.
        -24    1    1    2    0    0 -0.47604747230E+01 -0.29319655884E+02  0.84950488424E+03  0.85381969328E+03  0.80419002446E+02 0.  1.
<mgrwt>
<rscale>  0 0.85729343E+02</rscale>
<asrwt>0</asrwt>
<pdfrwt beam="1">  1        2 0.43432637E+00 0.85729343E+02</pdfrwt>
<pdfrwt beam="2">  1       -2 0.47529274E-03 0.85729343E+02</pdfrwt>
<totfact> 0.16037884E+04</totfact>
</mgrwt>
</event>
<event>
 4    1  0.4862093E-001  0.1198461E+03  0.7546771E-02  0.1243351E+00
          2   -1    0    0  501    0  0.00000000000E+00  0.00000000000E+00  0.13894454046E+04  0.13894454046E+04  0.00000000000E+00 0. -1.
         -2   -1    0    0    0  501 -0.00000000000E+00 -0.00000000000E+00 -0.11973509317E+02  0.11973509317E+02  0.00000000000E+00 0.  1.
         24    1    1    2    0    0 -0.73684233024E+02  0.49663875280E+02  0.94776571356E+03  0.95531300130E+03  0.80419002446E+02 0. -1.
        -24    1    1    2    0    0  0.73684233024E+02 -0.49663875280E+02  0.42970618174E+03  0.44610591263E+03  0.80419002446E+02 0.  1.
<mgrwt>
<rscale>  0 0.11984608E+03</rscale>
<asrwt>0</asrwt>
<pdfrwt beam="1">  1        2 0.21376070E+00 0.11984608E+03</pdfrwt>
<pdfrwt beam="2">  1       -2 0.18420795E-02 0.11984608E+03</pdfrwt>
<totfact> 0.13149668E+04</totfact>
</mgrwt>
</event>
<event>
 4    1  0.4862093E-001  0.1106791E+03  0.7546771E-02  0.1259317E+00
          1   -1    0    0  501    0  0.00000000000E+00  0.00000000000E+00  0.17708614810E+04  0.17708614810E+04  0.00000000000E+00 0. -1.
         -1   -1    0    0    0  501 -0.00000000000E+00 -0.00000000000E+00 -0.91217439873E+01  0.91217439873E+01  0.00000000000E+00 0.  1.
         24    1    1    2    0    0  0.64930720144E+02 -0.39580982456E+02  0.44336744383E+03  0.45697325829E+03  0.80419002446E+02 0.  1.
        -24    1    1    2    0    0 -0.64930720144E+02  0.39580982456E+02  0.13183722932E+04  0.13230099667E+04  0.80419002446E+02 0. -1.
<mgrwt>
<rscale>  0 0.11067912E+03</rscale>
<asrwt>0</asrwt>
<pdfrwt beam="1">  1        1 0.27243996E+00 0.11067912E+03</pdfrwt>
<pdfrwt beam="2">  1       -1 0.14033466E-02 0.11067912E+03</pdfrwt>
<totfact> 0.53535130E+03</totfact>
</mgrwt>
</event>
<event>
 4    1  0.4862093E-001  0.8344397E+02  0.7546771E-02  0.1319553E+00
          2   -1    0    0  501    0  0.00000000000E+00  0.00000000000E+00  0.73960621025E+03  0.73960621025E+03  0.00000000000E+00 0. -1.
         -2   -1    0    0    0  501 -0.00000000000E+00 -0.00000000000E+00 -0.46996592153E+02  0.46996592153E+02  0.00000000000E+00 0.  1.
         24    1    1    2    0    0  0.43141071157E+01  0.21841911522E+02  0.69801404381E+03  0.70298399835E+03  0.80419002446E+02 0. -1.
        -24    1    1    2    0    0 -0.43141071157E+01 -0.21841911522E+02 -0.54044257204E+01  0.83618804051E+02  0.80419002446E+02 0.  1.
<mgrwt>
<rscale>  0 0.83443973E+02</rscale>
<asrwt>0</asrwt>
<pdfrwt beam="1">  1        2 0.11378556E+00 0.83443973E+02</pdfrwt>
<pdfrwt beam="2">  1       -2 0.72302455E-02 0.83443973E+02</pdfrwt>
<totfact> 0.41330328E+03</totfact>
</mgrwt>
</event>
<event>
 4    1  0.4862093E-001  0.1015121E+03  0.7546771E-02  0.1277148E+00
          2   -1    0    0  501    0  0.00000000000E+00  0.00000000000E+00  0.83267347818E+02  0.83267347818E+02  0.00000000000E+00 0. -1.
         -2   -1    0    0    0  501 -0.00000000000E+00 -0.00000000000E+00 -0.27011236491E+03  0.27011236491E+03  0.00000000000E+00 0.  1.
         24    1    1    2    0    0 -0.10939397358E+02  0.60973902417E+02  0.36638621158E+02  0.10792169247E+03  0.80419002446E+02 0. -1.
        -24    1    1    2    0    0  0.10939397358E+02 -0.60973902417E+02 -0.22348363825E+03  0.24545802026E+03  0.80419002446E+02 0.  1.
<mgrwt>
<rscale>  0 0.10151208E+03</rscale>
<asrwt>0</asrwt>
<pdfrwt beam="1">  1        2 0.12810361E-01 0.10151208E+03</pdfrwt>
<pdfrwt beam="2">  1       -2 0.41555749E-01 0.10151208E+03</pdfrwt>
<totfact> 0.24753855E+03</totfact>
</mgrwt>
</event>
<event>
 4    1  0.4862093E-001  0.8093490E+02  0.7546771E-02  0.1326419E+00
         -4   -1    0    0    0  501 -0.00000000000E+00  0.00000000000E+00  0.23522302376E+03  0.23522302376E+03  0.00000000000E+00 0.  1.
          4   -1    0    0  501    0  0.00000000000E+00 -0.00000000000E+00 -0.27947199391E+02  0.27947199391E+02  0.00000000000E+00 0. -1.
         24    1    1    2    0    0 -0.25376624253E+00 -0.91199976105E+01  0.11148353460E+03  0.13776441193E+03  0.80419002446E+02 0. -1.
        -24    1    1    2    0    0  0.25376624253E+00  0.91199976105E+01  0.95792289767E+02  0.12540581122E+03  0.80419002446E+02 0.  0.
<mgrwt>
<rscale>  0 0.80934890E+02</rscale>
<asrwt>0</asrwt>
<pdfrwt beam="1">  1        4 0.42995693E-02 0.80934900E+02</pdfrwt>
<pdfrwt beam="2">  1       -4 0.36188156E-01 0.80934900E+02</pdfrwt>
<totfact> 0.32281507E+03</totfact>
</mgrwt>
</event>
<event>
 4    1  0.4862093E-001  0.8365951E+02  0.7546771E-02  0.1318976E+00
         -2   -1    0    0    0  501 -0.00000000000E+00  0.00000000000E+00  0.10581904877E+03  0.10581904877E+03  0.00000000000E+00 0.  1.
          2   -1    0    0  501    0  0.00000000000E+00 -0.00000000000E+00 -0.67977726156E+02  0.67977726156E+02  0.00000000000E+00 0. -1.
         24    1    1    2    0    0  0.97278973354E+01 -0.20906112709E+02  0.46342766894E+01  0.83787767663E+02  0.80419002446E+02 0.  0.
        -24    1    1    2    0    0 -0.97278973354E+01  0.20906112709E+02  0.33207045927E+02  0.90009007264E+02  0.80419002446E+02 0.  0.
<mgrwt>
<rscale>  0 0.83659509E+02</rscale>
<asrwt>0</asrwt>
<pdfrwt beam="1">  1        2 0.10458112E-01 0.83659509E+02</pdfrwt>
<pdfrwt beam="2">  1       -2 0.16279854E-01 0.83659509E+02</pdfrwt>
<totfact> 0.15963434E+04</totfact>
</mgrwt>
</event>
<event>
 4    1  0.4862093E-001  0.8679361E+02  0.7546771E-02  0.1310808E+00
         -1   -1    0    0    0  501 -0.00000000000E+00  0.00000000000E+00  0.39995808310E+03  0.39995808310E+03  0.00000000000E+00 0.  1.
          1   -1    0    0  501    0  0.00000000000E+00 -0.00000000000E+00 -0.20414768200E+02  0.20414768200E+02  0.00000000000E+00 0. -1.
         24    1    1    2    0    0 -0.12698084264E+02  0.30077786540E+02  0.24824482198E+03  0.26298026956E+03  0.80419002446E+02 0.  1.
        -24    1    1    2    0    0  0.12698084264E+02 -0.30077786540E+02  0.13129849292E+03  0.15739258173E+03  0.80419002446E+02 0. -1.
<mgrwt>
<rscale>  0 0.86793609E+02</rscale>
<asrwt>0</asrwt>
<pdfrwt beam="1">  1        1 0.31407339E-02 0.86793609E+02</pdfrwt>
<pdfrwt beam="2">  1       -1 0.61532007E-01 0.86793609E+02</pdfrwt>
<totfact> 0.80237405E+03</totfact>
</mgrwt>
</event>
<event>
 4    1  0.4862093E-001  0.1117725E+03  0.7546771E-02  0.1257322E+00
         -2   -1    0    0    0  501 -0.00000000000E+00  0.00000000000E+00  0.25014866387E+03  0.25014866387E+03  0.00000000000E+00 0.  1.
          2   -1    0    0  501    0  0.00000000000E+00 -0.00000000000E+00 -0.93496634689E+02  0.93496634689E+02  0.00000000000E+00 0. -1.
         24    1    1    2    0    0  0.17132027874E+01 -0.77607580005E+02 -0.38946533611E+02  0.11836350777E+03  0.80419002446E+02 0.  0.
        -24    1    1    2    0    0 -0.17132027874E+01  0.77607580005E+02  0.19559856279E+03  0.22528179079E+03  0.80419002446E+02 0.  0.
<mgrwt>
<rscale>  0 0.11177248E+03</rscale>
<asrwt>0</asrwt>
<pdfrwt beam="1">  1        2 0.14384098E-01 0.11177248E+03</pdfrwt>
<pdfrwt beam="2">  1       -2 0.38484410E-01 0.11177248E+03</pdfrwt>
<totfact> 0.25102992E+03</totfact>
</mgrwt>
</event>
<event>
 4    1  0.4862093E-001  0.8141707E+02  0.7546771E-02  0.1325077E+00
          1   -1    0    0  501    0  0.00000000000E+00  0.00000000000E+00  0.15811316510E+02  0.15811316510E+02  0.00000000000E+00 0. -1.
         -1   -1    0    0    0  501 -0.00000000000E+00 -0.00000000000E+00 -0.59075589183E+03  0.59075589183E+03  0.00000000000E+00 0.  1.
         24    1    1    2    0    0 -0.11179246056E+02  0.60454745038E+01 -0.45088914351E+03  0.45818092387E+03  0.80419002446E+02 0.  1.
        -24    1    1    2    0    0  0.11179246056E+02 -0.60454745038E+01 -0.12405543181E+03  0.14838628447E+03  0.80419002446E+02 0.  0.
<mgrwt>
<rscale>  0 0.81417070E+02</rscale>
<asrwt>0</asrwt>
<pdfrwt beam="1">  1        1 0.24325109E-02 0.81417070E+02</pdfrwt>
<pdfrwt beam="2">  1       -1 0.90885497E-01 0.81417070E+02</pdfrwt>
<totfact> 0.52112130E+03</totfact>
</mgrwt>
</event>
<event>
 4    1  0.4862093E-001  0.1117789E+03  0.7546771E-02  0.1257311E+00
         -2   -1    0    0    0  501 -0.00000000000E+00  0.00000000000E+00  0.76678874740E+03  0.76678874740E+03  0.00000000000E+00 0.  1.
          2   -1    0    0  501    0  0.00000000000E+00 -0.00000000000E+00 -0.19761540314E+02  0.19761540314E+02  0.00000000000E+00 0. -1.
         24    1    1    2    0    0  0.65794250444E+02 -0.41211823263E+02  0.53823858394E+03  0.54972291835E+03  0.80419002446E+02 0. -1.
        -24    1    1    2    0    0 -0.65794250444E+02  0.41211823263E+02  0.20878862314E+03  0.23682736936E+03  0.80419002446E+02 0.  0.
<mgrwt>
<rscale>  0 0.11177887E+03</rscale>
<asrwt>0</asrwt>
<pdfrwt beam="1">  1        2 0.30402376E-02 0.11177889E+03</pdfrwt>
<pdfrwt beam="2">  1       -2 0.11796748E+00 0.11177889E+03</pdfrwt>
<totfact> 0.16883389E+03</totfact>
</mgrwt>
</event>
<event>
 4    1  0.4862093E-001  0.1008366E+03  0.7546771E-02  0.1278547E+00
         -2   -1    0    0    0  501 -0.00000000000E+00  0.00000000000E+00  0.32039432964E+03  0.32039432964E+03  0.00000000000E+00 0.  1.
          2   -1    0    0  501    0  0.00000000000E+00 -0.00000000000E+00 -0.64560259469E+02  0.64560259469E+02  0.00000000000E+00 0. -1.
         24    1    1    2    0    0 -0.59429458490E+02 -0.12997707226E+02 -0.93273871099E+01  0.10126705799E+03  0.80419002446E+02 0.  0.
        -24    1    1    2    0    0  0.59429458490E+02  0.12997707226E+02  0.26516145728E+03  0.28368753111E+03  0.80419002446E+02 0. -1.
<mgrwt>
<rscale>  0 0.10083659E+03</rscale>
<asrwt>0</asrwt>
<pdfrwt beam="1">  1        2 0.99323478E-02 0.10083659E+03</pdfrwt>
<pdfrwt beam="2">  1       -2 0.49291435E-01 0.10083659E+03</pdfrwt>
<totfact> 0.24165173E+03</totfact>
</mgrwt>
</event>
<event>
 4    1  0.4862093E-001  0.1496747E+03  0.7546771E-02  0.1200873E+00
          2   -1    0    0  501    0  0.00000000000E+00  0.00000000000E+00  0.85680815539E+03  0.85680815539E+03  0.00000000000E+00 0. -1.
         -2   -1    0    0    0  501 -0.00000000000E+00 -0.00000000000E+00 -0.84976423678E+02  0.84976423678E+02  0.00000000000E+00 0.  1.
         24    1    1    2    0    0 -0.63842453105E+02 -0.10890102513E+03  0.77772234254E+03  0.79199403416E+03  0.80419002446E+02 0. -1.
        -24    1    1    2    0    0  0.63842453105E+02  0.10890102513E+03 -0.58906108356E+01  0.14979054491E+03  0.80419002446E+02 0.  1.
<mgrwt>
<rscale>  0 0.14967467E+03</rscale>
<asrwt>0</asrwt>
<pdfrwt beam="1">  1        2 0.13181663E+00 0.14967467E+03</pdfrwt>
<pdfrwt beam="2">  1       -2 0.13073297E-01 0.14967467E+03</pdfrwt>
<totfact> 0.13909258E+03</totfact>
</mgrwt>
</event>
<event>
 4    1  0.4862093E-001  0.8312807E+02  0.7546771E-02  0.1320402E+00
         -2   -1    0    0    0  501 -0.00000000000E+00  0.00000000000E+00  0.93877506200E+03  0.93877506200E+03  0.00000000000E+00 0.  1.
          2   -1    0    0  501    0  0.00000000000E+00 -0.00000000000E+00 -0.87873447049E+01  0.87873447049E+01  0.00000000000E+00 0. -1.
         24    1    1    2    0    0  0.19587012489E+02  0.77077208353E+01  0.27411013166E+03  0.28643784710E+03  0.80419002446E+02 0. -1.
        -24    1    1    2    0    0 -0.19587012489E+02 -0.77077208353E+01  0.65587758563E+03  0.66112455960E+03  0.80419002446E+02 0.  1.
<mgrwt>
<rscale>  0 0.83128070E+02</rscale>
<asrwt>0</asrwt>
<pdfrwt beam="1">  1        2 0.13518999E-02 0.83128070E+02</pdfrwt>
<pdfrwt beam="2">  1       -2 0.14442685E+00 0.83128070E+02</pdfrwt>
<totfact> 0.29964963E+03</totfact>
</mgrwt>
</event>
<event>
 4    1  0.4862093E-001  0.8782161E+02  0.7546771E-02  0.1308214E+00
         -1   -1    0    0    0  501 -0.00000000000E+00  0.00000000000E+00  0.13790743555E+02  0.13790743555E+02  0.00000000000E+00 0.  1.
          1   -1    0    0  501    0  0.00000000000E+00 -0.00000000000E+00 -0.55949161975E+03  0.55949161975E+03  0.00000000000E+00 0. -1.
         24    1    1    2    0    0  0.35233031516E+02  0.20131986662E+01 -0.26704040384E+03  0.28111067699E+03  0.80419002446E+02 0.  1.
        -24    1    1    2    0    0 -0.35233031516E+02 -0.20131986662E+01 -0.27866047235E+03  0.29217168632E+03  0.80419002446E+02 0. -1.
<mgrwt>
<rscale>  0 0.87821611E+02</rscale>
<asrwt>0</asrwt>
<pdfrwt beam="1">  1        1 0.86075657E-01 0.87821611E+02</pdfrwt>
<pdfrwt beam="2">  1       -1 0.21216523E-02 0.87821611E+02</pdfrwt>
<totfact> 0.21979198E+04</totfact>
</mgrwt>
</event>
<event>
 4    1  0.4862093E-001  0.8454854E+02  0.7546771E-02  0.1316617E+00
         -2   -1    0    0    0  501 -0.00000000000E+00  0.00000000000E+00  0.24384266480E+03  0.24384266480E+03  0.00000000000E+00 0.  1.
          2   -1    0    0  501    0  0.00000000000E+00 -0.00000000000E+00 -0.38324022073E+02  0.38324022073E+02  0.00000000000E+00 0. -1.
         24    1    1    2    0    0  0.23952146686E+02 -0.10369880636E+02  0.34358948771E+02  0.91263317222E+02  0.80419002446E+02 0. -1.
        -24    1    1    2    0    0 -0.23952146686E+02  0.10369880636E+02  0.17115969396E+03  0.19090336966E+03  0.80419002446E+02 0.  0.
<mgrwt>
<rscale>  0 0.84548541E+02</rscale>
<asrwt>0</asrwt>
<pdfrwt beam="1">  1        2 0.58960036E-02 0.84548541E+02</pdfrwt>
<pdfrwt beam="2">  1       -2 0.37514255E-01 0.84548541E+02</pdfrwt>
<totfact> 0.76698666E+03</totfact>
</mgrwt>
</event>
<event>
 4    1  0.4862093E-001  0.8158973E+02  0.7546771E-02  0.1324600E+00
         -2   -1    0    0    0  501 -0.00000000000E+00  0.00000000000E+00  0.10767414466E+03  0.10767414466E+03  0.00000000000E+00 0.  1.
          2   -1    0    0  501    0  0.00000000000E+00 -0.00000000000E+00 -0.65230090443E+02  0.65230090443E+02  0.00000000000E+00 0. -1.
         24    1    1    2    0    0  0.10230401658E+02  0.92199087836E+01  0.14679135697E+01  0.81602932304E+02  0.80419002446E+02 0.  0.
        -24    1    1    2    0    0 -0.10230401658E+02 -0.92199087836E+01  0.40976140648E+02  0.91301302799E+02  0.80419002446E+02 0.  0.
<mgrwt>
<rscale>  0 0.81589728E+02</rscale>
<asrwt>0</asrwt>
<pdfrwt beam="1">  1        2 0.10035399E-01 0.81589728E+02</pdfrwt>
<pdfrwt beam="2">  1       -2 0.16565253E-01 0.81589728E+02</pdfrwt>
<totfact> 0.16262235E+04</totfact>
</mgrwt>
</event>
<event>
 4    1  0.4862093E-001  0.8967948E+02  0.7546771E-02  0.1303630E+00
         -2   -1    0    0    0  501 -0.00000000000E+00  0.00000000000E+00  0.29470384339E+02  0.29470384339E+02  0.00000000000E+00 0.  1.
          2   -1    0    0  501    0  0.00000000000E+00 -0.00000000000E+00 -0.32068756154E+03  0.32068756154E+03  0.00000000000E+00 0. -1.
         24    1    1    2    0    0 -0.27526104462E+02 -0.28592076375E+02 -0.21319500418E+03  0.23128882165E+03  0.80419002446E+02 0.  0.
        -24    1    1    2    0    0  0.27526104462E+02  0.28592076375E+02 -0.78022173029E+02  0.11886912424E+03  0.80419002446E+02 0.  0.
<mgrwt>
<rscale>  0 0.89679480E+02</rscale>
<asrwt>0</asrwt>
<pdfrwt beam="1">  1        2 0.49336548E-01 0.89679480E+02</pdfrwt>
<pdfrwt beam="2">  1       -2 0.45339053E-02 0.89679480E+02</pdfrwt>
<totfact> 0.20713989E+04</totfact>
</mgrwt>
</event>
<event>
 4    1  0.4862093E-001  0.8271778E+02  0.7546771E-02  0.1321511E+00
         -1   -1    0    0    0  501 -0.00000000000E+00  0.00000000000E+00  0.53848131474E+02  0.53848131474E+02  0.00000000000E+00 0.  1.
          1   -1    0    0  501    0  0.00000000000E+00 -0.00000000000E+00 -0.29245747590E+03  0.29245747590E+03  0.00000000000E+00 0. -1.
         24    1    1    2    0    0 -0.99288659395E+01  0.16626259299E+02  0.10908704005E+02  0.83433989804E+02  0.80419002446E+02 0.  1.
        -24    1    1    2    0    0  0.99288659395E+01 -0.16626259299E+02 -0.24951804843E+03  0.26287161757E+03  0.80419002446E+02 0. -1.
<mgrwt>
<rscale>  0 0.82717778E+02</rscale>
<asrwt>0</asrwt>
<pdfrwt beam="1">  1        1 0.44993458E-01 0.82717778E+02</pdfrwt>
<pdfrwt beam="2">  1       -1 0.82843279E-02 0.82717778E+02</pdfrwt>
<totfact> 0.67819880E+03</totfact>
</mgrwt>
</event>
<event>
 4    1  0.4862093E-001  0.1178304E+03  0.7546771E-02  0.1246720E+00
          1   -1    0    0  501    0  0.00000000000E+00  0.00000000000E+00  0.13015554849E+03  0.13015554849E+03  0.00000000000E+00 0. -1.
         -1   -1    0    0    0  501 -0.00000000000E+00 -0.00000000000E+00 -0.31155649833E+03  0.31155649833E+03  0.00000000000E+00 0.  1.
         24    1    1    2    0    0  0.48434406502E+02  0.71210216426E+02 -0.26980022711E+03  0.29440816082E+03  0.80419002446E+02 0.  1.
        -24    1    1    2    0    0 -0.48434406502E+02 -0.71210216426E+02  0.88399277267E+02  0.14730388601E+03  0.80419002446E+02 0. -1.
<mgrwt>
<rscale>  0 0.11783040E+03</rscale>
<asrwt>0</asrwt>
<pdfrwt beam="1">  1        1 0.20023931E-01 0.11783040E+03</pdfrwt>
<pdfrwt beam="2">  1       -1 0.47931769E-01 0.11783040E+03</pdfrwt>
<totfact> 0.11135060E+03</totfact>
</mgrwt>
</event>
<event>
 4    1  0.4862093E-001  0.1112092E+03  0.7546771E-02  0.1258347E+00
          2   -1    0    0  501    0  0.00000000000E+00  0.00000000000E+00  0.15015014663E+04  0.15015014663E+04  0.00000000000E+00 0. -1.
         -2   -1    0    0    0  501 -0.00000000000E+00 -0.00000000000E+00 -0.88671915317E+01  0.88671915317E+01  0.00000000000E+00 0.  1.
         24    1    1    2    0    0 -0.13822010952E+02  0.75559426602E+02  0.54495276469E+03  0.55618432793E+03  0.80419002446E+02 0.  0.
        -24    1    1    2    0    0  0.13822010952E+02 -0.75559426602E+02  0.94768151010E+03  0.95418432992E+03  0.80419002446E+02 0.  0.
<mgrwt>
<rscale>  0 0.11120924E+03</rscale>
<asrwt>0</asrwt>
<pdfrwt beam="1">  1        2 0.23100002E+00 0.11120925E+03</pdfrwt>
<pdfrwt beam="2">  1       -2 0.13641845E-02 0.11120925E+03</pdfrwt>
<totfact> 0.17626347E+04</totfact>
</mgrwt>
</event>
<event>
 4    1  0.4862093E-001  0.1677881E+03  0.7546771E-02  0.1180174E+00
         -1   -1    0    0    0  501 -0.00000000000E+00  0.00000000000E+00  0.26718736158E+02  0.26718736158E+02  0.00000000000E+00 0.  1.
          1   -1    0    0  501    0  0.00000000000E+00 -0.00000000000E+00 -0.12652730767E+04  0.12652730767E+04  0.00000000000E+00 0. -1.
         24    1    1    2    0    0 -0.14668913910E+03 -0.12958606957E+02 -0.35510063904E+03  0.39274585780E+03  0.80419002446E+02 0.  1.
        -24    1    1    2    0    0  0.14668913910E+03  0.12958606957E+02 -0.88345370147E+03  0.89924595502E+03  0.80419002446E+02 0. -1.
<mgrwt>
<rscale>  0 0.16778810E+03</rscale>
<asrwt>0</asrwt>
<pdfrwt beam="1">  1        1 0.19465743E+00 0.16778810E+03</pdfrwt>
<pdfrwt beam="2">  1       -1 0.41105742E-02 0.16778810E+03</pdfrwt>
<totfact> 0.24240244E+03</totfact>
</mgrwt>
</event>
<event>
 4    1  0.4862093E-001  0.9577532E+02  0.7546771E-02  0.1289439E+00
         -2   -1    0    0    0  501 -0.00000000000E+00  0.00000000000E+00  0.10759741519E+02  0.10759741519E+02  0.00000000000E+00 0.  1.
          2   -1    0    0  501    0  0.00000000000E+00 -0.00000000000E+00 -0.10371314165E+04  0.10371314165E+04  0.00000000000E+00 0. -1.
         24    1    1    2    0    0 -0.24051118289E+02  0.46122013603E+02 -0.73423895515E+03  0.74045915191E+03  0.80419002446E+02 0. -1.
        -24    1    1    2    0    0  0.24051118289E+02 -0.46122013603E+02 -0.29213271978E+03  0.30743200606E+03  0.80419002446E+02 0.  1.
<mgrwt>
<rscale>  0 0.95775322E+02</rscale>
<asrwt>0</asrwt>
<pdfrwt beam="1">  1        2 0.15955875E+00 0.95775322E+02</pdfrwt>
<pdfrwt beam="2">  1       -2 0.16553442E-02 0.95775322E+02</pdfrwt>
<totfact> 0.23532760E+04</totfact>
</mgrwt>
</event>
<event>
 4    1  0.4862093E-001  0.8202305E+02  0.7546771E-02  0.1323406E+00
          2   -1    0    0  501    0  0.00000000000E+00  0.00000000000E+00  0.31296864334E+04  0.31296864334E+04  0.00000000000E+00 0. -1.
         -2   -1    0    0    0  501 -0.00000000000E+00 -0.00000000000E+00 -0.59171746077E+01  0.59171746077E+01  0.00000000000E+00 0.  1.
         24    1    1    2    0    0 -0.75354830811E+01  0.14275178083E+02  0.28128955487E+04  0.28140911762E+04  0.80419002446E+02 0. -1.
        -24    1    1    2    0    0  0.75354830811E+01 -0.14275178083E+02  0.31087371008E+03  0.32151243178E+03  0.80419002446E+02 0.  1.
<mgrwt>
<rscale>  0 0.82023047E+02</rscale>
<asrwt>0</asrwt>
<pdfrwt beam="1">  1        2 0.48148890E+00 0.82023047E+02</pdfrwt>
<pdfrwt beam="2">  1       -2 0.91033706E-03 0.82023047E+02</pdfrwt>
<totfact> 0.43196094E+03</totfact>
</mgrwt>
</event>
<event>
 4    1  0.4862093E-001  0.1547545E+03  0.7546771E-02  0.1194750E+00
         -2   -1    0    0    0  501 -0.00000000000E+00  0.00000000000E+00  0.50634852609E+03  0.50634852609E+03  0.00000000000E+00 0.  1.
          2   -1    0    0  501    0  0.00000000000E+00 -0.00000000000E+00 -0.48068394579E+02  0.48068394579E+02  0.00000000000E+00 0. -1.
         24    1    1    2    0    0 -0.61050010252E+02  0.11728005998E+03  0.26424940793E+03  0.30622978589E+03  0.80419002446E+02 0.  1.
        -24    1    1    2    0    0  0.61050010252E+02 -0.11728005998E+03  0.19403072358E+03  0.24818713478E+03  0.80419002446E+02 0. -1.
<mgrwt>
<rscale>  0 0.15475444E+03</rscale>
<asrwt>0</asrwt>
<pdfrwt beam="1">  1        2 0.73951380E-02 0.15475446E+03</pdfrwt>
<pdfrwt beam="2">  1       -2 0.77899770E-01 0.15475446E+03</pdfrwt>
<totfact> 0.13863232E+03</totfact>
</mgrwt>
</event>
<event>
 4    1  0.4862093E-001  0.8340943E+02  0.7546771E-02  0.1319645E+00
         -3   -1    0    0    0  501 -0.00000000000E+00  0.00000000000E+00  0.43393445748E+02  0.43393445748E+02  0.00000000000E+00 0.  1.
          3   -1    0    0  501    0  0.00000000000E+00 -0.00000000000E+00 -0.16532791654E+03  0.16532791654E+03  0.00000000000E+00 0. -1.
         24    1    1    2    0    0 -0.15001052880E+02 -0.16275314897E+02 -0.42816418477E+02  0.93757021647E+02  0.80419002446E+02 0.  1.
        -24    1    1    2    0    0  0.15001052880E+02  0.16275314897E+02 -0.79118052312E+02  0.11496434064E+03  0.80419002446E+02 0. -1.
<mgrwt>
<rscale>  0 0.83409432E+02</rscale>
<asrwt>0</asrwt>
<pdfrwt beam="1">  1        3 0.25435064E-01 0.83409432E+02</pdfrwt>
<pdfrwt beam="2">  1       -3 0.66759147E-02 0.83409432E+02</pdfrwt>
<totfact> 0.42869556E+03</totfact>
</mgrwt>
</event>
<event>
 4    1  0.4862093E-001  0.8623717E+02  0.7546771E-02  0.1312229E+00
         -2   -1    0    0    0  501 -0.00000000000E+00  0.00000000000E+00  0.21103403741E+01  0.21103403741E+01  0.00000000000E+00 0.  1.
          2   -1    0    0  501    0  0.00000000000E+00 -0.00000000000E+00 -0.35276900472E+04  0.35276900472E+04  0.00000000000E+00 0. -1.
         24    1    1    2    0    0 -0.27207752496E+01 -0.31019800904E+02 -0.17057351238E+04  0.17079136861E+04  0.80419002446E+02 0.  1.
        -24    1    1    2    0    0  0.27207752496E+01  0.31019800904E+02 -0.18198445831E+04  0.18218867015E+04  0.80419002446E+02 0. -1.
<mgrwt>
<rscale>  0 0.86237164E+02</rscale>
<asrwt>0</asrwt>
<pdfrwt beam="1">  1        2 0.54271992E+00 0.86237175E+02</pdfrwt>
<pdfrwt beam="2">  1       -2 0.32466872E-03 0.86237175E+02</pdfrwt>
<totfact> 0.10461886E+04</totfact>
</mgrwt>
</event>
<event>
 4    1  0.4862093E-001  0.8282380E+02  0.7546771E-02  0.1321224E+00
          1   -1    0    0  501    0  0.00000000000E+00  0.00000000000E+00  0.31638356169E+02  0.31638356169E+02  0.00000000000E+00 0. -1.
         -1   -1    0    0    0  501 -0.00000000000E+00 -0.00000000000E+00 -0.22261678870E+03  0.22261678870E+03  0.00000000000E+00 0.  1.
         24    1    1    2    0    0  0.10155037421E+02 -0.17012969246E+02 -0.11600601546E+03  0.14253833690E+03  0.80419002446E+02 0.  0.
        -24    1    1    2    0    0 -0.10155037421E+02  0.17012969246E+02 -0.74972417062E+02  0.11171680797E+03  0.80419002446E+02 0.  1.
<mgrwt>
<rscale>  0 0.82823800E+02</rscale>
<asrwt>0</asrwt>
<pdfrwt beam="1">  1        1 0.48674396E-02 0.82823800E+02</pdfrwt>
<pdfrwt beam="2">  1       -1 0.34248735E-01 0.82823800E+02</pdfrwt>
<totfact> 0.12488282E+04</totfact>
</mgrwt>
</event>
<event>
 4    1  0.4862093E-001  0.8378435E+02  0.7546771E-02  0.1318643E+00
         -2   -1    0    0    0  501 -0.00000000000E+00  0.00000000000E+00  0.19528817202E+03  0.19528817202E+03  0.00000000000E+00 0.  1.
          2   -1    0    0  501    0  0.00000000000E+00 -0.00000000000E+00 -0.97227231643E+02  0.97227231643E+02  0.00000000000E+00 0. -1.
         24    1    1    2    0    0  0.23142232564E+02 -0.41277405706E+01 -0.67084639375E+02  0.10733203606E+03  0.80419002446E+02 0. -1.
        -24    1    1    2    0    0 -0.23142232564E+02  0.41277405706E+01  0.16514557975E+03  0.18518336760E+03  0.80419002446E+02 0.  1.
<mgrwt>
<rscale>  0 0.83784349E+02</rscale>
<asrwt>0</asrwt>
<pdfrwt beam="1">  1        2 0.14958036E-01 0.83784349E+02</pdfrwt>
<pdfrwt beam="2">  1       -2 0.30044334E-01 0.83784349E+02</pdfrwt>
<totfact> 0.36982025E+03</totfact>
</mgrwt>
</event>
<event>
 4    1  0.4862093E-001  0.8287088E+02  0.7546771E-02  0.1321096E+00
          2   -1    0    0  501    0  0.00000000000E+00  0.00000000000E+00  0.68987568217E+03  0.68987568217E+03  0.00000000000E+00 0. -1.
         -2   -1    0    0    0  501 -0.00000000000E+00 -0.00000000000E+00 -0.14849011138E+02  0.14849011138E+02  0.00000000000E+00 0.  1.
         24    1    1    2    0    0  0.80551859326E+01  0.18316135031E+02  0.53980665528E+03  0.54613076077E+03  0.80419002446E+02 0. -1.
        -24    1    1    2    0    0 -0.80551859326E+01 -0.18316135031E+02  0.13522001576E+03  0.15859393254E+03  0.80419002446E+02 0.  1.
<mgrwt>
<rscale>  0 0.82870880E+02</rscale>
<asrwt>0</asrwt>
<pdfrwt beam="1">  1        2 0.10613470E+00 0.82870880E+02</pdfrwt>
<pdfrwt beam="2">  1       -2 0.22844638E-02 0.82870880E+02</pdfrwt>
<totfact> 0.24385143E+04</totfact>
</mgrwt>
</event>
<event>
 4    1  0.4862093E-001  0.8499390E+02  0.7546771E-02  0.1315448E+00
          1   -1    0    0  501    0  0.00000000000E+00  0.00000000000E+00  0.12634636493E+04  0.12634636493E+04  0.00000000000E+00 0. -1.
         -1   -1    0    0    0  501 -0.00000000000E+00 -0.00000000000E+00 -0.95918022406E+01  0.95918022406E+01  0.00000000000E+00 0.  1.
         24    1    1    2    0    0 -0.25280527794E+02 -0.10846293117E+02  0.22239813150E+03  0.23808589209E+03  0.80419002446E+02 0.  1.
        -24    1    1    2    0    0  0.25280527794E+02  0.10846293117E+02  0.10314737155E+04  0.10349695594E+04  0.80419002446E+02 0. -1.
<mgrwt>
<rscale>  0 0.84993900E+02</rscale>
<asrwt>0</asrwt>
<pdfrwt beam="1">  1        1 0.19437889E+00 0.84993900E+02</pdfrwt>
<pdfrwt beam="2">  1       -1 0.14756629E-02 0.84993900E+02</pdfrwt>
<totfact> 0.10410896E+04</totfact>
</mgrwt>
</event>
<event>
 4    1  0.4862093E-001  0.8670484E+02  0.7546771E-02  0.1311033E+00
          1   -1    0    0  501    0  0.00000000000E+00  0.00000000000E+00  0.22829171252E+03  0.22829171252E+03  0.00000000000E+00 0. -1.
         -1   -1    0    0    0  501 -0.00000000000E+00 -0.00000000000E+00 -0.32953175563E+02  0.32953175563E+02  0.00000000000E+00 0.  1.
         24    1    1    2    0    0  0.13539958045E+02  0.29447967002E+02  0.94232524226E+02  0.12805271493E+03  0.80419002446E+02 0. -1.
        -24    1    1    2    0    0 -0.13539958045E+02 -0.29447967002E+02  0.10110601273E+03  0.13319217315E+03  0.80419002446E+02 0.  1.
<mgrwt>
<rscale>  0 0.86704839E+02</rscale>
<asrwt>0</asrwt>
<pdfrwt beam="1">  1        1 0.35121801E-01 0.86704839E+02</pdfrwt>
<pdfrwt beam="2">  1       -1 0.50697195E-02 0.86704839E+02</pdfrwt>
<totfact> 0.19008068E+04</totfact>
</mgrwt>
</event>
<event>
 4    1  0.4862093E-001  0.1027365E+03  0.7546771E-02  0.1274644E+00
          2   -1    0    0  501    0  0.00000000000E+00  0.00000000000E+00  0.63430153357E+03  0.63430153357E+03  0.00000000000E+00 0. -1.
         -2   -1    0    0    0  501 -0.00000000000E+00 -0.00000000000E+00 -0.21583382025E+02  0.21583382025E+02  0.00000000000E+00 0.  1.
         24    1    1    2    0    0 -0.55269233471E+02 -0.32138673566E+02  0.46330445544E+03  0.47455854949E+03  0.80419002446E+02 0. -1.
        -24    1    1    2    0    0  0.55269233471E+02  0.32138673566E+02  0.14941369610E+03  0.18132636610E+03  0.80419002446E+02 0.  1.
<mgrwt>
<rscale>  0 0.10273655E+03</rscale>
<asrwt>0</asrwt>
<pdfrwt beam="1">  1        2 0.97584837E-01 0.10273655E+03</pdfrwt>
<pdfrwt beam="2">  1       -2 0.33205208E-02 0.10273655E+03</pdfrwt>
<totfact> 0.15927167E+04</totfact>
</mgrwt>
</event>
<event>
 4    1  0.4862093E-001  0.8985863E+02  0.7546771E-02  0.1303194E+00
          2   -1    0    0  501    0  0.00000000000E+00  0.00000000000E+00  0.68738417801E+03  0.68738417801E+03  0.00000000000E+00 0. -1.
         -2   -1    0    0    0  501 -0.00000000000E+00 -0.00000000000E+00 -0.24210230598E+02  0.24210230598E+02  0.00000000000E+00 0.  1.
         24    1    1    2    0    0 -0.39884591911E+02  0.40715577403E+01  0.58686981274E+03  0.59370931550E+03  0.80419002446E+02 0. -1.
        -24    1    1    2    0    0  0.39884591911E+02 -0.40715577403E+01  0.76304134673E+02  0.11788509311E+03  0.80419002446E+02 0.  1.
<mgrwt>
<rscale>  0 0.89858635E+02</rscale>
<asrwt>0</asrwt>
<pdfrwt beam="1">  1        2 0.10575140E+00 0.89858635E+02</pdfrwt>
<pdfrwt beam="2">  1       -2 0.37246514E-02 0.89858635E+02</pdfrwt>
<totfact> 0.12138166E+04</totfact>
</mgrwt>
</event>
<event>
 4    1  0.4862093E-001  0.8624598E+02  0.7546771E-02  0.1312206E+00
          2   -1    0    0  501    0  0.00000000000E+00  0.00000000000E+00  0.46516554068E+02  0.46516554068E+02  0.00000000000E+00 0. -1.
         -2   -1    0    0    0  501 -0.00000000000E+00 -0.00000000000E+00 -0.16905384264E+03  0.16905384264E+03  0.00000000000E+00 0.  1.
         24    1    1    2    0    0 -0.22286027146E+02  0.21782686045E+02 -0.36198383573E+02  0.93534439352E+02  0.80419002446E+02 0.  0.
        -24    1    1    2    0    0  0.22286027146E+02 -0.21782686045E+02 -0.86338905002E+02  0.12203595736E+03  0.80419002446E+02 0. -1.
<mgrwt>
<rscale>  0 0.86245976E+02</rscale>
<asrwt>0</asrwt>
<pdfrwt beam="1">  1        2 0.71563930E-02 0.86245976E+02</pdfrwt>
<pdfrwt beam="2">  1       -2 0.26008283E-01 0.86245976E+02</pdfrwt>
<totfact> 0.11608926E+04</totfact>
</mgrwt>
</event>
<event>
 4    1  0.4862093E-001  0.8082801E+02  0.7546771E-02  0.1326718E+00
         -1   -1    0    0    0  501 -0.00000000000E+00  0.00000000000E+00  0.17362336890E+03  0.17362336890E+03  0.00000000000E+00 0.  1.
          1   -1    0    0  501    0  0.00000000000E+00 -0.00000000000E+00 -0.39832975565E+02  0.39832975565E+02  0.00000000000E+00 0. -1.
         24    1    1    2    0    0  0.69410606668E+01  0.42157913060E+01  0.92003742052E+02  0.12246573286E+03  0.80419002446E+02 0.  0.
        -24    1    1    2    0    0 -0.69410606668E+01 -0.42157913060E+01  0.41786651279E+02  0.90990611598E+02  0.80419002446E+02 0. -1.
<mgrwt>
<rscale>  0 0.80828010E+02</rscale>
<asrwt>0</asrwt>
<pdfrwt beam="1">  1        1 0.61281502E-02 0.80828010E+02</pdfrwt>
<pdfrwt beam="2">  1       -1 0.26711287E-01 0.80828010E+02</pdfrwt>
<totfact> 0.13811692E+04</totfact>
</mgrwt>
</event>
<event>
 4    1  0.4862093E-001  0.8187046E+02  0.7546771E-02  0.1323826E+00
         -1   -1    0    0    0  501 -0.00000000000E+00  0.00000000000E+00  0.18038001662E+03  0.18038001662E+03  0.00000000000E+00 0.  1.
          1   -1    0    0  501    0  0.00000000000E+00 -0.00000000000E+00 -0.31692804265E+03  0.31692804265E+03  0.00000000000E+00 0. -1.
         24    1    1    2    0    0 -0.15343622152E+02 -0.36004216329E+00  0.16534859145E+03  0.18450726007E+03  0.80419002446E+02 0.  1.
        -24    1    1    2    0    0  0.15343622152E+02  0.36004216329E+00 -0.30189661748E+03  0.31280079919E+03  0.80419002446E+02 0. -1.
<mgrwt>
<rscale>  0 0.81870461E+02</rscale>
<asrwt>0</asrwt>
<pdfrwt beam="1">  1        1 0.48758160E-01 0.81870461E+02</pdfrwt>
<pdfrwt beam="2">  1       -1 0.27750772E-01 0.81870461E+02</pdfrwt>
<totfact> 0.94005357E+02</totfact>
</mgrwt>
</event>
<event>
 4    1  0.4862093E-001  0.9706471E+02  0.7546771E-02  0.1286592E+00
          1   -1    0    0  501    0  0.00000000000E+00  0.00000000000E+00  0.60599633849E+03  0.60599633849E+03  0.00000000000E+00 0. -1.
         -1   -1    0    0    0  501 -0.00000000000E+00 -0.00000000000E+00 -0.25066380635E+02  0.25066380635E+02  0.00000000000E+00 0.  1.
         24    1    1    2    0    0 -0.54140203476E+02 -0.48146011535E+01  0.96020302517E+02  0.13653371916E+03  0.80419002446E+02 0.  1.
        -24    1    1    2    0    0  0.54140203476E+02  0.48146011535E+01  0.48490965534E+03  0.49452899997E+03  0.80419002446E+02 0. -1.
<mgrwt>
<rscale>  0 0.97064710E+02</rscale>
<asrwt>0</asrwt>
<pdfrwt beam="1">  1        1 0.93230195E-01 0.97064710E+02</pdfrwt>
<pdfrwt beam="2">  1       -1 0.38563667E-02 0.97064710E+02</pdfrwt>
<totfact> 0.84353958E+03</totfact>
</mgrwt>
</event>
<event>
 4    1  0.4862093E-001  0.8369413E+02  0.7546771E-02  0.1318883E+00
          2   -1    0    0  501    0  0.00000000000E+00  0.00000000000E+00  0.42523381272E+03  0.42523381272E+03  0.00000000000E+00 0. -1.
         -2   -1    0    0    0  501 -0.00000000000E+00 -0.00000000000E+00 -0.22144311025E+02  0.22144311025E+02  0.00000000000E+00 0.  1.
         24    1    1    2    0    0 -0.83352504855E+01 -0.21633658111E+02  0.31475105654E+03  0.32568840187E+03  0.80419002446E+02 0.  0.
        -24    1    1    2    0    0  0.83352504855E+01  0.21633658111E+02  0.88338445155E+02  0.12168972188E+03  0.80419002446E+02 0.  1.
<mgrwt>
<rscale>  0 0.83694131E+02</rscale>
<asrwt>0</asrwt>
<pdfrwt beam="1">  1        2 0.65420580E-01 0.83694131E+02</pdfrwt>
<pdfrwt beam="2">  1       -2 0.34068174E-02 0.83694131E+02</pdfrwt>
<totfact> 0.23267509E+04</totfact>
</mgrwt>
</event>
<event>
 4    1  0.4862093E-001  0.8123744E+02  0.7546771E-02  0.1325576E+00
         -1   -1    0    0    0  501 -0.00000000000E+00  0.00000000000E+00  0.17810521168E+03  0.17810521168E+03  0.00000000000E+00 0.  1.
          1   -1    0    0  501    0  0.00000000000E+00 -0.00000000000E+00 -0.56398431456E+02  0.56398431456E+02  0.00000000000E+00 0. -1.
         24    1    1    2    0    0 -0.50758008400E+01  0.10321924047E+02  0.12952280672E+03  0.15289107000E+03  0.80419002446E+02 0.  1.
        -24    1    1    2    0    0  0.50758008400E+01 -0.10321924047E+02 -0.78160264927E+01  0.81612573141E+02  0.80419002446E+02 0.  0.
<mgrwt>
<rscale>  0 0.81237441E+02</rscale>
<asrwt>0</asrwt>
<pdfrwt beam="1">  1        1 0.86766819E-02 0.81237441E+02</pdfrwt>
<pdfrwt beam="2">  1       -1 0.27400802E-01 0.81237441E+02</pdfrwt>
<totfact> 0.83596485E+03</totfact>
</mgrwt>
</event>
<event>
 4    1  0.4862093E-001  0.9693909E+02  0.7546771E-02  0.1286868E+00
          2   -1    0    0  501    0  0.00000000000E+00  0.00000000000E+00  0.18530053207E+04  0.18530053207E+04  0.00000000000E+00 0. -1.
         -2   -1    0    0    0  501 -0.00000000000E+00 -0.00000000000E+00 -0.70253083898E+01  0.70253083898E+01  0.00000000000E+00 0.  1.
         24    1    1    2    0    0  0.53913345562E+02 -0.48292565734E+01  0.14134664784E+04  0.14167867419E+04  0.80419002446E+02 0. -1.
        -24    1    1    2    0    0 -0.53913345562E+02  0.48292565734E+01  0.43251353391E+03  0.44324388717E+03  0.80419002446E+02 0.  1.
<mgrwt>
<rscale>  0 0.96939087E+02</rscale>
<asrwt>0</asrwt>
<pdfrwt beam="1">  1        2 0.28507735E+00 0.96939087E+02</pdfrwt>
<pdfrwt beam="2">  1       -2 0.10808182E-02 0.96939087E+02</pdfrwt>
<totfact> 0.16160217E+04</totfact>
</mgrwt>
</event>
<event>
 4    1  0.4862093E-001  0.9114185E+02  0.7546771E-02  0.1300110E+00
         -2   -1    0    0    0  501 -0.00000000000E+00  0.00000000000E+00  0.81223659106E+02  0.81223659106E+02  0.00000000000E+00 0.  1.
          2   -1    0    0  501    0  0.00000000000E+00 -0.00000000000E+00 -0.13566526490E+03  0.13566526490E+03  0.00000000000E+00 0. -1.
         24    1    1    2    0    0  0.26952821468E+02 -0.33364158754E+02 -0.81023985377E+02  0.12194967747E+03  0.80419002446E+02 0. -1.
        -24    1    1    2    0    0 -0.26952821468E+02  0.33364158754E+02  0.26582379582E+02  0.94939246537E+02  0.80419002446E+02 0.  1.
<mgrwt>
<rscale>  0 0.91141854E+02</rscale>
<asrwt>0</asrwt>
<pdfrwt beam="1">  1        2 0.20871579E-01 0.91141854E+02</pdfrwt>
<pdfrwt beam="2">  1       -2 0.12495948E-01 0.91141854E+02</pdfrwt>
<totfact> 0.11078290E+04</totfact>
</mgrwt>
</event>
<event>
 4    1  0.4862093E-001  0.9500632E+02  0.7546771E-02  0.1291162E+00
          2   -1    0    0  501    0  0.00000000000E+00  0.00000000000E+00  0.12720227004E+03  0.12720227004E+03  0.00000000000E+00 0. -1.
         -2   -1    0    0    0  501 -0.00000000000E+00 -0.00000000000E+00 -0.71289990327E+02  0.71289990327E+02  0.00000000000E+00 0.  1.
         24    1    1    2    0    0 -0.40259624372E+02 -0.30629188226E+02  0.34714248450E+02  0.10114978757E+03  0.80419002446E+02 0. -1.
        -24    1    1    2    0    0  0.40259624372E+02  0.30629188226E+02  0.21198031261E+02  0.97342472794E+02  0.80419002446E+02 0.  1.
<mgrwt>
<rscale>  0 0.95006318E+02</rscale>
<asrwt>0</asrwt>
<pdfrwt beam="1">  1        2 0.19569580E-01 0.95006318E+02</pdfrwt>
<pdfrwt beam="2">  1       -2 0.10967691E-01 0.95006318E+02</pdfrwt>
<totfact> 0.14683378E+04</totfact>
</mgrwt>
</event>
<event>
 4    1  0.4862093E-001  0.8692889E+02  0.7546771E-02  0.1310464E+00
          2   -1    0    0  501    0  0.00000000000E+00  0.00000000000E+00  0.11929872401E+03  0.11929872401E+03  0.00000000000E+00 0. -1.
         -2   -1    0    0    0  501 -0.00000000000E+00 -0.00000000000E+00 -0.11758727942E+03  0.11758727942E+03  0.00000000000E+00 0.  1.
         24    1    1    2    0    0  0.26583394566E+02 -0.19563736642E+02  0.81302708488E+02  0.11902421191E+03  0.80419002446E+02 0. -1.
        -24    1    1    2    0    0 -0.26583394566E+02  0.19563736642E+02 -0.79591263896E+02  0.11786179152E+03  0.80419002446E+02 0.  1.
<mgrwt>
<rscale>  0 0.86928894E+02</rscale>
<asrwt>0</asrwt>
<pdfrwt beam="1">  1        2 0.18353650E-01 0.86928894E+02</pdfrwt>
<pdfrwt beam="2">  1       -2 0.18090351E-01 0.86928894E+02</pdfrwt>
<totfact> 0.69995293E+03</totfact>
</mgrwt>
</event>
<event>
 4    1  0.4862093E-001  0.8270046E+02  0.7546771E-02  0.1321558E+00
         -2   -1    0    0    0  501 -0.00000000000E+00  0.00000000000E+00  0.53587528153E+01  0.53587528153E+01  0.00000000000E+00 0.  1.
          2   -1    0    0  501    0  0.00000000000E+00 -0.00000000000E+00 -0.12955241801E+04  0.12955241801E+04  0.00000000000E+00 0. -1.
         24    1    1    2    0    0 -0.15420341277E+02 -0.11591362724E+02 -0.56584386809E+03  0.57185544119E+03  0.80419002446E+02 0.  0.
        -24    1    1    2    0    0  0.15420341277E+02  0.11591362724E+02 -0.72432155916E+03  0.72902749168E+03  0.80419002446E+02 0.  0.
<mgrwt>
<rscale>  0 0.82700449E+02</rscale>
<asrwt>0</asrwt>
<pdfrwt beam="1">  1        2 0.19931137E+00 0.82700459E+02</pdfrwt>
<pdfrwt beam="2">  1       -2 0.82442367E-03 0.82700459E+02</pdfrwt>
<totfact> 0.44997856E+04</totfact>
</mgrwt>
</event>
<event>
 4    1  0.4862093E-001  0.8073543E+02  0.7546771E-02  0.1326977E+00
         -2   -1    0    0    0  501 -0.00000000000E+00  0.00000000000E+00  0.18369406075E+02  0.18369406075E+02  0.00000000000E+00 0.  1.
          2   -1    0    0  501    0  0.00000000000E+00 -0.00000000000E+00 -0.67683910872E+03  0.67683910872E+03  0.00000000000E+00 0. -1.
         24    1    1    2    0    0 -0.20884932508E+01 -0.68287800845E+01 -0.56899076843E+03  0.57469009436E+03  0.80419002446E+02 0.  0.
        -24    1    1    2    0    0  0.20884932508E+01  0.68287800845E+01 -0.89478934211E+02  0.12051842043E+03  0.80419002446E+02 0.  1.
<mgrwt>
<rscale>  0 0.80735432E+02</rscale>
<asrwt>0</asrwt>
<pdfrwt beam="1">  1        2 0.10412908E+00 0.80735432E+02</pdfrwt>
<pdfrwt beam="2">  1       -2 0.28260629E-02 0.80735432E+02</pdfrwt>
<totfact> 0.18294884E+04</totfact>
</mgrwt>
</event>
<event>
 4    1  0.4862093E-001  0.8302083E+02  0.7546771E-02  0.1320691E+00
          1   -1    0    0  501    0  0.00000000000E+00  0.00000000000E+00  0.24696571823E+04  0.24696571823E+04  0.00000000000E+00 0. -1.
         -1   -1    0    0    0  501 -0.00000000000E+00 -0.00000000000E+00 -0.46411927914E+01  0.46411927914E+01  0.00000000000E+00 0.  1.
         24    1    1    2    0    0  0.16160443500E+02  0.12809458626E+02  0.45136123510E+03  0.45893291740E+03  0.80419002446E+02 0.  1.
        -24    1    1    2    0    0 -0.16160443500E+02 -0.12809458626E+02  0.20136547544E+04  0.20153654576E+04  0.80419002446E+02 0.  1.
<mgrwt>
<rscale>  0 0.83020829E+02</rscale>
<asrwt>0</asrwt>
<pdfrwt beam="1">  1        1 0.37994621E+00 0.83020829E+02</pdfrwt>
<pdfrwt beam="2">  1       -1 0.71403163E-03 0.83020829E+02</pdfrwt>
<totfact> 0.49873830E+03</totfact>
</mgrwt>
</event>
<event>
 4    1  0.4862093E-001  0.8304009E+02  0.7546771E-02  0.1320639E+00
         -2   -1    0    0    0  501 -0.00000000000E+00  0.00000000000E+00  0.53339680540E+01  0.53339680540E+01  0.00000000000E+00 0.  1.
          2   -1    0    0  501    0  0.00000000000E+00 -0.00000000000E+00 -0.15446663267E+04  0.15446663267E+04  0.00000000000E+00 0. -1.
         24    1    1    2    0    0 -0.13544036227E+02  0.15652484985E+02 -0.10826235152E+04  0.10858035424E+04  0.80419002446E+02 0. -1.
        -24    1    1    2    0    0  0.13544036227E+02 -0.15652484985E+02 -0.45670884350E+03  0.46419675235E+03  0.80419002446E+02 0.  1.
<mgrwt>
<rscale>  0 0.83040094E+02</rscale>
<asrwt>0</asrwt>
<pdfrwt beam="1">  1        2 0.23764097E+00 0.83040094E+02</pdfrwt>
<pdfrwt beam="2">  1       -2 0.82061048E-03 0.83040094E+02</pdfrwt>
<totfact> 0.33717872E+04</totfact>
</mgrwt>
</event>
<event>
 4    1  0.4862093E-001  0.9630064E+02  0.7546771E-02  0.1288273E+00
         -1   -1    0    0    0  501 -0.00000000000E+00  0.00000000000E+00  0.48409658441E+02  0.48409658441E+02  0.00000000000E+00 0.  1.
          1   -1    0    0  501    0  0.00000000000E+00 -0.00000000000E+00 -0.19254703942E+03  0.19254703942E+03  0.00000000000E+00 0. -1.
         24    1    1    2    0    0 -0.11411353120E+02  0.51733716358E+02 -0.63484178385E+02  0.11534319767E+03  0.80419002446E+02 0.  0.
        -24    1    1    2    0    0  0.11411353120E+02 -0.51733716358E+02 -0.80653202595E+02  0.12561350020E+03  0.80419002446E+02 0. -1.
<mgrwt>
<rscale>  0 0.96300635E+02</rscale>
<asrwt>0</asrwt>
<pdfrwt beam="1">  1        1 0.29622622E-01 0.96300635E+02</pdfrwt>
<pdfrwt beam="2">  1       -1 0.74476396E-02 0.96300635E+02</pdfrwt>
<totfact> 0.13421454E+04</totfact>
</mgrwt>
</event>
<event>
 4    1  0.4862093E-001  0.1119435E+03  0.7546771E-02  0.1257013E+00
         -1   -1    0    0    0  501 -0.00000000000E+00  0.00000000000E+00  0.22414900242E+02  0.22414900242E+02  0.00000000000E+00 0.  1.
          1   -1    0    0  501    0  0.00000000000E+00 -0.00000000000E+00 -0.56250410921E+03  0.56250410921E+03  0.00000000000E+00 0. -1.
         24    1    1    2    0    0  0.21469335226E+02 -0.74854467641E+02 -0.24716981986E+03  0.27133790646E+03  0.80419002446E+02 0.  0.
        -24    1    1    2    0    0 -0.21469335226E+02  0.74854467641E+02 -0.29291938911E+03  0.31358110299E+03  0.80419002446E+02 0.  0.
<mgrwt>
<rscale>  0 0.11194347E+03</rscale>
<asrwt>0</asrwt>
<pdfrwt beam="1">  1        1 0.86539094E-01 0.11194347E+03</pdfrwt>
<pdfrwt beam="2">  1       -1 0.34484462E-02 0.11194347E+03</pdfrwt>
<totfact> 0.11080592E+04</totfact>
</mgrwt>
</event>
<event>
 4    1  0.4862093E-001  0.1009926E+03  0.7546771E-02  0.1278222E+00
          2   -1    0    0  501    0  0.00000000000E+00  0.00000000000E+00  0.23950094559E+03  0.23950094559E+03  0.00000000000E+00 0. -1.
         -2   -1    0    0    0  501 -0.00000000000E+00 -0.00000000000E+00 -0.42594274823E+02  0.42594274823E+02  0.00000000000E+00 0.  1.
         24    1    1    2    0    0  0.46457576051E+02 -0.39673443845E+02  0.10036025358E+03  0.14237866754E+03  0.80419002446E+02 0. -1.
        -24    1    1    2    0    0 -0.46457576051E+02  0.39673443845E+02  0.96546417190E+02  0.13971655287E+03  0.80419002446E+02 0.  1.
<mgrwt>
<rscale>  0 0.10099260E+03</rscale>
<asrwt>0</asrwt>
<pdfrwt beam="1">  1        2 0.36846298E-01 0.10099260E+03</pdfrwt>
<pdfrwt beam="2">  1       -2 0.65529655E-02 0.10099260E+03</pdfrwt>
<totfact> 0.16420614E+04</totfact>
</mgrwt>
</event>
<event>
 4    1  0.4862093E-001  0.1316031E+03  0.7546771E-02  0.1225096E+00
          1   -1    0    0  501    0  0.00000000000E+00  0.00000000000E+00  0.54561226777E+02  0.54561226777E+02  0.00000000000E+00 0. -1.
         -1   -1    0    0    0  501 -0.00000000000E+00 -0.00000000000E+00 -0.98803117723E+03  0.98803117723E+03  0.00000000000E+00 0.  1.
         24    1    1    2    0    0  0.62693628177E+02  0.83196602009E+02 -0.89620348455E+03  0.90581458769E+03  0.80419002446E+02 0.  1.
        -24    1    1    2    0    0 -0.62693628177E+02 -0.83196602009E+02 -0.37266465898E+02  0.13677781631E+03  0.80419002446E+02 0. -1.
<mgrwt>
<rscale>  0 0.13160312E+03</rscale>
<asrwt>0</asrwt>
<pdfrwt beam="1">  1        1 0.83940346E-02 0.13160312E+03</pdfrwt>
<pdfrwt beam="2">  1       -1 0.15200480E+00 0.13160312E+03</pdfrwt>
<totfact> 0.29886129E+02</totfact>
</mgrwt>
</event>
<event>
 4    1  0.4862093E-001  0.1151924E+03  0.7546771E-02  0.1251246E+00
         -2   -1    0    0    0  501 -0.00000000000E+00  0.00000000000E+00  0.11639403824E+02  0.11639403824E+02  0.00000000000E+00 0.  1.
          2   -1    0    0  501    0  0.00000000000E+00 -0.00000000000E+00 -0.13393757123E+04  0.13393757123E+04  0.00000000000E+00 0. -1.
         24    1    1    2    0    0  0.81851460495E+02  0.10119660215E+02 -0.92447210767E+03  0.93162114774E+03  0.80419002446E+02 0. -1.
        -24    1    1    2    0    0 -0.81851460495E+02 -0.10119660215E+02 -0.40326420077E+03  0.41939396835E+03  0.80419002446E+02 0.  1.
<mgrwt>
<rscale>  0 0.11519238E+03</rscale>
<asrwt>0</asrwt>
<pdfrwt beam="1">  1        2 0.20605773E+00 0.11519238E+03</pdfrwt>
<pdfrwt beam="2">  1       -2 0.17906782E-02 0.11519238E+03</pdfrwt>
<totfact> 0.14524856E+04</totfact>
</mgrwt>
</event>
<event>
 4    1  0.4862093E-001  0.1033180E+03  0.7546771E-02  0.1273469E+00
         -2   -1    0    0    0  501 -0.00000000000E+00  0.00000000000E+00  0.43847969929E+03  0.43847969929E+03  0.00000000000E+00 0.  1.
          2   -1    0    0  501    0  0.00000000000E+00 -0.00000000000E+00 -0.41030624210E+02  0.41030624210E+02  0.00000000000E+00 0. -1.
         24    1    1    2    0    0 -0.92879114888E+01 -0.64195974877E+02  0.45830485988E+02  0.11302671317E+03  0.80419002446E+02 0. -1.
        -24    1    1    2    0    0  0.92879114888E+01  0.64195974877E+02  0.35161858909E+03  0.36648361033E+03  0.80419002446E+02 0.  1.
<mgrwt>
<rscale>  0 0.10331798E+03</rscale>
<asrwt>0</asrwt>
<pdfrwt beam="1">  1        2 0.63124040E-02 0.10331798E+03</pdfrwt>
<pdfrwt beam="2">  1       -2 0.67458412E-01 0.10331798E+03</pdfrwt>
<totfact> 0.22535971E+03</totfact>
</mgrwt>
</event>
<event>
 4    1  0.4862093E-001  0.1241774E+03  0.7546771E-02  0.1236360E+00
         -1   -1    0    0    0  501 -0.00000000000E+00  0.00000000000E+00  0.55313108960E+02  0.55313108960E+02  0.00000000000E+00 0.  1.
          1   -1    0    0  501    0  0.00000000000E+00 -0.00000000000E+00 -0.27741340006E+04  0.27741340006E+04  0.00000000000E+00 0. -1.
         24    1    1    2    0    0 -0.87578611486E+01  0.94213159799E+02 -0.17652456204E+02  0.12542585370E+03  0.80419002446E+02 0.  1.
        -24    1    1    2    0    0  0.87578611486E+01 -0.94213159799E+02 -0.27011684354E+04  0.27040212558E+04  0.80419002446E+02 0. -1.
<mgrwt>
<rscale>  0 0.12417744E+03</rscale>
<asrwt>0</asrwt>
<pdfrwt beam="1">  1        1 0.42678981E+00 0.12417744E+03</pdfrwt>
<pdfrwt beam="2">  1       -1 0.85097099E-02 0.12417744E+03</pdfrwt>
<totfact> 0.87069469E+01</totfact>
</mgrwt>
</event>
<event>
 4    1  0.4862093E-001  0.8744945E+02  0.7546771E-02  0.1309148E+00
         -1   -1    0    0    0  501 -0.00000000000E+00  0.00000000000E+00  0.61404811803E+02  0.61404811803E+02  0.00000000000E+00 0.  1.
          1   -1    0    0  501    0  0.00000000000E+00 -0.00000000000E+00 -0.13698904294E+03  0.13698904294E+03  0.00000000000E+00 0. -1.
         24    1    1    2    0    0 -0.51660290007E+01  0.33963262450E+02 -0.78895406168E+01  0.87804623212E+02  0.80419002446E+02 0.  1.
        -24    1    1    2    0    0  0.51660290007E+01 -0.33963262450E+02 -0.67694690522E+02  0.11058923153E+03  0.80419002446E+02 0. -1.
<mgrwt>
<rscale>  0 0.87449454E+02</rscale>
<asrwt>0</asrwt>
<pdfrwt beam="1">  1        1 0.21075237E-01 0.87449454E+02</pdfrwt>
<pdfrwt beam="2">  1       -1 0.94468941E-02 0.87449454E+02</pdfrwt>
<totfact> 0.14204738E+04</totfact>
</mgrwt>
</event>
<event>
 4    1  0.4862093E-001  0.8056709E+02  0.7546771E-02  0.1327450E+00
          2   -1    0    0  501    0  0.00000000000E+00  0.00000000000E+00  0.16499654337E+04  0.16499654337E+04  0.00000000000E+00 0. -1.
         -2   -1    0    0    0  501 -0.00000000000E+00 -0.00000000000E+00 -0.39535639978E+01  0.39535639978E+01  0.00000000000E+00 0.  1.
         24    1    1    2    0    0  0.16643311345E+00  0.48798609461E+01  0.88109498769E+03  0.88477083701E+03  0.80419002446E+02 0. -1.
        -24    1    1    2    0    0 -0.16643311345E+00 -0.48798609461E+01  0.76491688205E+03  0.76914816073E+03  0.80419002446E+02 0.  1.
<mgrwt>
<rscale>  0 0.80567094E+02</rscale>
<asrwt>0</asrwt>
<pdfrwt beam="1">  1        2 0.25384029E+00 0.80567094E+02</pdfrwt>
<pdfrwt beam="2">  1       -2 0.60824193E-03 0.80567094E+02</pdfrwt>
<totfact> 0.45312383E+04</totfact>
</mgrwt>
</event>
<event>
 4    1  0.4862093E-001  0.9070415E+02  0.7546771E-02  0.1301155E+00
          2   -1    0    0  501    0  0.00000000000E+00  0.00000000000E+00  0.20962176862E+04  0.20962176862E+04  0.00000000000E+00 0. -1.
         -2   -1    0    0    0  501 -0.00000000000E+00 -0.00000000000E+00 -0.41053621014E+01  0.41053621014E+01  0.00000000000E+00 0.  1.
         24    1    1    2    0    0  0.91059479520E+01 -0.40952514849E+02  0.12662926854E+04  0.12695370841E+04  0.80419002446E+02 0. -1.
        -24    1    1    2    0    0 -0.91059479520E+01  0.40952514849E+02  0.82581963873E+03  0.83078596427E+03  0.80419002446E+02 0.  1.
<mgrwt>
<rscale>  0 0.90704149E+02</rscale>
<asrwt>0</asrwt>
<pdfrwt beam="1">  1        2 0.32249417E+00 0.90704149E+02</pdfrwt>
<pdfrwt beam="2">  1       -2 0.63159584E-03 0.90704149E+02</pdfrwt>
<totfact> 0.25932018E+04</totfact>
</mgrwt>
</event>
<event>
 4    1  0.4862093E-001  0.1041784E+03  0.7546771E-02  0.1271747E+00
         -1   -1    0    0    0  501 -0.00000000000E+00  0.00000000000E+00  0.22995231004E+02  0.22995231004E+02  0.00000000000E+00 0.  1.
          1   -1    0    0  501    0  0.00000000000E+00 -0.00000000000E+00 -0.10775569567E+04  0.10775569567E+04  0.00000000000E+00 0. -1.
         24    1    1    2    0    0 -0.59234605500E+02  0.29617222333E+02 -0.11475838937E+03  0.15499232959E+03  0.80419002446E+02 0.  1.
        -24    1    1    2    0    0  0.59234605500E+02 -0.29617222333E+02 -0.93980333635E+03  0.94555985813E+03  0.80419002446E+02 0. -1.
<mgrwt>
<rscale>  0 0.10417838E+03</rscale>
<asrwt>0</asrwt>
<pdfrwt beam="1">  1        1 0.16577797E+00 0.10417838E+03</pdfrwt>
<pdfrwt beam="2">  1       -1 0.35377283E-02 0.10417838E+03</pdfrwt>
<totfact> 0.40210006E+03</totfact>
</mgrwt>
</event>
<event>
 4    1  0.4862093E-001  0.8062712E+02  0.7546771E-02  0.1327281E+00
          2   -1    0    0  501    0  0.00000000000E+00  0.00000000000E+00  0.12314943801E+04  0.12314943801E+04  0.00000000000E+00 0. -1.
         -2   -1    0    0    0  501 -0.00000000000E+00 -0.00000000000E+00 -0.93352172002E+01  0.93352172002E+01  0.00000000000E+00 0.  1.
         24    1    1    2    0    0 -0.51542716450E+01 -0.26364166201E+01  0.10200526337E+04  0.10232341417E+04  0.80419002446E+02 0.  0.
        -24    1    1    2    0    0  0.51542716450E+01  0.26364166201E+01  0.20210652913E+03  0.21759545556E+03  0.80419002446E+02 0.  1.
<mgrwt>
<rscale>  0 0.80627124E+02</rscale>
<asrwt>0</asrwt>
<pdfrwt beam="1">  1        2 0.18946054E+00 0.80627124E+02</pdfrwt>
<pdfrwt beam="2">  1       -2 0.14361882E-02 0.80627124E+02</pdfrwt>
<totfact> 0.22151721E+04</totfact>
</mgrwt>
</event>
<event>
 4    1  0.4862093E-001  0.2469071E+03  0.7546771E-02  0.1115275E+00
         -1   -1    0    0    0  501 -0.00000000000E+00  0.00000000000E+00  0.39654422221E+02  0.39654422221E+02  0.00000000000E+00 0.  1.
          1   -1    0    0  501    0  0.00000000000E+00 -0.00000000000E+00 -0.15438133427E+04  0.15438133427E+04  0.00000000000E+00 0. -1.
         24    1    1    2    0    0  0.57607547084E+02  0.22622389028E+03 -0.70088789031E+03  0.74310627016E+03  0.80419002446E+02 0.  0.
        -24    1    1    2    0    0 -0.57607547084E+02 -0.22622389028E+03 -0.80327103020E+03  0.84036149479E+03  0.80419002446E+02 0. -1.
<mgrwt>
<rscale>  0 0.24690706E+03</rscale>
<asrwt>0</asrwt>
<pdfrwt beam="1">  1        1 0.23750974E+00 0.24690706E+03</pdfrwt>
<pdfrwt beam="2">  1       -1 0.61006804E-02 0.24690706E+03</pdfrwt>
<totfact> 0.87428116E+02</totfact>
</mgrwt>
</event>
<event>
 4    1  0.4862093E-001  0.8266083E+02  0.7546771E-02  0.1321666E+00
         -1   -1    0    0    0  501 -0.00000000000E+00  0.00000000000E+00  0.81241046732E+02  0.81241046732E+02  0.00000000000E+00 0.  1.
          1   -1    0    0  501    0  0.00000000000E+00 -0.00000000000E+00 -0.85771834410E+02  0.85771834410E+02  0.00000000000E+00 0. -1.
         24    1    1    2    0    0 -0.14619596771E+02  0.12323158518E+02 -0.13905175507E+02  0.83822208906E+02  0.80419002446E+02 0.  0.
        -24    1    1    2    0    0  0.14619596771E+02 -0.12323158518E+02  0.93743878300E+01  0.83190672236E+02  0.80419002446E+02 0.  0.
<mgrwt>
<rscale>  0 0.82660816E+02</rscale>
<asrwt>0</asrwt>
<pdfrwt beam="1">  1        1 0.13195667E-01 0.82660826E+02</pdfrwt>
<pdfrwt beam="2">  1       -1 0.12498623E-01 0.82660826E+02</pdfrwt>
<totfact> 0.16724971E+04</totfact>
</mgrwt>
</event>
<event>
 4    1  0.4862093E-001  0.9338627E+02  0.7546771E-02  0.1294853E+00
          2   -1    0    0  501    0  0.00000000000E+00  0.00000000000E+00  0.55101391433E+03  0.55101391433E+03  0.00000000000E+00 0. -1.
         -2   -1    0    0    0  501 -0.00000000000E+00 -0.00000000000E+00 -0.15862038467E+02  0.15862038467E+02  0.00000000000E+00 0.  1.
         24    1    1    2    0    0 -0.37607632816E+02  0.28973186475E+02  0.28086341459E+03  0.29598184605E+03  0.80419002446E+02 0.  0.
        -24    1    1    2    0    0  0.37607632816E+02 -0.28973186475E+02  0.25428846126E+03  0.27089410674E+03  0.80419002446E+02 0.  1.
<mgrwt>
<rscale>  0 0.93386271E+02</rscale>
<asrwt>0</asrwt>
<pdfrwt beam="1">  1        2 0.84771357E-01 0.93386271E+02</pdfrwt>
<pdfrwt beam="2">  1       -2 0.24403140E-02 0.93386271E+02</pdfrwt>
<totfact> 0.28917277E+04</totfact>
</mgrwt>
</event>
<event>
 4    1  0.4862093E-001  0.8317269E+02  0.7546771E-02  0.1320281E+00
          1   -1    0    0  501    0  0.00000000000E+00  0.00000000000E+00  0.10230397565E+03  0.10230397565E+03  0.00000000000E+00 0. -1.
         -1   -1    0    0    0  501 -0.00000000000E+00 -0.00000000000E+00 -0.85004012669E+02  0.85004012669E+02  0.00000000000E+00 0.  1.
         24    1    1    2    0    0 -0.17528184691E+02 -0.11968447842E+02 -0.33703932999E+02  0.89742142031E+02  0.80419002446E+02 0.  1.
        -24    1    1    2    0    0  0.17528184691E+02  0.11968447842E+02  0.51003895981E+02  0.97565846288E+02  0.80419002446E+02 0. -1.
<mgrwt>
<rscale>  0 0.83172694E+02</rscale>
<asrwt>0</asrwt>
<pdfrwt beam="1">  1        1 0.15739073E-01 0.83172694E+02</pdfrwt>
<pdfrwt beam="2">  1       -1 0.13077540E-01 0.83172694E+02</pdfrwt>
<totfact> 0.12467201E+04</totfact>
</mgrwt>
</event>
<event>
 4    1  0.4862093E-001  0.8624061E+02  0.7546771E-02  0.1312220E+00
          4   -1    0    0  501    0  0.00000000000E+00  0.00000000000E+00  0.98545619417E+02  0.98545619417E+02  0.00000000000E+00 0. -1.
         -4   -1    0    0    0  501 -0.00000000000E+00 -0.00000000000E+00 -0.10955017877E+03  0.10955017877E+03  0.00000000000E+00 0.  1.
         24    1    1    2    0    0 -0.10859548371E+02  0.29194120071E+02  0.52529311660E+02  0.10097906206E+03  0.80419002446E+02 0.  1.
        -24    1    1    2    0    0  0.10859548371E+02 -0.29194120071E+02 -0.63533871014E+02  0.10711673612E+03  0.80419002446E+02 0. -1.
<mgrwt>
<rscale>  0 0.86240608E+02</rscale>
<asrwt>0</asrwt>
<pdfrwt beam="1">  1        4 0.15160864E-01 0.86240608E+02</pdfrwt>
<pdfrwt beam="2">  1       -4 0.16853874E-01 0.86240608E+02</pdfrwt>
<totfact> 0.16706543E+03</totfact>
</mgrwt>
</event>
<event>
 4    1  0.4862093E-001  0.9034685E+02  0.7546771E-02  0.1302014E+00
          2   -1    0    0  501    0  0.00000000000E+00  0.00000000000E+00  0.18045893624E+03  0.18045893624E+03  0.00000000000E+00 0. -1.
         -2   -1    0    0    0  501 -0.00000000000E+00 -0.00000000000E+00 -0.69291698075E+02  0.69291698075E+02  0.00000000000E+00 0.  1.
         24    1    1    2    0    0  0.20504476362E+02  0.35705792783E+02  0.12916693609E+03  0.15762820345E+03  0.80419002446E+02 0.  0.
        -24    1    1    2    0    0 -0.20504476362E+02 -0.35705792783E+02 -0.17999697925E+02  0.92122430867E+02  0.80419002446E+02 0.  0.
<mgrwt>
<rscale>  0 0.90346849E+02</rscale>
<asrwt>0</asrwt>
<pdfrwt beam="1">  1        2 0.27762913E-01 0.90346849E+02</pdfrwt>
<pdfrwt beam="2">  1       -2 0.10660261E-01 0.90346849E+02</pdfrwt>
<totfact> 0.10405042E+04</totfact>
</mgrwt>
</event>
<event>
 4    1  0.4862093E-001  0.9558243E+02  0.7546771E-02  0.1289870E+00
          2   -1    0    0  501    0  0.00000000000E+00  0.00000000000E+00  0.78741112352E+01  0.78741112352E+01  0.00000000000E+00 0. -1.
         -2   -1    0    0    0  501 -0.00000000000E+00 -0.00000000000E+00 -0.12161658688E+04  0.12161658688E+04  0.00000000000E+00 0.  1.
         24    1    1    2    0    0 -0.38235742352E+02  0.34739216781E+02 -0.47292426147E+03  0.48248664046E+03  0.80419002446E+02 0. -1.
        -24    1    1    2    0    0  0.38235742352E+02 -0.34739216781E+02 -0.73536749606E+03  0.74155333955E+03  0.80419002446E+02 0.  1.
<mgrwt>
<rscale>  0 0.95582431E+02</rscale>
<asrwt>0</asrwt>
<pdfrwt beam="1">  1        2 0.12114011E-02 0.95582431E+02</pdfrwt>
<pdfrwt beam="2">  1       -2 0.18710253E+00 0.95582431E+02</pdfrwt>
<totfact> 0.17933171E+03</totfact>
</mgrwt>
</event>
<event>
 4    1  0.4862093E-001  0.9195809E+02  0.7546771E-02  0.1298178E+00
         -2   -1    0    0    0  501 -0.00000000000E+00  0.00000000000E+00  0.57626744647E+01  0.57626744647E+01  0.00000000000E+00 0.  1.
          2   -1    0    0  501    0  0.00000000000E+00 -0.00000000000E+00 -0.14775478474E+04  0.14775478474E+04  0.00000000000E+00 0. -1.
         24    1    1    2    0    0  0.21526129984E+01 -0.44547008318E+02 -0.67450105858E+03  0.68074074630E+03  0.80419002446E+02 0.  0.
        -24    1    1    2    0    0 -0.21526129984E+01  0.44547008318E+02 -0.79728411437E+03  0.80256977558E+03  0.80419002446E+02 0.  1.
<mgrwt>
<rscale>  0 0.91958076E+02</rscale>
<asrwt>0</asrwt>
<pdfrwt beam="1">  1        2 0.22731506E+00 0.91958088E+02</pdfrwt>
<pdfrwt beam="2">  1       -2 0.88656529E-03 0.91958088E+02</pdfrwt>
<totfact> 0.33002415E+04</totfact>
</mgrwt>
</event>
<event>
 4    1  0.4862093E-001  0.9532727E+02  0.7546771E-02  0.1290441E+00
          2   -1    0    0  501    0  0.00000000000E+00  0.00000000000E+00  0.62578704120E+03  0.62578704120E+03  0.00000000000E+00 0. -1.
         -2   -1    0    0    0  501 -0.00000000000E+00 -0.00000000000E+00 -0.16578962698E+02  0.16578962698E+02  0.00000000000E+00 0.  1.
         24    1    1    2    0    0  0.37697357651E+02  0.34626313086E+02  0.41775364749E+03  0.42849200492E+03  0.80419002446E+02 0. -1.
        -24    1    1    2    0    0 -0.37697357651E+02 -0.34626313086E+02  0.19145443101E+03  0.21387399898E+03  0.80419002446E+02 0.  1.
<mgrwt>
<rscale>  0 0.95327269E+02</rscale>
<asrwt>0</asrwt>
<pdfrwt beam="1">  1        2 0.96274911E-01 0.95327269E+02</pdfrwt>
<pdfrwt beam="2">  1       -2 0.25506101E-02 0.95327269E+02</pdfrwt>
<totfact> 0.23585308E+04</totfact>
</mgrwt>
</event>
<event>
 4    1  0.4862093E-001  0.9681640E+02  0.7546771E-02  0.1287137E+00
         -2   -1    0    0    0  501 -0.00000000000E+00  0.00000000000E+00  0.13461209025E+03  0.13461209025E+03  0.00000000000E+00 0.  1.
          2   -1    0    0  501    0  0.00000000000E+00 -0.00000000000E+00 -0.28238982253E+03  0.28238982253E+03  0.00000000000E+00 0. -1.
         24    1    1    2    0    0 -0.42099234733E+02 -0.33672759043E+02 -0.25486674225E+03  0.27263615410E+03  0.80419002446E+02 0. -1.
        -24    1    1    2    0    0  0.42099234733E+02  0.33672759043E+02  0.10708900997E+03  0.14436575868E+03  0.80419002446E+02 0.  1.
<mgrwt>
<rscale>  0 0.96816405E+02</rscale>
<asrwt>0</asrwt>
<pdfrwt beam="1">  1        2 0.43444587E-01 0.96816405E+02</pdfrwt>
<pdfrwt beam="2">  1       -2 0.20709553E-01 0.96816405E+02</pdfrwt>
<totfact> 0.22185004E+03</totfact>
</mgrwt>
</event>
<event>
 4    1  0.4862093E-001  0.9570186E+02  0.7546771E-02  0.1289603E+00
         -1   -1    0    0    0  501 -0.00000000000E+00  0.00000000000E+00  0.35317972179E+03  0.35317972179E+03  0.00000000000E+00 0.  1.
          1   -1    0    0  501    0  0.00000000000E+00 -0.00000000000E+00 -0.82398993139E+02  0.82398993139E+02  0.00000000000E+00 0. -1.
         24    1    1    2    0    0 -0.47812093210E+02 -0.20140332936E+02  0.31568008998E+03  0.32986779842E+03  0.80419002446E+02 0.  1.
        -24    1    1    2    0    0  0.47812093210E+02  0.20140332936E+02 -0.44899361328E+02  0.10571091651E+03  0.80419002446E+02 0. -1.
<mgrwt>
<rscale>  0 0.95701856E+02</rscale>
<asrwt>0</asrwt>
<pdfrwt beam="1">  1        1 0.12676768E-01 0.95701856E+02</pdfrwt>
<pdfrwt beam="2">  1       -1 0.54335341E-01 0.95701856E+02</pdfrwt>
<totfact> 0.15794145E+03</totfact>
</mgrwt>
</event>
<event>
 4    1  0.4862093E-001  0.1343300E+03  0.7546771E-02  0.1221169E+00
          3   -1    0    0  501    0  0.00000000000E+00  0.00000000000E+00  0.47863702835E+03  0.47863702835E+03  0.00000000000E+00 0. -1.
         -3   -1    0    0    0  501 -0.00000000000E+00 -0.00000000000E+00 -0.19381604673E+03  0.19381604673E+03  0.00000000000E+00 0.  1.
         24    1    1    2    0    0 -0.75576014871E+02 -0.76587139780E+02 -0.15934912371E+03  0.20841469043E+03  0.80419002446E+02 0.  1.
        -24    1    1    2    0    0  0.75576014871E+02  0.76587139780E+02  0.44417010534E+03  0.46403838465E+03  0.80419002446E+02 0. -1.
<mgrwt>
<rscale>  0 0.13432997E+03</rscale>
<asrwt>0</asrwt>
<pdfrwt beam="1">  1        3 0.73636466E-01 0.13432997E+03</pdfrwt>
<pdfrwt beam="2">  1       -3 0.29817853E-01 0.13432997E+03</pdfrwt>
<totfact> 0.45878387E+01</totfact>
</mgrwt>
</event>
<event>
 4    1  0.4862093E-001  0.1114559E+03  0.7546771E-02  0.1257897E+00
         -2   -1    0    0    0  501 -0.00000000000E+00  0.00000000000E+00  0.45030974144E+02  0.45030974144E+02  0.00000000000E+00 0.  1.
          2   -1    0    0  501    0  0.00000000000E+00 -0.00000000000E+00 -0.11574941896E+04  0.11574941896E+04  0.00000000000E+00 0. -1.
         24    1    1    2    0    0  0.11287121515E+02 -0.76340101929E+02 -0.10809762169E+04  0.10867069558E+04  0.80419002446E+02 0. -1.
        -24    1    1    2    0    0 -0.11287121515E+02  0.76340101929E+02 -0.31486998616E+02  0.11581820803E+03  0.80419002446E+02 0.  1.
<mgrwt>
<rscale>  0 0.11145594E+03</rscale>
<asrwt>0</asrwt>
<pdfrwt beam="1">  1        2 0.17807598E+00 0.11145594E+03</pdfrwt>
<pdfrwt beam="2">  1       -2 0.69278441E-02 0.11145594E+03</pdfrwt>
<totfact> 0.24748445E+03</totfact>
</mgrwt>
</event>
<event>
 4    1  0.4862093E-001  0.8437963E+02  0.7546771E-02  0.1317063E+00
          1   -1    0    0  501    0  0.00000000000E+00  0.00000000000E+00  0.11085185780E+02  0.11085185780E+02  0.00000000000E+00 0. -1.
         -1   -1    0    0    0  501 -0.00000000000E+00 -0.00000000000E+00 -0.77367562393E+03  0.77367562393E+03  0.00000000000E+00 0.  1.
         24    1    1    2    0    0  0.21631574619E+02 -0.13593405474E+02 -0.54299116934E+03  0.54950826348E+03  0.80419002446E+02 0.  0.
        -24    1    1    2    0    0 -0.21631574619E+02  0.13593405474E+02 -0.21959926881E+03  0.23525254623E+03  0.80419002446E+02 0.  0.
<mgrwt>
<rscale>  0 0.84379628E+02</rscale>
<asrwt>0</asrwt>
<pdfrwt beam="1">  1        1 0.17054131E-02 0.84379628E+02</pdfrwt>
<pdfrwt beam="2">  1       -1 0.11902702E+00 0.84379628E+02</pdfrwt>
<totfact> 0.47001674E+03</totfact>
</mgrwt>
</event>
<event>
 4    1  0.4862093E-001  0.8086397E+02  0.7546771E-02  0.1326617E+00
         -2   -1    0    0    0  501 -0.00000000000E+00  0.00000000000E+00  0.17469634297E+02  0.17469634297E+02  0.00000000000E+00 0.  1.
          2   -1    0    0  501    0  0.00000000000E+00 -0.00000000000E+00 -0.39618170766E+03  0.39618170766E+03  0.00000000000E+00 0. -1.
         24    1    1    2    0    0  0.84003951123E+01 -0.10946760203E+01 -0.23795677295E+03  0.25132132162E+03  0.80419002446E+02 0. -1.
        -24    1    1    2    0    0 -0.84003951123E+01  0.10946760203E+01 -0.14075530041E+03  0.16233002034E+03  0.80419002446E+02 0.  0.
<mgrwt>
<rscale>  0 0.80863965E+02</rscale>
<asrwt>0</asrwt>
<pdfrwt beam="1">  1        2 0.60951025E-01 0.80863965E+02</pdfrwt>
<pdfrwt beam="2">  1       -2 0.26876364E-02 0.80863965E+02</pdfrwt>
<totfact> 0.35212189E+04</totfact>
</mgrwt>
</event>
<event>
 4    1  0.4862093E-001  0.8797854E+02  0.7546771E-02  0.1307822E+00
         -2   -1    0    0    0  501 -0.00000000000E+00  0.00000000000E+00  0.45741786372E+02  0.45741786372E+02  0.00000000000E+00 0.  1.
          2   -1    0    0  501    0  0.00000000000E+00 -0.00000000000E+00 -0.18762206363E+03  0.18762206363E+03  0.00000000000E+00 0. -1.
         24    1    1    2    0    0  0.23437205300E+02  0.26901694734E+02 -0.34393463967E+02  0.94462321006E+02  0.80419002446E+02 0.  0.
        -24    1    1    2    0    0 -0.23437205300E+02 -0.26901694734E+02 -0.10748681330E+03  0.13890152900E+03  0.80419002446E+02 0.  0.
<mgrwt>
<rscale>  0 0.87978530E+02</rscale>
<asrwt>0</asrwt>
<pdfrwt beam="1">  1        2 0.28864933E-01 0.87978541E+02</pdfrwt>
<pdfrwt beam="2">  1       -2 0.70371979E-02 0.87978541E+02</pdfrwt>
<totfact> 0.18844264E+04</totfact>
</mgrwt>
</event>
<event>
 4    1  0.4862093E-001  0.9147327E+02  0.7546771E-02  0.1299323E+00
          2   -1    0    0  501    0  0.00000000000E+00  0.00000000000E+00  0.13041864704E+04  0.13041864704E+04  0.00000000000E+00 0. -1.
         -2   -1    0    0    0  501 -0.00000000000E+00 -0.00000000000E+00 -0.80601064774E+01  0.80601064774E+01  0.00000000000E+00 0.  1.
         24    1    1    2    0    0 -0.19749971610E+02 -0.38859766083E+02  0.94441703552E+03  0.94883660118E+03  0.80419002446E+02 0. -1.
        -24    1    1    2    0    0  0.19749971610E+02  0.38859766083E+02  0.35170932840E+03  0.36340997569E+03  0.80419002446E+02 0.  1.
<mgrwt>
<rscale>  0 0.91473268E+02</rscale>
<asrwt>0</asrwt>
<pdfrwt beam="1">  1        2 0.20064390E+00 0.91473268E+02</pdfrwt>
<pdfrwt beam="2">  1       -2 0.12400174E-02 0.91473268E+02</pdfrwt>
<totfact> 0.25235138E+04</totfact>
</mgrwt>
</event>
<event>
 4    1  0.4862093E-001  0.1053747E+03  0.7546771E-02  0.1269383E+00
         -2   -1    0    0    0  501 -0.00000000000E+00  0.00000000000E+00  0.31219248140E+02  0.31219248140E+02  0.00000000000E+00 0.  1.
          2   -1    0    0  501    0  0.00000000000E+00 -0.00000000000E+00 -0.98961615714E+03  0.98961615714E+03  0.00000000000E+00 0. -1.
         24    1    1    2    0    0 -0.43243405595E+02  0.52598762328E+02 -0.88772244196E+03  0.89395468108E+03  0.80419002446E+02 0. -1.
        -24    1    1    2    0    0  0.43243405595E+02 -0.52598762328E+02 -0.70674467043E+02  0.12688072419E+03  0.80419002446E+02 0.  1.
<mgrwt>
<rscale>  0 0.10537475E+03</rscale>
<asrwt>0</asrwt>
<pdfrwt beam="1">  1        2 0.15224863E+00 0.10537475E+03</pdfrwt>
<pdfrwt beam="2">  1       -2 0.48029617E-02 0.10537475E+03</pdfrwt>
<totfact> 0.53495198E+03</totfact>
</mgrwt>
</event>
<event>
 4    1  0.4862093E-001  0.8641684E+02  0.7546771E-02  0.1311768E+00
         -2   -1    0    0    0  501 -0.00000000000E+00  0.00000000000E+00  0.31595435373E+02  0.31595435373E+02  0.00000000000E+00 0.  1.
          2   -1    0    0  501    0  0.00000000000E+00 -0.00000000000E+00 -0.27228781569E+03  0.27228781569E+03  0.00000000000E+00 0. -1.
         24    1    1    2    0    0  0.26880810694E+02  0.16675594190E+02 -0.17553911065E+03  0.19565747812E+03  0.80419002446E+02 0. -1.
        -24    1    1    2    0    0 -0.26880810694E+02 -0.16675594190E+02 -0.65153269671E+02  0.10822577294E+03  0.80419002446E+02 0.  1.
<mgrwt>
<rscale>  0 0.86416835E+02</rscale>
<asrwt>0</asrwt>
<pdfrwt beam="1">  1        2 0.41890433E-01 0.86416835E+02</pdfrwt>
<pdfrwt beam="2">  1       -2 0.48608362E-02 0.86416835E+02</pdfrwt>
<totfact> 0.22076117E+04</totfact>
</mgrwt>
</event>
<event>
 4    1  0.4862093E-001  0.1095828E+03  0.7546771E-02  0.1261344E+00
         -2   -1    0    0    0  501 -0.00000000000E+00  0.00000000000E+00  0.11170833523E+02  0.11170833523E+02  0.00000000000E+00 0.  1.
          2   -1    0    0  501    0  0.00000000000E+00 -0.00000000000E+00 -0.12327761018E+04  0.12327761018E+04  0.00000000000E+00 0. -1.
         24    1    1    2    0    0 -0.71647009391E+02  0.20196128763E+02 -0.83332899960E+03  0.84050319161E+03  0.80419002446E+02 0.  1.
        -24    1    1    2    0    0  0.71647009391E+02 -0.20196128763E+02 -0.38827626867E+03  0.40344374371E+03  0.80419002446E+02 0. -1.
<mgrwt>
<rscale>  0 0.10958282E+03</rscale>
<asrwt>0</asrwt>
<pdfrwt beam="1">  1        2 0.18965779E+00 0.10958282E+03</pdfrwt>
<pdfrwt beam="2">  1       -2 0.17185905E-02 0.10958282E+03</pdfrwt>
<totfact> 0.17521846E+04</totfact>
</mgrwt>
</event>
<event>
 4    1  0.4862093E-001  0.9628428E+02  0.7546771E-02  0.1288309E+00
         -2   -1    0    0    0  501 -0.00000000000E+00  0.00000000000E+00  0.11527802139E+03  0.11527802139E+03  0.00000000000E+00 0.  1.
          2   -1    0    0  501    0  0.00000000000E+00 -0.00000000000E+00 -0.86148842288E+02  0.86148842288E+02  0.00000000000E+00 0. -1.
         24    1    1    2    0    0  0.47373052103E+01  0.52735222125E+02 -0.11406792288E+02  0.96957601960E+02  0.80419002446E+02 0. -1.
        -24    1    1    2    0    0 -0.47373052103E+01 -0.52735222125E+02  0.40535971392E+02  0.10446926172E+03  0.80419002446E+02 0.  1.
<mgrwt>
<rscale>  0 0.96284275E+02</rscale>
<asrwt>0</asrwt>
<pdfrwt beam="1">  1        2 0.13253668E-01 0.96284275E+02</pdfrwt>
<pdfrwt beam="2">  1       -2 0.17735080E-01 0.96284275E+02</pdfrwt>
<totfact> 0.10618917E+04</totfact>
</mgrwt>
</event>
<event>
 4    1  0.4862093E-001  0.1051719E+03  0.7546771E-02  0.1269781E+00
          1   -1    0    0  501    0  0.00000000000E+00  0.00000000000E+00  0.38868931805E+02  0.38868931805E+02  0.00000000000E+00 0. -1.
         -1   -1    0    0    0  501 -0.00000000000E+00 -0.00000000000E+00 -0.48175811293E+03  0.48175811293E+03  0.00000000000E+00 0.  1.
         24    1    1    2    0    0 -0.15961669145E+02  0.65872132047E+02 -0.38798399336E+03  0.40198595464E+03  0.80419002446E+02 0.  1.
        -24    1    1    2    0    0  0.15961669145E+02 -0.65872132047E+02 -0.54905187758E+02  0.11864109010E+03  0.80419002446E+02 0. -1.
<mgrwt>
<rscale>  0 0.10517190E+03</rscale>
<asrwt>0</asrwt>
<pdfrwt beam="1">  1        1 0.59798362E-02 0.10517190E+03</pdfrwt>
<pdfrwt beam="2">  1       -1 0.74116627E-01 0.10517190E+03</pdfrwt>
<totfact> 0.23677321E+03</totfact>
</mgrwt>
</event>
<event>
 4    1  0.4862093E-001  0.9058332E+02  0.7546771E-02  0.1301445E+00
          2   -1    0    0  501    0  0.00000000000E+00  0.00000000000E+00  0.15044793605E+04  0.15044793605E+04  0.00000000000E+00 0. -1.
         -2   -1    0    0    0  501 -0.00000000000E+00 -0.00000000000E+00 -0.76671896467E+01  0.76671896467E+01  0.00000000000E+00 0.  1.
         24    1    1    2    0    0 -0.15340296608E+02  0.38765933841E+02  0.11546259051E+04  0.11581736999E+04  0.80419002446E+02 0. -1.
        -24    1    1    2    0    0  0.15340296608E+02 -0.38765933841E+02  0.34218626573E+03  0.35397285028E+03  0.80419002446E+02 0.  1.
<mgrwt>
<rscale>  0 0.90583322E+02</rscale>
<asrwt>0</asrwt>
<pdfrwt beam="1">  1        2 0.23145813E+00 0.90583322E+02</pdfrwt>
<pdfrwt beam="2">  1       -2 0.11795688E-02 0.90583322E+02</pdfrwt>
<totfact> 0.21311626E+04</totfact>
</mgrwt>
</event>
<event>
 4    1  0.4862093E-001  0.8749990E+02  0.7546771E-02  0.1309022E+00
         -2   -1    0    0    0  501 -0.00000000000E+00  0.00000000000E+00  0.88738618896E+02  0.88738618896E+02  0.00000000000E+00 0.  1.
          2   -1    0    0  501    0  0.00000000000E+00 -0.00000000000E+00 -0.49339173990E+03  0.49339173990E+03  0.00000000000E+00 0. -1.
         24    1    1    2    0    0 -0.24831761905E+02 -0.23924876876E+02 -0.46672077417E+03  0.47485209606E+03  0.80419002446E+02 0. -1.
        -24    1    1    2    0    0  0.24831761905E+02  0.23924876876E+02  0.62067653165E+02  0.10727826274E+03  0.80419002446E+02 0.  1.
<mgrwt>
<rscale>  0 0.87499898E+02</rscale>
<asrwt>0</asrwt>
<pdfrwt beam="1">  1        2 0.75906422E-01 0.87499898E+02</pdfrwt>
<pdfrwt beam="2">  1       -2 0.13652095E-01 0.87499898E+02</pdfrwt>
<totfact> 0.24302756E+03</totfact>
</mgrwt>
</event>
<event>
 4    1  0.4862093E-001  0.1205999E+03  0.7546771E-02  0.1242111E+00
          1   -1    0    0  501    0  0.00000000000E+00  0.00000000000E+00  0.49848235819E+03  0.49848235819E+03  0.00000000000E+00 0. -1.
         -1   -1    0    0    0  501 -0.00000000000E+00 -0.00000000000E+00 -0.32274926145E+02  0.32274926145E+02  0.00000000000E+00 0.  1.
         24    1    1    2    0    0  0.21759933153E+02 -0.87198807793E+02  0.15088861815E+03  0.19316241304E+03  0.80419002446E+02 0.  0.
        -24    1    1    2    0    0 -0.21759933153E+02  0.87198807793E+02  0.31531881389E+03  0.33759487129E+03  0.80419002446E+02 0. -1.
<mgrwt>
<rscale>  0 0.12059993E+03</rscale>
<asrwt>0</asrwt>
<pdfrwt beam="1">  1        1 0.76689588E-01 0.12059993E+03</pdfrwt>
<pdfrwt beam="2">  1       -1 0.49653736E-02 0.12059993E+03</pdfrwt>
<totfact> 0.76548032E+03</totfact>
</mgrwt>
</event>
<event>
 4    1  0.4862093E-001  0.8218169E+02  0.7546771E-02  0.1322972E+00
         -2   -1    0    0    0  501 -0.00000000000E+00  0.00000000000E+00  0.55559354471E+01  0.55559354471E+01  0.00000000000E+00 0.  1.
          2   -1    0    0  501    0  0.00000000000E+00 -0.00000000000E+00 -0.12942596289E+04  0.12942596289E+04  0.00000000000E+00 0. -1.
         24    1    1    2    0    0  0.14671221732E+02 -0.84480899352E+01 -0.80456537878E+03  0.80875167985E+03  0.80419002446E+02 0.  0.
        -24    1    1    2    0    0 -0.14671221732E+02  0.84480899352E+01 -0.48413831464E+03  0.49106388447E+03  0.80419002446E+02 0.  1.
<mgrwt>
<rscale>  0 0.82181695E+02</rscale>
<asrwt>0</asrwt>
<pdfrwt beam="1">  1        2 0.19911703E+00 0.82181695E+02</pdfrwt>
<pdfrwt beam="2">  1       -2 0.85475858E-03 0.82181695E+02</pdfrwt>
<totfact> 0.42804393E+04</totfact>
</mgrwt>
</event>
<event>
 4    1  0.4862093E-001  0.8950806E+02  0.7546771E-02  0.1304047E+00
         -2   -1    0    0    0  501 -0.00000000000E+00  0.00000000000E+00  0.40089247033E+02  0.40089247033E+02  0.00000000000E+00 0.  1.
          2   -1    0    0  501    0  0.00000000000E+00 -0.00000000000E+00 -0.68685235198E+03  0.68685235198E+03  0.00000000000E+00 0. -1.
         24    1    1    2    0    0  0.45177093908E+00 -0.39297240637E+02 -0.62944040771E+03  0.63577269525E+03  0.80419002446E+02 0. -1.
        -24    1    1    2    0    0 -0.45177093908E+00  0.39297240637E+02 -0.17322697236E+02  0.91168903759E+02  0.80419002446E+02 0.  1.
<mgrwt>
<rscale>  0 0.89508062E+02</rscale>
<asrwt>0</asrwt>
<pdfrwt beam="1">  1        2 0.10566961E+00 0.89508062E+02</pdfrwt>
<pdfrwt beam="2">  1       -2 0.61675757E-02 0.89508062E+02</pdfrwt>
<totfact> 0.57505165E+03</totfact>
</mgrwt>
</event>
<event>
 4    1  0.4862093E-001  0.9278969E+02  0.7546771E-02  0.1296233E+00
         -1   -1    0    0    0  501 -0.00000000000E+00  0.00000000000E+00  0.49872969526E+02  0.49872969526E+02  0.00000000000E+00 0.  1.
          1   -1    0    0  501    0  0.00000000000E+00 -0.00000000000E+00 -0.20081913383E+03  0.20081913383E+03  0.00000000000E+00 0. -1.
         24    1    1    2    0    0  0.13543103120E+02  0.44263915733E+02 -0.28516754500E+02  0.97072813494E+02  0.80419002446E+02 0.  0.
        -24    1    1    2    0    0 -0.13543103120E+02 -0.44263915733E+02 -0.12242940980E+03  0.15361928986E+03  0.80419002446E+02 0.  1.
<mgrwt>
<rscale>  0 0.92789686E+02</rscale>
<asrwt>0</asrwt>
<pdfrwt beam="1">  1        1 0.30895252E-01 0.92789686E+02</pdfrwt>
<pdfrwt beam="2">  1       -1 0.76727644E-02 0.92789686E+02</pdfrwt>
<totfact> 0.12149323E+04</totfact>
</mgrwt>
</event>
<event>
 4    1  0.4862093E-001  0.8949104E+02  0.7546771E-02  0.1304089E+00
         -2   -1    0    0    0  501 -0.00000000000E+00  0.00000000000E+00  0.12700636371E+02  0.12700636371E+02  0.00000000000E+00 0.  1.
          2   -1    0    0  501    0  0.00000000000E+00 -0.00000000000E+00 -0.87451146177E+03  0.87451146177E+03  0.00000000000E+00 0. -1.
         24    1    1    2    0    0 -0.38934131751E+02  0.50560730732E+01 -0.66519721072E+03  0.67118996982E+03  0.80419002446E+02 0. -1.
        -24    1    1    2    0    0  0.38934131751E+02 -0.50560730732E+01 -0.19661361468E+03  0.21602212831E+03  0.80419002446E+02 0.  1.
<mgrwt>
<rscale>  0 0.89491041E+02</rscale>
<asrwt>0</asrwt>
<pdfrwt beam="1">  1        2 0.13454019E+00 0.89491041E+02</pdfrwt>
<pdfrwt beam="2">  1       -2 0.19539446E-02 0.89491041E+02</pdfrwt>
<totfact> 0.23097615E+04</totfact>
</mgrwt>
</event>
<event>
 4    1  0.4862093E-001  0.8053974E+02  0.7546771E-02  0.1327527E+00
         -1   -1    0    0    0  501 -0.00000000000E+00  0.00000000000E+00  0.97763898082E+01  0.97763898082E+01  0.00000000000E+00 0.  1.
          1   -1    0    0  501    0  0.00000000000E+00 -0.00000000000E+00 -0.19297874238E+04  0.19297874238E+04  0.00000000000E+00 0. -1.
         24    1    1    2    0    0  0.38488412835E+01 -0.21494635592E+01 -0.17443491359E+03  0.19213065556E+03  0.80419002446E+02 0.  1.
        -24    1    1    2    0    0 -0.38488412835E+01  0.21494635592E+01 -0.17455761204E+04  0.17474331581E+04  0.80419002446E+02 0.  0.
<mgrwt>
<rscale>  0 0.80539740E+02</rscale>
<asrwt>0</asrwt>
<pdfrwt beam="1">  1        1 0.29689012E+00 0.80539740E+02</pdfrwt>
<pdfrwt beam="2">  1       -1 0.15040613E-02 0.80539740E+02</pdfrwt>
<totfact> 0.38209182E+03</totfact>
</mgrwt>
</event>
<event>
 4    1  0.4862093E-001  0.8774683E+02  0.7546771E-02  0.1308402E+00
         -1   -1    0    0    0  501 -0.00000000000E+00  0.00000000000E+00  0.15085747623E+02  0.15085747623E+02  0.00000000000E+00 0.  1.
          1   -1    0    0  501    0  0.00000000000E+00 -0.00000000000E+00 -0.71273073225E+03  0.71273073225E+03  0.00000000000E+00 0. -1.
         24    1    1    2    0    0 -0.27500895541E+02  0.21817223312E+02 -0.15492218006E+03  0.17804602865E+03  0.80419002446E+02 0.  0.
        -24    1    1    2    0    0  0.27500895541E+02 -0.21817223312E+02 -0.54272280457E+03  0.54977045123E+03  0.80419002446E+02 0.  1.
<mgrwt>
<rscale>  0 0.87746832E+02</rscale>
<asrwt>0</asrwt>
<pdfrwt beam="1">  1        1 0.10965085E+00 0.87746832E+02</pdfrwt>
<pdfrwt beam="2">  1       -1 0.23208850E-02 0.87746832E+02</pdfrwt>
<totfact> 0.13909632E+04</totfact>
</mgrwt>
</event>
<event>
 4    1  0.4862093E-001  0.1047854E+03  0.7546771E-02  0.1270543E+00
         -2   -1    0    0    0  501 -0.00000000000E+00  0.00000000000E+00  0.11242093394E+02  0.11242093394E+02  0.00000000000E+00 0.  1.
          2   -1    0    0  501    0  0.00000000000E+00 -0.00000000000E+00 -0.20022977832E+04  0.20022977832E+04  0.00000000000E+00 0. -1.
         24    1    1    2    0    0 -0.63475154376E+02  0.21992620799E+02 -0.17160669741E+04  0.17192631696E+04  0.80419002446E+02 0. -1.
        -24    1    1    2    0    0  0.63475154376E+02 -0.21992620799E+02 -0.27498871568E+03  0.29427670703E+03  0.80419002446E+02 0.  1.
<mgrwt>
<rscale>  0 0.10478543E+03</rscale>
<asrwt>0</asrwt>
<pdfrwt beam="1">  1        2 0.30804591E+00 0.10478543E+03</pdfrwt>
<pdfrwt beam="2">  1       -2 0.17295523E-02 0.10478543E+03</pdfrwt>
<totfact> 0.69662792E+03</totfact>
</mgrwt>
</event>
<event>
 4    1  0.4862093E-001  0.8760708E+02  0.7546771E-02  0.1308752E+00
         -2   -1    0    0    0  501 -0.00000000000E+00  0.00000000000E+00  0.22025751962E+03  0.22025751962E+03  0.00000000000E+00 0.  1.
          2   -1    0    0  501    0  0.00000000000E+00 -0.00000000000E+00 -0.43268158645E+03  0.43268158645E+03  0.00000000000E+00 0. -1.
         24    1    1    2    0    0  0.10557232943E+02  0.33110866450E+02 -0.41925973705E+03  0.42831498655E+03  0.80419002446E+02 0. -1.
        -24    1    1    2    0    0 -0.10557232943E+02 -0.33110866450E+02  0.20683567021E+03  0.22462411952E+03  0.80419002446E+02 0.  1.
<mgrwt>
<rscale>  0 0.87607081E+02</rscale>
<asrwt>0</asrwt>
<pdfrwt beam="1">  1        2 0.66566397E-01 0.87607081E+02</pdfrwt>
<pdfrwt beam="2">  1       -2 0.33885773E-01 0.87607081E+02</pdfrwt>
<totfact> 0.59768340E+02</totfact>
</mgrwt>
</event>
<event>
 4    1  0.4862093E-001  0.8864682E+02  0.7546771E-02  0.1306162E+00
         -2   -1    0    0    0  501 -0.00000000000E+00  0.00000000000E+00  0.45738553313E+02  0.45738553313E+02  0.00000000000E+00 0.  1.
          2   -1    0    0  501    0  0.00000000000E+00 -0.00000000000E+00 -0.82550211433E+03  0.82550211433E+03  0.00000000000E+00 0. -1.
         24    1    1    2    0    0 -0.28588060647E+02  0.23953404331E+02 -0.77752863810E+03  0.78256567891E+03  0.80419002446E+02 0. -1.
        -24    1    1    2    0    0  0.28588060647E+02 -0.23953404331E+02 -0.22349229115E+01  0.88674988725E+02  0.80419002446E+02 0.  1.
<mgrwt>
<rscale>  0 0.88646820E+02</rscale>
<asrwt>0</asrwt>
<pdfrwt beam="1">  1        2 0.12700032E+00 0.88646820E+02</pdfrwt>
<pdfrwt beam="2">  1       -2 0.70367006E-02 0.88646820E+02</pdfrwt>
<totfact> 0.37820055E+03</totfact>
</mgrwt>
</event>
<event>
 4    1  0.4862093E-001  0.8543807E+02  0.7546771E-02  0.1314291E+00
         -2   -1    0    0    0  501 -0.00000000000E+00  0.00000000000E+00  0.73412297866E+01  0.73412297866E+01  0.00000000000E+00 0.  1.
          2   -1    0    0  501    0  0.00000000000E+00 -0.00000000000E+00 -0.24468533119E+04  0.24468533119E+04  0.00000000000E+00 0. -1.
         24    1    1    2    0    0 -0.20932858359E+02  0.19856085701E+02 -0.21651990704E+04  0.21668840945E+04  0.80419002446E+02 0. -1.
        -24    1    1    2    0    0  0.20932858359E+02 -0.19856085701E+02 -0.27431301175E+03  0.28731044720E+03  0.80419002446E+02 0.  1.
<mgrwt>
<rscale>  0 0.85438075E+02</rscale>
<asrwt>0</asrwt>
<pdfrwt beam="1">  1        2 0.37643879E+00 0.85438075E+02</pdfrwt>
<pdfrwt beam="2">  1       -2 0.11294205E-02 0.85438075E+02</pdfrwt>
<totfact> 0.75387968E+03</totfact>
</mgrwt>
</event>
<event>
 4    1  0.4862093E-001  0.1130231E+03  0.7546771E-02  0.1255072E+00
          2   -1    0    0  501    0  0.00000000000E+00  0.00000000000E+00  0.32125743915E+03  0.32125743915E+03  0.00000000000E+00 0. -1.
         -2   -1    0    0    0  501 -0.00000000000E+00 -0.00000000000E+00 -0.63734410526E+02  0.63734410526E+02  0.00000000000E+00 0.  1.
         24    1    1    2    0    0  0.79167076730E+02 -0.62908824295E+01  0.24681524679E+03  0.27146267375E+03  0.80419002446E+02 0. -1.
        -24    1    1    2    0    0 -0.79167076730E+02  0.62908824295E+01  0.10707781838E+02  0.11352917592E+03  0.80419002446E+02 0.  1.
<mgrwt>
<rscale>  0 0.11302308E+03</rscale>
<asrwt>0</asrwt>
<pdfrwt beam="1">  1        2 0.49424220E-01 0.11302308E+03</pdfrwt>
<pdfrwt beam="2">  1       -2 0.98052942E-02 0.11302308E+03</pdfrwt>
<totfact> 0.65515430E+03</totfact>
</mgrwt>
</event>
<event>
 4    1  0.4862093E-001  0.8178042E+02  0.7546771E-02  0.1324073E+00
         -1   -1    0    0    0  501 -0.00000000000E+00  0.00000000000E+00  0.40218659125E+02  0.40218659125E+02  0.00000000000E+00 0.  1.
          1   -1    0    0  501    0  0.00000000000E+00 -0.00000000000E+00 -0.16776252172E+03  0.16776252172E+03  0.00000000000E+00 0. -1.
         24    1    1    2    0    0  0.74023735266E+01  0.12885003988E+02 -0.73508533616E+02  0.10996153387E+03  0.80419002446E+02 0. -1.
        -24    1    1    2    0    0 -0.74023735266E+01 -0.12885003988E+02 -0.54035328981E+02  0.98019646980E+02  0.80419002446E+02 0.  1.
<mgrwt>
<rscale>  0 0.81780414E+02</rscale>
<asrwt>0</asrwt>
<pdfrwt beam="1">  1        1 0.25809619E-01 0.81780424E+02</pdfrwt>
<pdfrwt beam="2">  1       -1 0.61874860E-02 0.81780424E+02</pdfrwt>
<totfact> 0.20565959E+04</totfact>
</mgrwt>
</event>
<event>
 4    1  0.4862093E-001  0.8061520E+02  0.7546771E-02  0.1327315E+00
         -1   -1    0    0    0  501 -0.00000000000E+00  0.00000000000E+00  0.20801558129E+02  0.20801558129E+02  0.00000000000E+00 0.  1.
          1   -1    0    0  501    0  0.00000000000E+00 -0.00000000000E+00 -0.36671759736E+03  0.36671759736E+03  0.00000000000E+00 0. -1.
         24    1    1    2    0    0  0.48751802752E+01  0.27977498680E+01 -0.98400761721E+02  0.12720660615E+03  0.80419002446E+02 0.  0.
        -24    1    1    2    0    0 -0.48751802752E+01 -0.27977498680E+01 -0.24751527751E+03  0.26031254933E+03  0.80419002446E+02 0. -1.
<mgrwt>
<rscale>  0 0.80615202E+02</rscale>
<asrwt>0</asrwt>
<pdfrwt beam="1">  1        1 0.56418089E-01 0.80615202E+02</pdfrwt>
<pdfrwt beam="2">  1       -1 0.32002399E-02 0.80615202E+02</pdfrwt>
<totfact> 0.20609796E+04</totfact>
</mgrwt>
</event>
<event>
 4    1  0.4862093E-001  0.9934073E+02  0.7546771E-02  0.1281688E+00
          3   -1    0    0  501    0  0.00000000000E+00  0.00000000000E+00  0.61456318569E+03  0.61456318569E+03  0.00000000000E+00 0. -1.
         -3   -1    0    0    0  501 -0.00000000000E+00 -0.00000000000E+00 -0.22907934174E+02  0.22907934174E+02  0.00000000000E+00 0.  1.
         24    1    1    2    0    0 -0.27513474895E+02  0.51423464798E+02  0.12153273503E+03  0.15696746692E+03  0.80419002446E+02 0.  1.
        -24    1    1    2    0    0  0.27513474895E+02 -0.51423464798E+02  0.47012251649E+03  0.48050365295E+03  0.80419002446E+02 0. -1.
<mgrwt>
<rscale>  0 0.99340727E+02</rscale>
<asrwt>0</asrwt>
<pdfrwt beam="1">  1        3 0.94548170E-01 0.99340727E+02</pdfrwt>
<pdfrwt beam="2">  1       -3 0.35242980E-02 0.99340727E+02</pdfrwt>
<totfact> 0.89451498E+02</totfact>
</mgrwt>
</event>
<event>
 4    1  0.4862093E-001  0.9095880E+02  0.7546771E-02  0.1300546E+00
          2   -1    0    0  501    0  0.00000000000E+00  0.00000000000E+00  0.55831100233E+03  0.55831100233E+03  0.00000000000E+00 0. -1.
         -2   -1    0    0    0  501 -0.00000000000E+00 -0.00000000000E+00 -0.18540010571E+02  0.18540010571E+02  0.00000000000E+00 0.  1.
         24    1    1    2    0    0 -0.34929850674E+02  0.24211427821E+02  0.39910269396E+03  0.40933661452E+03  0.80419002446E+02 0. -1.
        -24    1    1    2    0    0  0.34929850674E+02 -0.24211427821E+02  0.14066829779E+03  0.16751439838E+03  0.80419002446E+02 0.  1.
<mgrwt>
<rscale>  0 0.90958802E+02</rscale>
<asrwt>0</asrwt>
<pdfrwt beam="1">  1        2 0.85893988E-01 0.90958802E+02</pdfrwt>
<pdfrwt beam="2">  1       -2 0.28523097E-02 0.90958802E+02</pdfrwt>
<totfact> 0.22675937E+04</totfact>
</mgrwt>
</event>
<event>
 4    1  0.4862093E-001  0.9506935E+02  0.7546771E-02  0.1291020E+00
          4   -1    0    0  501    0  0.00000000000E+00  0.00000000000E+00  0.21648993203E+03  0.21648993203E+03  0.00000000000E+00 0. -1.
         -4   -1    0    0    0  501 -0.00000000000E+00 -0.00000000000E+00 -0.43880526449E+02  0.43880526449E+02  0.00000000000E+00 0.  1.
         24    1    1    2    0    0  0.41680657328E+02 -0.28873665180E+02  0.11499914174E+03  0.14920785600E+03  0.80419002446E+02 0. -1.
        -24    1    1    2    0    0 -0.41680657328E+02  0.28873665180E+02  0.57610263846E+02  0.11116260248E+03  0.80419002446E+02 0.  1.
<mgrwt>
<rscale>  0 0.95069352E+02</rscale>
<asrwt>0</asrwt>
<pdfrwt beam="1">  1        4 0.33306143E-01 0.95069352E+02</pdfrwt>
<pdfrwt beam="2">  1       -4 0.67508504E-02 0.95069352E+02</pdfrwt>
<totfact> 0.19204052E+03</totfact>
</mgrwt>
</event>
<event>
 4    1  0.4862093E-001  0.1333151E+03  0.7546771E-02  0.1222618E+00
         -2   -1    0    0    0  501 -0.00000000000E+00  0.00000000000E+00  0.12352749023E+02  0.12352749023E+02  0.00000000000E+00 0.  1.
          2   -1    0    0  501    0  0.00000000000E+00 -0.00000000000E+00 -0.16954696467E+04  0.16954696467E+04  0.00000000000E+00 0. -1.
         24    1    1    2    0    0  0.52556637278E+02 -0.92431018889E+02 -0.11738126116E+04  0.11813589448E+04  0.80419002446E+02 0.  0.
        -24    1    1    2    0    0 -0.52556637278E+02  0.92431018889E+02 -0.50930428602E+03  0.52646345086E+03  0.80419002446E+02 0.  1.
<mgrwt>
<rscale>  0 0.13331508E+03</rscale>
<asrwt>0</asrwt>
<pdfrwt beam="1">  1        2 0.26084142E+00 0.13331508E+03</pdfrwt>
<pdfrwt beam="2">  1       -2 0.19004234E-02 0.13331508E+03</pdfrwt>
<totfact> 0.87709366E+03</totfact>
</mgrwt>
</event>
<event>
 4    1  0.4862093E-001  0.8920678E+02  0.7546771E-02  0.1304784E+00
         -2   -1    0    0    0  501 -0.00000000000E+00  0.00000000000E+00  0.27884727299E+02  0.27884727299E+02  0.00000000000E+00 0.  1.
          2   -1    0    0  501    0  0.00000000000E+00 -0.00000000000E+00 -0.51645183959E+03  0.51645183959E+03  0.00000000000E+00 0. -1.
         24    1    1    2    0    0 -0.11908937742E+02  0.36726167188E+02 -0.42633432488E+03  0.43556722407E+03  0.80419002446E+02 0. -1.
        -24    1    1    2    0    0  0.11908937742E+02 -0.36726167188E+02 -0.62232787405E+02  0.10876934282E+03  0.80419002446E+02 0.  1.
<mgrwt>
<rscale>  0 0.89206783E+02</rscale>
<asrwt>0</asrwt>
<pdfrwt beam="1">  1        2 0.79454130E-01 0.89206783E+02</pdfrwt>
<pdfrwt beam="2">  1       -2 0.42899580E-02 0.89206783E+02</pdfrwt>
<totfact> 0.13569806E+04</totfact>
</mgrwt>
</event>
<event>
 4    1  0.4862093E-001  0.8151465E+02  0.7546771E-02  0.1324807E+00
         -2   -1    0    0    0  501 -0.00000000000E+00  0.00000000000E+00  0.55208536852E+02  0.55208536852E+02  0.00000000000E+00 0.  1.
          2   -1    0    0  501    0  0.00000000000E+00 -0.00000000000E+00 -0.13490566230E+03  0.13490566230E+03  0.00000000000E+00 0. -1.
         24    1    1    2    0    0  0.12944472796E+02  0.31404892077E+01 -0.71066695052E+02  0.10814394643E+03  0.80419002446E+02 0. -1.
        -24    1    1    2    0    0 -0.12944472796E+02 -0.31404892077E+01 -0.86304303930E+01  0.81970252724E+02  0.80419002446E+02 0.  0.
<mgrwt>
<rscale>  0 0.81514649E+02</rscale>
<asrwt>0</asrwt>
<pdfrwt beam="1">  1        2 0.20754717E-01 0.81514649E+02</pdfrwt>
<pdfrwt beam="2">  1       -2 0.84936211E-02 0.81514649E+02</pdfrwt>
<totfact> 0.20100151E+04</totfact>
</mgrwt>
</event>
<event>
 4    1  0.4862093E-001  0.8488011E+02  0.7546771E-02  0.1315746E+00
          4   -1    0    0  501    0  0.00000000000E+00  0.00000000000E+00  0.34009472979E+03  0.34009472979E+03  0.00000000000E+00 0. -1.
         -4   -1    0    0    0  501 -0.00000000000E+00 -0.00000000000E+00 -0.32196152780E+02  0.32196152780E+02  0.00000000000E+00 0.  1.
         24    1    1    2    0    0 -0.18992941428E+02 -0.19408373138E+02  0.26281289155E+03  0.27617973982E+03  0.80419002446E+02 0. -1.
        -24    1    1    2    0    0  0.18992941428E+02  0.19408373138E+02  0.45085685466E+02  0.96111142748E+02  0.80419002446E+02 0.  1.
<mgrwt>
<rscale>  0 0.84880108E+02</rscale>
<asrwt>0</asrwt>
<pdfrwt beam="1">  1        4 0.52322264E-01 0.84880108E+02</pdfrwt>
<pdfrwt beam="2">  1       -4 0.49532545E-02 0.84880108E+02</pdfrwt>
<totfact> 0.12633427E+03</totfact>
</mgrwt>
</event>
<event>
 4    1  0.4862093E-001  0.8498448E+02  0.7546771E-02  0.1315473E+00
         -3   -1    0    0    0  501 -0.00000000000E+00  0.00000000000E+00  0.13743935554E+04  0.13743935554E+04  0.00000000000E+00 0.  1.
          3   -1    0    0  501    0  0.00000000000E+00 -0.00000000000E+00 -0.14792665735E+03  0.14792665735E+03  0.00000000000E+00 0. -1.
         24    1    1    2    0    0 -0.43924571011E+01  0.27126598500E+02  0.13607515849E+04  0.13634028156E+04  0.80419002446E+02 0.  1.
        -24    1    1    2    0    0  0.43924571011E+01 -0.27126598500E+02 -0.13428468683E+03  0.15891739709E+03  0.80419002446E+02 0. -1.
<mgrwt>
<rscale>  0 0.84984481E+02</rscale>
<asrwt>0</asrwt>
<pdfrwt beam="1">  1        3 0.22757948E-01 0.84984481E+02</pdfrwt>
<pdfrwt beam="2">  1       -3 0.21144515E+00 0.84984481E+02</pdfrwt>
<totfact> 0.57785240E+00</totfact>
</mgrwt>
</event>
<event>
 4    1  0.4862093E-001  0.8319364E+02  0.7546771E-02  0.1320225E+00
          2   -1    0    0  501    0  0.00000000000E+00  0.00000000000E+00  0.58615999212E+03  0.58615999212E+03  0.00000000000E+00 0. -1.
         -2   -1    0    0    0  501 -0.00000000000E+00 -0.00000000000E+00 -0.13780164223E+02  0.13780164223E+02  0.00000000000E+00 0.  1.
         24    1    1    2    0    0  0.20824262684E+02 -0.45072417281E+01  0.39968030916E+03  0.40824689910E+03  0.80419002446E+02 0. -1.
        -24    1    1    2    0    0 -0.20824262684E+02  0.45072417281E+01  0.17269951874E+03  0.19169325724E+03  0.80419002446E+02 0.  1.
<mgrwt>
<rscale>  0 0.83193636E+02</rscale>
<asrwt>0</asrwt>
<pdfrwt beam="1">  1        2 0.90178441E-01 0.83193636E+02</pdfrwt>
<pdfrwt beam="2">  1       -2 0.21200257E-02 0.83193636E+02</pdfrwt>
<totfact> 0.32655468E+04</totfact>
</mgrwt>
</event>
<event>
 4    1  0.4862093E-001  0.8233439E+02  0.7546771E-02  0.1322554E+00
          1   -1    0    0  501    0  0.00000000000E+00  0.00000000000E+00  0.15118204676E+04  0.15118204676E+04  0.00000000000E+00 0. -1.
         -1   -1    0    0    0  501 -0.00000000000E+00 -0.00000000000E+00 -0.10754747656E+03  0.10754747656E+03  0.00000000000E+00 0.  1.
         24    1    1    2    0    0 -0.23403555041E+01 -0.17500241683E+02 -0.90488740532E+02  0.12234036063E+03  0.80419002446E+02 0.  1.
        -24    1    1    2    0    0  0.23403555041E+01  0.17500241683E+02  0.14947617316E+04  0.14970275835E+04  0.80419002446E+02 0. -1.
<mgrwt>
<rscale>  0 0.82334389E+02</rscale>
<asrwt>0</asrwt>
<pdfrwt beam="1">  1        1 0.23258775E+00 0.82334389E+02</pdfrwt>
<pdfrwt beam="2">  1       -1 0.16545767E-01 0.82334389E+02</pdfrwt>
<totfact> 0.20696314E+02</totfact>
</mgrwt>
</event>
<event>
 4    1  0.4862093E-001  0.8565428E+02  0.7546771E-02  0.1313730E+00
         -1   -1    0    0    0  501 -0.00000000000E+00  0.00000000000E+00  0.10176254443E+04  0.10176254443E+04  0.00000000000E+00 0.  1.
          1   -1    0    0  501    0  0.00000000000E+00 -0.00000000000E+00 -0.72095815238E+01  0.72095815238E+01  0.00000000000E+00 0. -1.
         24    1    1    2    0    0  0.15980479844E+02 -0.24780223507E+02  0.50491278013E+03  0.51212651436E+03  0.80419002446E+02 0.  1.
        -24    1    1    2    0    0 -0.15980479844E+02  0.24780223507E+02  0.50550308267E+03  0.51270851149E+03  0.80419002446E+02 0.  0.
<mgrwt>
<rscale>  0 0.85654264E+02</rscale>
<asrwt>0</asrwt>
<pdfrwt beam="1">  1        1 0.11091672E-02 0.85654275E+02</pdfrwt>
<pdfrwt beam="2">  1       -1 0.15655765E+00 0.85654275E+02</pdfrwt>
<totfact> 0.43480286E+03</totfact>
</mgrwt>
</event>
<event>
 4    1  0.4862093E-001  0.8506461E+02  0.7546771E-02  0.1315264E+00
         -2   -1    0    0    0  501 -0.00000000000E+00  0.00000000000E+00  0.18570089015E+03  0.18570089015E+03  0.00000000000E+00 0.  1.
          2   -1    0    0  501    0  0.00000000000E+00 -0.00000000000E+00 -0.11934810703E+03  0.11934810703E+03  0.00000000000E+00 0. -1.
         24    1    1    2    0    0  0.12987491337E+02  0.24496866058E+02 -0.91996999997E+02  0.12529738761E+03  0.80419002446E+02 0. -1.
        -24    1    1    2    0    0 -0.12987491337E+02 -0.24496866058E+02  0.15834978312E+03  0.17975160958E+03  0.80419002446E+02 0.  1.
<mgrwt>
<rscale>  0 0.85064607E+02</rscale>
<asrwt>0</asrwt>
<pdfrwt beam="1">  1        2 0.18361247E-01 0.85064607E+02</pdfrwt>
<pdfrwt beam="2">  1       -2 0.28569368E-01 0.85064607E+02</pdfrwt>
<totfact> 0.32041073E+03</totfact>
</mgrwt>
</event>
<event>
 4    1  0.4862093E-001  0.8352697E+02  0.7546771E-02  0.1319330E+00
         -1   -1    0    0    0  501 -0.00000000000E+00  0.00000000000E+00  0.41842579330E+02  0.41842579330E+02  0.00000000000E+00 0.  1.
          1   -1    0    0  501    0  0.00000000000E+00 -0.00000000000E+00 -0.12649178764E+04  0.12649178764E+04  0.00000000000E+00 0. -1.
         24    1    1    2    0    0  0.30050739722E+01 -0.22372052106E+02 -0.27420138244E+01  0.83571967664E+02  0.80419002446E+02 0.  1.
        -24    1    1    2    0    0 -0.30050739722E+01  0.22372052106E+02 -0.12203332832E+04  0.12231884880E+04  0.80419002446E+02 0. -1.
<mgrwt>
<rscale>  0 0.83526973E+02</rscale>
<asrwt>0</asrwt>
<pdfrwt beam="1">  1        1 0.19460277E+00 0.83526973E+02</pdfrwt>
<pdfrwt beam="2">  1       -1 0.64373191E-02 0.83526973E+02</pdfrwt>
<totfact> 0.12437304E+03</totfact>
</mgrwt>
</event>
<event>
 4    1  0.4862093E-001  0.1000204E+03  0.7546771E-02  0.1280253E+00
         -1   -1    0    0    0  501 -0.00000000000E+00  0.00000000000E+00  0.14029878516E+03  0.14029878516E+03  0.00000000000E+00 0.  1.
          1   -1    0    0  501    0  0.00000000000E+00 -0.00000000000E+00 -0.42781088632E+03  0.42781088632E+03  0.00000000000E+00 0. -1.
         24    1    1    2    0    0  0.31234018873E+02  0.50609210276E+02  0.11554801860E+03  0.15282479071E+03  0.80419002446E+02 0.  1.
        -24    1    1    2    0    0 -0.31234018873E+02 -0.50609210276E+02 -0.40306011976E+03  0.41528488077E+03  0.80419002446E+02 0. -1.
<mgrwt>
<rscale>  0 0.10002036E+03</rscale>
<asrwt>0</asrwt>
<pdfrwt beam="1">  1        1 0.65817059E-01 0.10002036E+03</pdfrwt>
<pdfrwt beam="2">  1       -1 0.21584429E-01 0.10002036E+03</pdfrwt>
<totfact> 0.97925870E+02</totfact>
</mgrwt>
</event>
<event>
 4    1  0.4862093E-001  0.9719158E+02  0.7546771E-02  0.1286315E+00
         -2   -1    0    0    0  501 -0.00000000000E+00  0.00000000000E+00  0.83757562409E+01  0.83757562409E+01  0.00000000000E+00 0.  1.
          2   -1    0    0  501    0  0.00000000000E+00 -0.00000000000E+00 -0.12812158198E+04  0.12812158198E+04  0.00000000000E+00 0. -1.
         24    1    1    2    0    0 -0.46410501376E+02  0.28723719964E+02 -0.85954179252E+03  0.86501924589E+03  0.80419002446E+02 0. -1.
        -24    1    1    2    0    0  0.46410501376E+02 -0.28723719964E+02 -0.41329827102E+03  0.42457233013E+03  0.80419002446E+02 0.  1.
<mgrwt>
<rscale>  0 0.97191577E+02</rscale>
<asrwt>0</asrwt>
<pdfrwt beam="1">  1        2 0.19711012E+00 0.97191577E+02</pdfrwt>
<pdfrwt beam="2">  1       -2 0.12885779E-02 0.97191577E+02</pdfrwt>
<totfact> 0.24695252E+04</totfact>
</mgrwt>
</event>
<event>
 4    1  0.4862093E-001  0.8803965E+02  0.7546771E-02  0.1307670E+00
         -2   -1    0    0    0  501 -0.00000000000E+00  0.00000000000E+00  0.27112561380E+02  0.27112561380E+02  0.00000000000E+00 0.  1.
          2   -1    0    0  501    0  0.00000000000E+00 -0.00000000000E+00 -0.75622436318E+03  0.75622436318E+03  0.00000000000E+00 0. -1.
         24    1    1    2    0    0 -0.10505099072E+02 -0.34255019084E+02 -0.67344355849E+03  0.67917391430E+03  0.80419002446E+02 0. -1.
        -24    1    1    2    0    0  0.10505099072E+02  0.34255019084E+02 -0.55668243310E+02  0.10416301026E+03  0.80419002446E+02 0.  1.
<mgrwt>
<rscale>  0 0.88039647E+02</rscale>
<asrwt>0</asrwt>
<pdfrwt beam="1">  1        2 0.11634222E+00 0.88039647E+02</pdfrwt>
<pdfrwt beam="2">  1       -2 0.41711631E-02 0.88039647E+02</pdfrwt>
<totfact> 0.91726064E+03</totfact>
</mgrwt>
</event>
<event>
 4    1  0.4862093E-001  0.1166556E+03  0.7546771E-02  0.1248719E+00
          1   -1    0    0  501    0  0.00000000000E+00  0.00000000000E+00  0.24815886863E+03  0.24815886863E+03  0.00000000000E+00 0. -1.
         -1   -1    0    0    0  501 -0.00000000000E+00 -0.00000000000E+00 -0.11147404941E+03  0.11147404941E+03  0.00000000000E+00 0.  1.
         24    1    1    2    0    0  0.57659016501E+02  0.61779770952E+02 -0.59828451876E+02  0.13110286759E+03  0.80419002446E+02 0.  1.
        -24    1    1    2    0    0 -0.57659016501E+02 -0.61779770952E+02  0.19651327110E+03  0.22853005045E+03  0.80419002446E+02 0. -1.
<mgrwt>
<rscale>  0 0.11665555E+03</rscale>
<asrwt>0</asrwt>
<pdfrwt beam="1">  1        1 0.38178287E-01 0.11665555E+03</pdfrwt>
<pdfrwt beam="2">  1       -1 0.17149854E-01 0.11665555E+03</pdfrwt>
<totfact> 0.27812960E+03</totfact>
</mgrwt>
</event>
<event>
 4    1  0.4862093E-001  0.8203164E+02  0.7546771E-02  0.1323383E+00
         -3   -1    0    0    0  501 -0.00000000000E+00  0.00000000000E+00  0.15800546782E+03  0.15800546782E+03  0.00000000000E+00 0.  1.
          3   -1    0    0  501    0  0.00000000000E+00 -0.00000000000E+00 -0.43556608547E+02  0.43556608547E+02  0.00000000000E+00 0. -1.
         24    1    1    2    0    0  0.84905118355E+01 -0.13779900647E+02  0.72250657287E+02  0.10931307280E+03  0.80419002446E+02 0. -1.
        -24    1    1    2    0    0 -0.84905118355E+01  0.13779900647E+02  0.42198201984E+02  0.92249003562E+02  0.80419002446E+02 0.  1.
<mgrwt>
<rscale>  0 0.82031643E+02</rscale>
<asrwt>0</asrwt>
<pdfrwt beam="1">  1        3 0.67010168E-02 0.82031643E+02</pdfrwt>
<pdfrwt beam="2">  1       -3 0.24308533E-01 0.82031643E+02</pdfrwt>
<totfact> 0.46023223E+03</totfact>
</mgrwt>
</event>
<event>
 4    1  0.4862093E-001  0.1253513E+03  0.7546771E-02  0.1234521E+00
          4   -1    0    0  501    0  0.00000000000E+00  0.00000000000E+00  0.71248204815E+03  0.71248204815E+03  0.00000000000E+00 0. -1.
         -4   -1    0    0    0  501 -0.00000000000E+00 -0.00000000000E+00 -0.22101757954E+02  0.22101757954E+02  0.00000000000E+00 0.  1.
         24    1    1    2    0    0 -0.19255074800E+02  0.94206982975E+02  0.32807922599E+03  0.35121063200E+03  0.80419002446E+02 0. -1.
        -24    1    1    2    0    0  0.19255074800E+02 -0.94206982975E+02  0.36230106420E+03  0.38337317410E+03  0.80419002446E+02 0.  1.
<mgrwt>
<rscale>  0 0.12535124E+03</rscale>
<asrwt>0</asrwt>
<pdfrwt beam="1">  1        4 0.10961260E+00 0.12535126E+03</pdfrwt>
<pdfrwt beam="2">  1       -4 0.34002710E-02 0.12535126E+03</pdfrwt>
<totfact> 0.49942510E+02</totfact>
</mgrwt>
</event>
<event>
 4    1  0.4862093E-001  0.8160315E+02  0.7546771E-02  0.1324563E+00
         -2   -1    0    0    0  501 -0.00000000000E+00  0.00000000000E+00  0.19254673592E+02  0.19254673592E+02  0.00000000000E+00 0.  1.
          2   -1    0    0  501    0  0.00000000000E+00 -0.00000000000E+00 -0.35296435576E+03  0.35296435576E+03  0.00000000000E+00 0. -1.
         24    1    1    2    0    0  0.11359659916E+02 -0.79256652899E+01 -0.19329209190E+03  0.20981159832E+03  0.80419002446E+02 0.  1.
        -24    1    1    2    0    0 -0.11359659916E+02  0.79256652899E+01 -0.14041759027E+03  0.16240743103E+03  0.80419002446E+02 0. -1.
<mgrwt>
<rscale>  0 0.81603149E+02</rscale>
<asrwt>0</asrwt>
<pdfrwt beam="1">  1        2 0.54302206E-01 0.81603149E+02</pdfrwt>
<pdfrwt beam="2">  1       -2 0.29622576E-02 0.81603149E+02</pdfrwt>
<totfact> 0.34552175E+04</totfact>
</mgrwt>
</event>
<event>
 4    1  0.4862093E-001  0.9423220E+02  0.7546771E-02  0.1292915E+00
         -1   -1    0    0    0  501 -0.00000000000E+00  0.00000000000E+00  0.14534548136E+04  0.14534548136E+04  0.00000000000E+00 0.  1.
          1   -1    0    0  501    0  0.00000000000E+00 -0.00000000000E+00 -0.20124321437E+02  0.20124321437E+02  0.00000000000E+00 0. -1.
         24    1    1    2    0    0  0.35161485675E+02 -0.34295207331E+02  0.13315284363E+04  0.13348586757E+04  0.80419002446E+02 0.  1.
        -24    1    1    2    0    0 -0.35161485675E+02  0.34295207331E+02  0.10180205586E+03  0.13872045939E+03  0.80419002446E+02 0. -1.
<mgrwt>
<rscale>  0 0.94232199E+02</rscale>
<asrwt>0</asrwt>
<pdfrwt beam="1">  1        1 0.30960506E-02 0.94232199E+02</pdfrwt>
<pdfrwt beam="2">  1       -1 0.22360835E+00 0.94232199E+02</pdfrwt>
<totfact> 0.37853937E+02</totfact>
</mgrwt>
</event>
<event>
 4    1  0.4862093E-001  0.9320786E+02  0.7546771E-02  0.1295264E+00
          2   -1    0    0  501    0  0.00000000000E+00  0.00000000000E+00  0.39334457813E+03  0.39334457813E+03  0.00000000000E+00 0. -1.
         -2   -1    0    0    0  501 -0.00000000000E+00 -0.00000000000E+00 -0.53143365695E+02  0.53143365695E+02  0.00000000000E+00 0.  1.
         24    1    1    2    0    0 -0.46811123403E+02 -0.54043514978E+01  0.34076081051E+03  0.35327840894E+03  0.80419002446E+02 0. -1.
        -24    1    1    2    0    0  0.46811123403E+02  0.54043514978E+01 -0.55959807394E+00  0.93209534886E+02  0.80419002446E+02 0.  1.
<mgrwt>
<rscale>  0 0.93207855E+02</rscale>
<asrwt>0</asrwt>
<pdfrwt beam="1">  1        2 0.60514549E-01 0.93207855E+02</pdfrwt>
<pdfrwt beam="2">  1       -2 0.81759026E-02 0.93207855E+02</pdfrwt>
<totfact> 0.69179926E+03</totfact>
</mgrwt>
</event>
<event>
 4    1  0.4862093E-001  0.8907765E+02  0.7546771E-02  0.1305101E+00
          1   -1    0    0  501    0  0.00000000000E+00  0.00000000000E+00  0.16856807549E+04  0.16856807549E+04  0.00000000000E+00 0. -1.
         -1   -1    0    0    0  501 -0.00000000000E+00 -0.00000000000E+00 -0.31690383400E+02  0.31690383400E+02  0.00000000000E+00 0.  1.
         24    1    1    2    0    0 -0.14116115555E+02 -0.35613848599E+02  0.34645197439E+02  0.95577803858E+02  0.80419002446E+02 0.  1.
        -24    1    1    2    0    0  0.14116115555E+02  0.35613848599E+02  0.16193451741E+04  0.16217933345E+04  0.80419002446E+02 0. -1.
<mgrwt>
<rscale>  0 0.89077645E+02</rscale>
<asrwt>0</asrwt>
<pdfrwt beam="1">  1        1 0.25933543E+00 0.89077645E+02</pdfrwt>
<pdfrwt beam="2">  1       -1 0.48754449E-02 0.89077645E+02</pdfrwt>
<totfact> 0.10051371E+03</totfact>
</mgrwt>
</event>
<event>
 4    1  0.4862093E-001  0.8957771E+02  0.7546771E-02  0.1303878E+00
         -1   -1    0    0    0  501 -0.00000000000E+00  0.00000000000E+00  0.22557417781E+02  0.22557417781E+02  0.00000000000E+00 0.  1.
          1   -1    0    0  501    0  0.00000000000E+00 -0.00000000000E+00 -0.35792152463E+03  0.35792152463E+03  0.00000000000E+00 0. -1.
         24    1    1    2    0    0 -0.35853692750E+02  0.16476156274E+02 -0.15276842191E+03  0.17709420571E+03  0.80419002446E+02 0. -1.
        -24    1    1    2    0    0  0.35853692750E+02 -0.16476156274E+02 -0.18259568494E+03  0.20338473670E+03  0.80419002446E+02 0.  1.
<mgrwt>
<rscale>  0 0.89577715E+02</rscale>
<asrwt>0</asrwt>
<pdfrwt beam="1">  1        1 0.55064849E-01 0.89577715E+02</pdfrwt>
<pdfrwt beam="2">  1       -1 0.34703720E-02 0.89577715E+02</pdfrwt>
<totfact> 0.19109041E+04</totfact>
</mgrwt>
</event>
<event>
 4    1  0.4862093E-001  0.8577711E+02  0.7546771E-02  0.1313413E+00
         -3   -1    0    0    0  501 -0.00000000000E+00  0.00000000000E+00  0.19852025693E+02  0.19852025693E+02  0.00000000000E+00 0.  1.
          3   -1    0    0  501    0  0.00000000000E+00 -0.00000000000E+00 -0.51334447001E+03  0.51334447001E+03  0.00000000000E+00 0. -1.
         24    1    1    2    0    0 -0.47462005167E+00 -0.29837424366E+02 -0.10617702639E+03  0.13649642502E+03  0.80419002446E+02 0.  1.
        -24    1    1    2    0    0  0.47462005167E+00  0.29837424366E+02 -0.38731541793E+03  0.39670007068E+03  0.80419002446E+02 0.  1.
<mgrwt>
<rscale>  0 0.85777113E+02</rscale>
<asrwt>0</asrwt>
<pdfrwt beam="1">  1        3 0.78976072E-01 0.85777113E+02</pdfrwt>
<pdfrwt beam="2">  1       -3 0.30541578E-02 0.85777113E+02</pdfrwt>
<totfact> 0.16051404E+03</totfact>
</mgrwt>
</event>
<event>
 4    1  0.4862093E-001  0.8369533E+02  0.7546771E-02  0.1318880E+00
         -1   -1    0    0    0  501 -0.00000000000E+00  0.00000000000E+00  0.71871195052E+01  0.71871195052E+01  0.00000000000E+00 0.  1.
          1   -1    0    0  501    0  0.00000000000E+00 -0.00000000000E+00 -0.11543546401E+04  0.11543546401E+04  0.00000000000E+00 0. -1.
         24    1    1    2    0    0 -0.78607762322E+01 -0.21815153238E+02 -0.34443486401E+03  0.35445773262E+03  0.80419002446E+02 0.  1.
        -24    1    1    2    0    0  0.78607762322E+01  0.21815153238E+02 -0.80273265664E+03  0.80708402704E+03  0.80419002446E+02 0. -1.
<mgrwt>
<rscale>  0 0.83695332E+02</rscale>
<asrwt>0</asrwt>
<pdfrwt beam="1">  1        1 0.17759290E+00 0.83695332E+02</pdfrwt>
<pdfrwt beam="2">  1       -1 0.11057114E-02 0.83695332E+02</pdfrwt>
<totfact> 0.18496819E+04</totfact>
</mgrwt>
</event>
<event>
 4    1  0.4862093E-001  0.2095160E+03  0.7546771E-02  0.1141950E+00
         -2   -1    0    0    0  501 -0.00000000000E+00  0.00000000000E+00  0.81943034238E+03  0.81943034238E+03  0.00000000000E+00 0.  1.
          2   -1    0    0  501    0  0.00000000000E+00 -0.00000000000E+00 -0.63724800108E+02  0.63724800108E+02  0.00000000000E+00 0. -1.
         24    1    1    2    0    0 -0.67242028465E+02 -0.18140633754E+03  0.20157956252E+03  0.29074264509E+03  0.80419002446E+02 0.  1.
        -24    1    1    2    0    0  0.67242028465E+02  0.18140633754E+03  0.55412597974E+03  0.59241249740E+03  0.80419002446E+02 0. -1.
<mgrwt>
<rscale>  0 0.20951603E+03</rscale>
<asrwt>0</asrwt>
<pdfrwt beam="1">  1        2 0.98038160E-02 0.20951603E+03</pdfrwt>
<pdfrwt beam="2">  1       -2 0.12606620E+00 0.20951603E+03</pdfrwt>
<totfact> 0.32259348E+02</totfact>
</mgrwt>
</event>
<event>
 4    1  0.4862093E-001  0.1528369E+03  0.7546771E-02  0.1197030E+00
         -2   -1    0    0    0  501 -0.00000000000E+00  0.00000000000E+00  0.97007262088E+02  0.97007262088E+02  0.00000000000E+00 0.  1.
          2   -1    0    0  501    0  0.00000000000E+00 -0.00000000000E+00 -0.55631361794E+03  0.55631361794E+03  0.00000000000E+00 0. -1.
         24    1    1    2    0    0 -0.37075724108E+02 -0.12456847778E+03 -0.47566008258E+03  0.49961149415E+03  0.80419002446E+02 0. -1.
        -24    1    1    2    0    0  0.37075724108E+02  0.12456847778E+03  0.16353726723E+02  0.15370938588E+03  0.80419002446E+02 0.  1.
<mgrwt>
<rscale>  0 0.15283694E+03</rscale>
<asrwt>0</asrwt>
<pdfrwt beam="1">  1        2 0.85586709E-01 0.15283694E+03</pdfrwt>
<pdfrwt beam="2">  1       -2 0.14924194E-01 0.15283694E+03</pdfrwt>
<totfact> 0.18780972E+03</totfact>
</mgrwt>
</event>
<event>
 4    1  0.4862093E-001  0.8635237E+02  0.7546771E-02  0.1311933E+00
          2   -1    0    0  501    0  0.00000000000E+00  0.00000000000E+00  0.22461712966E+04  0.22461712966E+04  0.00000000000E+00 0. -1.
         -2   -1    0    0    0  501 -0.00000000000E+00 -0.00000000000E+00 -0.11292162495E+02  0.11292162495E+02  0.00000000000E+00 0.  1.
         24    1    1    2    0    0  0.31406739979E+02 -0.17698114875E+01  0.20658514832E+04  0.20676554554E+04  0.80419002446E+02 0. -1.
        -24    1    1    2    0    0 -0.31406739979E+02  0.17698114875E+01  0.16902765085E+03  0.18980800366E+03  0.80419002446E+02 0.  1.
<mgrwt>
<rscale>  0 0.86352368E+02</rscale>
<asrwt>0</asrwt>
<pdfrwt beam="1">  1        2 0.34556446E+00 0.86352368E+02</pdfrwt>
<pdfrwt beam="2">  1       -2 0.17372576E-02 0.86352368E+02</pdfrwt>
<totfact> 0.51837957E+03</totfact>
</mgrwt>
</event>
<event>
 4    1  0.4862093E-001  0.1184592E+03  0.7546771E-02  0.1245661E+00
          2   -1    0    0  501    0  0.00000000000E+00  0.00000000000E+00  0.17345020937E+04  0.17345020937E+04  0.00000000000E+00 0. -1.
         -2   -1    0    0    0  501 -0.00000000000E+00 -0.00000000000E+00 -0.20854785618E+02  0.20854785618E+02  0.00000000000E+00 0.  1.
         24    1    1    2    0    0  0.20581998456E+02 -0.84508808699E+02  0.15434728254E+04  0.15480119302E+04  0.80419002446E+02 0.  1.
        -24    1    1    2    0    0 -0.20581998456E+02  0.84508808699E+02  0.17017448273E+03  0.20734494914E+03  0.80419002446E+02 0.  0.
<mgrwt>
<rscale>  0 0.11845916E+03</rscale>
<asrwt>0</asrwt>
<pdfrwt beam="1">  1        2 0.26684636E+00 0.11845916E+03</pdfrwt>
<pdfrwt beam="2">  1       -2 0.32084299E-02 0.11845916E+03</pdfrwt>
<totfact> 0.38926930E+03</totfact>
</mgrwt>
</event>
<event>
 4    1  0.4862093E-001  0.9793740E+02  0.7546771E-02  0.1284694E+00
         -2   -1    0    0    0  501 -0.00000000000E+00  0.00000000000E+00  0.91710912112E+03  0.91710912112E+03  0.00000000000E+00 0.  1.
          2   -1    0    0  501    0  0.00000000000E+00 -0.00000000000E+00 -0.10465848288E+02  0.10465848288E+02  0.00000000000E+00 0. -1.
         24    1    1    2    0    0  0.21457769349E+02  0.51614745403E+02  0.44116811024E+03  0.45190821552E+03  0.80419002446E+02 0.  0.
        -24    1    1    2    0    0 -0.21457769349E+02 -0.51614745403E+02  0.46547516259E+03  0.47566675388E+03  0.80419002446E+02 0.  1.
<mgrwt>
<rscale>  0 0.97937397E+02</rscale>
<asrwt>0</asrwt>
<pdfrwt beam="1">  1        2 0.16101312E-02 0.97937397E+02</pdfrwt>
<pdfrwt beam="2">  1       -2 0.14109365E+00 0.97937397E+02</pdfrwt>
<totfact> 0.25454193E+03</totfact>
</mgrwt>
</event>
<event>
 4    1  0.4862093E-001  0.9497610E+02  0.7546771E-02  0.1291230E+00
         -1   -1    0    0    0  501 -0.00000000000E+00  0.00000000000E+00  0.62595974533E+01  0.62595974533E+01  0.00000000000E+00 0.  1.
          1   -1    0    0  501    0  0.00000000000E+00 -0.00000000000E+00 -0.15604968678E+04  0.15604968678E+04  0.00000000000E+00 0. -1.
         24    1    1    2    0    0 -0.18087404261E+02 -0.47181395064E+02 -0.99384394624E+03  0.99837179631E+03  0.80419002446E+02 0. -1.
        -24    1    1    2    0    0  0.18087404261E+02  0.47181395064E+02 -0.56039332410E+03  0.56838466894E+03  0.80419002446E+02 0.  1.
<mgrwt>
<rscale>  0 0.94976084E+02</rscale>
<asrwt>0</asrwt>
<pdfrwt beam="1">  1        1 0.24007627E+00 0.94976095E+02</pdfrwt>
<pdfrwt beam="2">  1       -1 0.96301569E-03 0.94976095E+02</pdfrwt>
<totfact> 0.12321973E+04</totfact>
</mgrwt>
</event>
<event>
 4    1  0.4862093E-001  0.9394478E+02  0.7546771E-02  0.1293571E+00
         -4   -1    0    0    0  501 -0.00000000000E+00  0.00000000000E+00  0.12654021999E+04  0.12654021999E+04  0.00000000000E+00 0.  1.
          4   -1    0    0  501    0  0.00000000000E+00 -0.00000000000E+00 -0.16634409061E+02  0.16634409061E+02  0.00000000000E+00 0. -1.
         24    1    1    2    0    0  0.46254860121E+02 -0.14795081919E+02  0.13589810848E+03  0.16520871156E+03  0.80419002446E+02 0. -1.
        -24    1    1    2    0    0 -0.46254860121E+02  0.14795081919E+02  0.11128696823E+04  0.11168278974E+04  0.80419002446E+02 0.  1.
<mgrwt>
<rscale>  0 0.93944784E+02</rscale>
<asrwt>0</asrwt>
<pdfrwt beam="1">  1        4 0.25591409E-02 0.93944784E+02</pdfrwt>
<pdfrwt beam="2">  1       -4 0.19467719E+00 0.93944784E+02</pdfrwt>
<totfact> 0.17211424E+02</totfact>
</mgrwt>
</event>
<event>
 4    1  0.4862093E-001  0.8267819E+02  0.7546771E-02  0.1321618E+00
          1   -1    0    0  501    0  0.00000000000E+00  0.00000000000E+00  0.34870124147E+03  0.34870124147E+03  0.00000000000E+00 0. -1.
         -1   -1    0    0    0  501 -0.00000000000E+00 -0.00000000000E+00 -0.52671634755E+02  0.52671634755E+02  0.00000000000E+00 0.  1.
         24    1    1    2    0    0 -0.80725696019E+01  0.17415554941E+02 -0.10999429713E+02  0.83406662457E+02  0.80419002446E+02 0.  1.
        -24    1    1    2    0    0  0.80725696019E+01 -0.17415554941E+02  0.30702903643E+03  0.31796621377E+03  0.80419002446E+02 0.  0.
<mgrwt>
<rscale>  0 0.82678195E+02</rscale>
<asrwt>0</asrwt>
<pdfrwt beam="1">  1        1 0.53646343E-01 0.82678195E+02</pdfrwt>
<pdfrwt beam="2">  1       -1 0.81033287E-02 0.82678195E+02</pdfrwt>
<totfact> 0.56549682E+03</totfact>
</mgrwt>
</event>
<event>
 4    1  0.4862093E-001  0.8098247E+02  0.7546771E-02  0.1326286E+00
         -2   -1    0    0    0  501 -0.00000000000E+00  0.00000000000E+00  0.16338932087E+03  0.16338932087E+03  0.00000000000E+00 0.  1.
          2   -1    0    0  501    0  0.00000000000E+00 -0.00000000000E+00 -0.28817791566E+03  0.28817791566E+03  0.00000000000E+00 0. -1.
         24    1    1    2    0    0 -0.71180769012E+01  0.63464375284E+01 -0.27186469422E+03  0.28366982957E+03  0.80419002446E+02 0. -1.
        -24    1    1    2    0    0  0.71180769012E+01 -0.63464375284E+01  0.14707609943E+03  0.16789740697E+03  0.80419002446E+02 0.  1.
<mgrwt>
<rscale>  0 0.80982469E+02</rscale>
<asrwt>0</asrwt>
<pdfrwt beam="1">  1        2 0.44335063E-01 0.80982469E+02</pdfrwt>
<pdfrwt beam="2">  1       -2 0.25136819E-01 0.80982469E+02</pdfrwt>
<totfact> 0.15485553E+03</totfact>
</mgrwt>
</event>
<event>
 4    1  0.4862093E-001  0.1128915E+03  0.7546771E-02  0.1255307E+00
          2   -1    0    0  501    0  0.00000000000E+00  0.00000000000E+00  0.21003117827E+04  0.21003117827E+04  0.00000000000E+00 0. -1.
         -2   -1    0    0    0  501 -0.00000000000E+00 -0.00000000000E+00 -0.60762979461E+01  0.60762979461E+01  0.00000000000E+00 0.  1.
         24    1    1    2    0    0  0.30338480440E+02 -0.73190479466E+02  0.10079679909E+04  0.10142701594E+04  0.80419002446E+02 0.  1.
        -24    1    1    2    0    0 -0.30338480440E+02  0.73190479466E+02  0.10862674938E+04  0.10921179212E+04  0.80419002446E+02 0. -1.
<mgrwt>
<rscale>  0 0.11289149E+03</rscale>
<asrwt>0</asrwt>
<pdfrwt beam="1">  1        2 0.32312431E+00 0.11289151E+03</pdfrwt>
<pdfrwt beam="2">  1       -2 0.93481675E-03 0.11289151E+03</pdfrwt>
<totfact> 0.15002868E+04</totfact>
</mgrwt>
</event>
<event>
 4    1  0.4862093E-001  0.9313306E+02  0.7546771E-02  0.1295437E+00
         -4   -1    0    0    0  501 -0.00000000000E+00  0.00000000000E+00  0.16400525234E+02  0.16400525234E+02  0.00000000000E+00 0.  1.
          4   -1    0    0  501    0  0.00000000000E+00 -0.00000000000E+00 -0.75065830255E+03  0.75065830255E+03  0.00000000000E+00 0. -1.
         24    1    1    2    0    0 -0.19394475890E+02  0.42783225410E+02 -0.57559988426E+03  0.58308575080E+03  0.80419002446E+02 0. -1.
        -24    1    1    2    0    0  0.19394475890E+02 -0.42783225410E+02 -0.15865789305E+03  0.18397307698E+03  0.80419002446E+02 0. -1.
<mgrwt>
<rscale>  0 0.93133055E+02</rscale>
<asrwt>0</asrwt>
<pdfrwt beam="1">  1        4 0.11548588E+00 0.93133055E+02</pdfrwt>
<pdfrwt beam="2">  1       -4 0.25231581E-02 0.93133055E+02</pdfrwt>
<totfact> 0.65965553E+02</totfact>
</mgrwt>
</event>
<event>
 4    1  0.4862093E-001  0.1317618E+03  0.7546771E-02  0.1224865E+00
         -1   -1    0    0    0  501 -0.00000000000E+00  0.00000000000E+00  0.57199396712E+02  0.57199396712E+02  0.00000000000E+00 0.  1.
          1   -1    0    0  501    0  0.00000000000E+00 -0.00000000000E+00 -0.30963200158E+03  0.30963200158E+03  0.00000000000E+00 0. -1.
         24    1    1    2    0    0  0.35409344525E+02  0.98184211643E+02 -0.10044743823E+03  0.16568302537E+03  0.80419002446E+02 0.  1.
        -24    1    1    2    0    0 -0.35409344525E+02 -0.98184211643E+02 -0.15198516665E+03  0.20114837292E+03  0.80419002446E+02 0.  0.
<mgrwt>
<rscale>  0 0.13176182E+03</rscale>
<asrwt>0</asrwt>
<pdfrwt beam="1">  1        1 0.47635692E-01 0.13176182E+03</pdfrwt>
<pdfrwt beam="2">  1       -1 0.87999073E-02 0.13176182E+03</pdfrwt>
<totfact> 0.59681630E+03</totfact>
</mgrwt>
</event>
<event>
 4    1  0.4862093E-001  0.8459256E+02  0.7546771E-02  0.1316501E+00
         -3   -1    0    0    0  501 -0.00000000000E+00  0.00000000000E+00  0.25817231274E+02  0.25817231274E+02  0.00000000000E+00 0.  1.
          3   -1    0    0  501    0  0.00000000000E+00 -0.00000000000E+00 -0.37159647734E+03  0.37159647734E+03  0.00000000000E+00 0. -1.
         24    1    1    2    0    0 -0.54477617767E+01 -0.25671133094E+02 -0.72725647466E+02  0.11155680587E+03  0.80419002446E+02 0.  0.
        -24    1    1    2    0    0  0.54477617767E+01  0.25671133094E+02 -0.27305359860E+03  0.28585690274E+03  0.80419002446E+02 0.  1.
<mgrwt>
<rscale>  0 0.84592560E+02</rscale>
<asrwt>0</asrwt>
<pdfrwt beam="1">  1        3 0.57168687E-01 0.84592560E+02</pdfrwt>
<pdfrwt beam="2">  1       -3 0.39718819E-02 0.84592560E+02</pdfrwt>
<totfact> 0.20907989E+03</totfact>
</mgrwt>
</event>
<event>
 4    1  0.4862093E-001  0.8605585E+02  0.7546771E-02  0.1312694E+00
         -2   -1    0    0    0  501 -0.00000000000E+00  0.00000000000E+00  0.30944852890E+03  0.30944852890E+03  0.00000000000E+00 0.  1.
          2   -1    0    0  501    0  0.00000000000E+00 -0.00000000000E+00 -0.28575949887E+02  0.28575949887E+02  0.00000000000E+00 0. -1.
         24    1    1    2    0    0  0.37171416715E+01  0.30406844332E+02  0.72299974519E+02  0.11239615471E+03  0.80419002446E+02 0.  1.
        -24    1    1    2    0    0 -0.37171416715E+01 -0.30406844332E+02  0.20857260449E+03  0.22562832407E+03  0.80419002446E+02 0.  1.
<mgrwt>
<rscale>  0 0.86055850E+02</rscale>
<asrwt>0</asrwt>
<pdfrwt beam="1">  1        2 0.43963002E-02 0.86055850E+02</pdfrwt>
<pdfrwt beam="2">  1       -2 0.47607464E-01 0.86055850E+02</pdfrwt>
<totfact> 0.71340945E+03</totfact>
</mgrwt>
</event>
<event>
 4    1  0.4862093E-001  0.9112109E+02  0.7546771E-02  0.1300159E+00
          2   -1    0    0  501    0  0.00000000000E+00  0.00000000000E+00  0.13529038711E+03  0.13529038711E+03  0.00000000000E+00 0. -1.
         -2   -1    0    0    0  501 -0.00000000000E+00 -0.00000000000E+00 -0.61650425646E+02  0.61650425646E+02  0.00000000000E+00 0.  1.
         24    1    1    2    0    0  0.32179355159E+02 -0.28290036208E+02  0.43436457476E+02  0.10094443442E+03  0.80419002446E+02 0. -1.
        -24    1    1    2    0    0 -0.32179355159E+02  0.28290036208E+02  0.30203503989E+02  0.95996378342E+02  0.80419002446E+02 0.  1.
<mgrwt>
<rscale>  0 0.91121090E+02</rscale>
<asrwt>0</asrwt>
<pdfrwt beam="1">  1        2 0.20813906E-01 0.91121090E+02</pdfrwt>
<pdfrwt beam="2">  1       -2 0.94846809E-02 0.91121090E+02</pdfrwt>
<totfact> 0.17117641E+04</totfact>
</mgrwt>
</event>
<event>
 4    1  0.4862093E-001  0.9157175E+02  0.7546771E-02  0.1299090E+00
          2   -1    0    0  501    0  0.00000000000E+00  0.00000000000E+00  0.21446751391E+04  0.21446751391E+04  0.00000000000E+00 0. -1.
         -2   -1    0    0    0  501 -0.00000000000E+00 -0.00000000000E+00 -0.41853947734E+01  0.41853947734E+01  0.00000000000E+00 0.  1.
         24    1    1    2    0    0 -0.41264265355E+02  0.14677368470E+02  0.79456960531E+03  0.79982888069E+03  0.80419002446E+02 0.  1.
        -24    1    1    2    0    0  0.41264265355E+02 -0.14677368470E+02  0.13459201391E+04  0.13490316532E+04  0.80419002446E+02 0. -1.
<mgrwt>
<rscale>  0 0.91571736E+02</rscale>
<asrwt>0</asrwt>
<pdfrwt beam="1">  1        2 0.32994914E+00 0.91571747E+02</pdfrwt>
<pdfrwt beam="2">  1       -2 0.64390860E-03 0.91571747E+02</pdfrwt>
<totfact> 0.23866878E+04</totfact>
</mgrwt>
</event>
<event>
 4    1  0.4862093E-001  0.9967483E+02  0.7546771E-02  0.1280981E+00
          1   -1    0    0  501    0  0.00000000000E+00  0.00000000000E+00  0.30559829747E+03  0.30559829747E+03  0.00000000000E+00 0. -1.
         -1   -1    0    0    0  501 -0.00000000000E+00 -0.00000000000E+00 -0.61135113410E+02  0.61135113410E+02  0.00000000000E+00 0.  1.
         24    1    1    2    0    0 -0.25497748209E+02 -0.53082208505E+02 -0.32404477739E+01  0.99727491093E+02  0.80419002446E+02 0.  1.
        -24    1    1    2    0    0  0.25497748209E+02  0.53082208505E+02  0.24770363183E+03  0.26700591978E+03  0.80419002446E+02 0. -1.
<mgrwt>
<rscale>  0 0.99674831E+02</rscale>
<asrwt>0</asrwt>
<pdfrwt beam="1">  1        1 0.47015122E-01 0.99674831E+02</pdfrwt>
<pdfrwt beam="2">  1       -1 0.94054023E-02 0.99674831E+02</pdfrwt>
<totfact> 0.53864595E+03</totfact>
</mgrwt>
</event>
<event>
 4    1  0.4862093E-001  0.9200369E+02  0.7546771E-02  0.1298071E+00
         -2   -1    0    0    0  501 -0.00000000000E+00  0.00000000000E+00  0.56303888777E+01  0.56303888777E+01  0.00000000000E+00 0.  1.
          2   -1    0    0  501    0  0.00000000000E+00 -0.00000000000E+00 -0.15033992940E+04  0.15033992940E+04  0.00000000000E+00 0. -1.
         24    1    1    2    0    0  0.43155066166E+01 -0.44484108325E+02 -0.74710241491E+03  0.75274610182E+03  0.80419002446E+02 0. -1.
        -24    1    1    2    0    0 -0.43155066166E+01  0.44484108325E+02 -0.75066649018E+03  0.75628358102E+03  0.80419002446E+02 0.  1.
<mgrwt>
<rscale>  0 0.92003682E+02</rscale>
<asrwt>0</asrwt>
<pdfrwt beam="1">  1        2 0.23129240E+00 0.92003694E+02</pdfrwt>
<pdfrwt beam="2">  1       -2 0.86621294E-03 0.92003694E+02</pdfrwt>
<totfact> 0.33081056E+04</totfact>
</mgrwt>
</event>
<event>
 4    1  0.4862093E-001  0.8066952E+02  0.7546771E-02  0.1327162E+00
          2   -1    0    0  501    0  0.00000000000E+00  0.00000000000E+00  0.36067627897E+04  0.36067627897E+04  0.00000000000E+00 0. -1.
         -2   -1    0    0    0  501 -0.00000000000E+00 -0.00000000000E+00 -0.39839211049E+01  0.39839211049E+01  0.00000000000E+00 0.  1.
         24    1    1    2    0    0  0.26179038146E+01 -0.57880347428E+01  0.31367705881E+04  0.31378077208E+04  0.80419002446E+02 0. -1.
        -24    1    1    2    0    0 -0.26179038146E+01  0.57880347428E+01  0.46600828057E+03  0.47293899002E+03  0.80419002446E+02 0.  1.
<mgrwt>
<rscale>  0 0.80669515E+02</rscale>
<asrwt>0</asrwt>
<pdfrwt beam="1">  1        2 0.55488397E+00 0.80669515E+02</pdfrwt>
<pdfrwt beam="2">  1       -2 0.61291382E-03 0.80669515E+02</pdfrwt>
<totfact> 0.38301296E+03</totfact>
</mgrwt>
</event>
<event>
 4    1  0.4862093E-001  0.8534649E+02  0.7546771E-02  0.1314529E+00
          2   -1    0    0  501    0  0.00000000000E+00  0.00000000000E+00  0.38918572973E+03  0.38918572973E+03  0.00000000000E+00 0. -1.
         -2   -1    0    0    0  501 -0.00000000000E+00 -0.00000000000E+00 -0.19292185165E+02  0.19292185165E+02  0.00000000000E+00 0.  1.
         24    1    1    2    0    0  0.93971168228E+01  0.26990756985E+02  0.22024127120E+03  0.23619957718E+03  0.80419002446E+02 0.  1.
        -24    1    1    2    0    0 -0.93971168228E+01 -0.26990756985E+02  0.14965227336E+03  0.17227833771E+03  0.80419002446E+02 0. -1.
<mgrwt>
<rscale>  0 0.85346486E+02</rscale>
<asrwt>0</asrwt>
<pdfrwt beam="1">  1        2 0.59874721E-01 0.85346486E+02</pdfrwt>
<pdfrwt beam="2">  1       -2 0.29680288E-02 0.85346486E+02</pdfrwt>
<totfact> 0.31277731E+04</totfact>
</mgrwt>
</event>
<event>
 4    1  0.4862093E-001  0.9089947E+02  0.7546771E-02  0.1300688E+00
         -1   -1    0    0    0  501 -0.00000000000E+00  0.00000000000E+00  0.59340178520E+01  0.59340178520E+01  0.00000000000E+00 0.  1.
          1   -1    0    0  501    0  0.00000000000E+00 -0.00000000000E+00 -0.13979948855E+04  0.13979948855E+04  0.00000000000E+00 0. -1.
         24    1    1    2    0    0  0.98085116578E+01  0.41222456979E+02 -0.65174824912E+03  0.65805660398E+03  0.80419002446E+02 0.  1.
        -24    1    1    2    0    0 -0.98085116578E+01 -0.41222456979E+02 -0.74031261858E+03  0.74587229942E+03  0.80419002446E+02 0. -1.
<mgrwt>
<rscale>  0 0.90899471E+02</rscale>
<asrwt>0</asrwt>
<pdfrwt beam="1">  1        1 0.21507640E+00 0.90899471E+02</pdfrwt>
<pdfrwt beam="2">  1       -1 0.91292470E-03 0.90899471E+02</pdfrwt>
<totfact> 0.16833515E+04</totfact>
</mgrwt>
</event>
<event>
 4    1  0.4862093E-001  0.1224768E+03  0.7546771E-02  0.1239066E+00
         -1   -1    0    0    0  501 -0.00000000000E+00  0.00000000000E+00  0.62717397950E+03  0.62717397950E+03  0.00000000000E+00 0.  1.
          1   -1    0    0  501    0  0.00000000000E+00 -0.00000000000E+00 -0.30141269588E+02  0.30141269588E+02  0.00000000000E+00 0. -1.
         24    1    1    2    0    0 -0.72253323597E+02  0.57556994142E+02  0.44785847598E+03  0.46430354382E+03  0.80419002446E+02 0. -1.
        -24    1    1    2    0    0  0.72253323597E+02 -0.57556994142E+02  0.14917423393E+03  0.19301170526E+03  0.80419002446E+02 0.  1.
<mgrwt>
<rscale>  0 0.12247680E+03</rscale>
<asrwt>0</asrwt>
<pdfrwt beam="1">  1        1 0.46371189E-02 0.12247680E+03</pdfrwt>
<pdfrwt beam="2">  1       -1 0.96488295E-01 0.12247680E+03</pdfrwt>
<totfact> 0.19504324E+03</totfact>
</mgrwt>
</event>
<event>
 4    1  0.4862093E-001  0.8576005E+02  0.7546771E-02  0.1313457E+00
         -2   -1    0    0    0  501 -0.00000000000E+00  0.00000000000E+00  0.11514820724E+03  0.11514820724E+03  0.00000000000E+00 0.  1.
          2   -1    0    0  501    0  0.00000000000E+00 -0.00000000000E+00 -0.10365805632E+04  0.10365805632E+04  0.00000000000E+00 0. -1.
         24    1    1    2    0    0 -0.29785535904E+02  0.62669373200E+00 -0.10185565996E+04  0.10221606202E+04  0.80419002446E+02 0. -1.
        -24    1    1    2    0    0  0.29785535904E+02 -0.62669373200E+00  0.97124243662E+02  0.12956815024E+03  0.80419002446E+02 0.  1.
<mgrwt>
<rscale>  0 0.85760054E+02</rscale>
<asrwt>0</asrwt>
<pdfrwt beam="1">  1        2 0.15947394E+00 0.85760054E+02</pdfrwt>
<pdfrwt beam="2">  1       -2 0.17715108E-01 0.85760054E+02</pdfrwt>
<totfact> 0.65840585E+02</totfact>
</mgrwt>
</event>
<event>
 4    1  0.4862093E-001  0.8401483E+02  0.7546771E-02  0.1318029E+00
          2   -1    0    0  501    0  0.00000000000E+00  0.00000000000E+00  0.23051936398E+04  0.23051936398E+04  0.00000000000E+00 0. -1.
         -2   -1    0    0    0  501 -0.00000000000E+00 -0.00000000000E+00 -0.50666724807E+01  0.50666724807E+01  0.00000000000E+00 0.  1.
         24    1    1    2    0    0 -0.11863954935E+02  0.21225491858E+02  0.18766574482E+04  0.18785371087E+04  0.80419002446E+02 0. -1.
        -24    1    1    2    0    0  0.11863954935E+02 -0.21225491858E+02  0.42346951915E+03  0.43172320361E+03  0.80419002446E+02 0.  1.
<mgrwt>
<rscale>  0 0.84014825E+02</rscale>
<asrwt>0</asrwt>
<pdfrwt beam="1">  1        2 0.35464434E+00 0.84014825E+02</pdfrwt>
<pdfrwt beam="2">  1       -2 0.77948991E-03 0.84014825E+02</pdfrwt>
<totfact> 0.15044381E+04</totfact>
</mgrwt>
</event>
<event>
 4    1  0.4862093E-001  0.8115262E+02  0.7546771E-02  0.1325812E+00
         -2   -1    0    0    0  501 -0.00000000000E+00  0.00000000000E+00  0.20692298184E+02  0.20692298184E+02  0.00000000000E+00 0.  1.
          2   -1    0    0  501    0  0.00000000000E+00 -0.00000000000E+00 -0.31830569209E+03  0.31830569209E+03  0.00000000000E+00 0. -1.
         24    1    1    2    0    0  0.57516002034E+01  0.92439523161E+01 -0.15058964650E+03  0.17106428367E+03  0.80419002446E+02 0.  1.
        -24    1    1    2    0    0 -0.57516002034E+01 -0.92439523161E+01 -0.14702374741E+03  0.16793370661E+03  0.80419002446E+02 0. -1.
<mgrwt>
<rscale>  0 0.81152619E+02</rscale>
<asrwt>0</asrwt>
<pdfrwt beam="1">  1        2 0.48970105E-01 0.81152619E+02</pdfrwt>
<pdfrwt beam="2">  1       -2 0.31834306E-02 0.81152619E+02</pdfrwt>
<totfact> 0.34639071E+04</totfact>
</mgrwt>
</event>
<event>
 4    1  0.4862093E-001  0.1032994E+03  0.7546771E-02  0.1273507E+00
          4   -1    0    0  501    0  0.00000000000E+00  0.00000000000E+00  0.70489117918E+02  0.70489117918E+02  0.00000000000E+00 0. -1.
         -4   -1    0    0    0  501 -0.00000000000E+00 -0.00000000000E+00 -0.30097608064E+03  0.30097608064E+03  0.00000000000E+00 0.  1.
         24    1    1    2    0    0 -0.59835361203E+02 -0.24965747571E+02  0.15698687149E+02  0.10448551926E+03  0.80419002446E+02 0. -1.
        -24    1    1    2    0    0  0.59835361203E+02  0.24965747571E+02 -0.24618564987E+03  0.26697967930E+03  0.80419002446E+02 0.  1.
<mgrwt>
<rscale>  0 0.10329944E+03</rscale>
<asrwt>0</asrwt>
<pdfrwt beam="1">  1        4 0.10844480E-01 0.10329944E+03</pdfrwt>
<pdfrwt beam="2">  1       -4 0.46304013E-01 0.10329944E+03</pdfrwt>
<totfact> 0.47037000E+02</totfact>
</mgrwt>
</event>
<event>
 4    1  0.4862093E-001  0.1124834E+03  0.7546771E-02  0.1256039E+00
         -1   -1    0    0    0  501 -0.00000000000E+00  0.00000000000E+00  0.20181752700E+03  0.20181752700E+03  0.00000000000E+00 0.  1.
          1   -1    0    0  501    0  0.00000000000E+00 -0.00000000000E+00 -0.67245491827E+02  0.67245491827E+02  0.00000000000E+00 0. -1.
         24    1    1    2    0    0 -0.68052121097E+01  0.78351690695E+02  0.32281462750E+02  0.11702395968E+03  0.80419002446E+02 0.  1.
        -24    1    1    2    0    0  0.68052121097E+01 -0.78351690695E+02  0.10229057243E+03  0.15203905915E+03  0.80419002446E+02 0. -1.
<mgrwt>
<rscale>  0 0.11248341E+03</rscale>
<asrwt>0</asrwt>
<pdfrwt beam="1">  1        1 0.10345460E-01 0.11248342E+03</pdfrwt>
<pdfrwt beam="2">  1       -1 0.31048850E-01 0.11248342E+03</pdfrwt>
<totfact> 0.55411094E+03</totfact>
</mgrwt>
</event>
<event>
 4    1  0.4862093E-001  0.8066390E+02  0.7546771E-02  0.1327178E+00
         -1   -1    0    0    0  501 -0.00000000000E+00  0.00000000000E+00  0.74355048427E+02  0.74355048427E+02  0.00000000000E+00 0.  1.
          1   -1    0    0  501    0  0.00000000000E+00 -0.00000000000E+00 -0.91599324887E+02  0.91599324887E+02  0.00000000000E+00 0. -1.
         24    1    1    2    0    0  0.26356888774E+01 -0.57011004688E+01  0.89143188202E+01  0.81154977893E+02  0.80419002446E+02 0.  1.
        -24    1    1    2    0    0 -0.26356888774E+01  0.57011004688E+01 -0.26158595280E+02  0.84799395421E+02  0.80419002446E+02 0. -1.
<mgrwt>
<rscale>  0 0.80663904E+02</rscale>
<asrwt>0</asrwt>
<pdfrwt beam="1">  1        1 0.14092204E-01 0.80663904E+02</pdfrwt>
<pdfrwt beam="2">  1       -1 0.11439238E-01 0.80663904E+02</pdfrwt>
<totfact> 0.17542603E+04</totfact>
</mgrwt>
</event>
<event>
 4    1  0.4862093E-001  0.9288443E+02  0.7546771E-02  0.1296013E+00
         -4   -1    0    0    0  501 -0.00000000000E+00  0.00000000000E+00  0.40108920094E+03  0.40108920094E+03  0.00000000000E+00 0.  1.
          4   -1    0    0  501    0  0.00000000000E+00 -0.00000000000E+00 -0.53286481481E+02  0.53286481481E+02  0.00000000000E+00 0. -1.
         24    1    1    2    0    0  0.43893820730E+02 -0.15285092107E+02 -0.15383715833E+01  0.92897169389E+02  0.80419002446E+02 0. -1.
        -24    1    1    2    0    0 -0.43893820730E+02  0.15285092107E+02  0.34934109104E+03  0.36147851303E+03  0.80419002446E+02 0.  1.
<mgrwt>
<rscale>  0 0.92884431E+02</rscale>
<asrwt>0</asrwt>
<pdfrwt beam="1">  1        4 0.81979205E-02 0.92884431E+02</pdfrwt>
<pdfrwt beam="2">  1       -4 0.61706029E-01 0.92884431E+02</pdfrwt>
<totfact> 0.40702788E+02</totfact>
</mgrwt>
</event>
<event>
 4    1  0.4862093E-001  0.1088788E+03  0.7546771E-02  0.1262660E+00
         -1   -1    0    0    0  501 -0.00000000000E+00  0.00000000000E+00  0.80503449912E+02  0.80503449912E+02  0.00000000000E+00 0.  1.
          1   -1    0    0  501    0  0.00000000000E+00 -0.00000000000E+00 -0.19207062558E+03  0.19207062558E+03  0.00000000000E+00 0. -1.
         24    1    1    2    0    0 -0.65404261155E+02  0.33311615450E+02  0.10048117327E+02  0.10934149129E+03  0.80419002446E+02 0.  1.
        -24    1    1    2    0    0  0.65404261155E+02 -0.33311615450E+02 -0.12161529300E+03  0.16323258420E+03  0.80419002446E+02 0. -1.
<mgrwt>
<rscale>  0 0.10887882E+03</rscale>
<asrwt>0</asrwt>
<pdfrwt beam="1">  1        1 0.29549327E-01 0.10887882E+03</pdfrwt>
<pdfrwt beam="2">  1       -1 0.12385146E-01 0.10887882E+03</pdfrwt>
<totfact> 0.63047375E+03</totfact>
</mgrwt>
</event>
<event>
 4    1  0.4862093E-001  0.8069776E+02  0.7546771E-02  0.1327083E+00
          1   -1    0    0  501    0  0.00000000000E+00  0.00000000000E+00  0.59027145391E+03  0.59027145391E+03  0.00000000000E+00 0. -1.
         -1   -1    0    0    0  501 -0.00000000000E+00 -0.00000000000E+00 -0.16646471511E+02  0.16646471511E+02  0.00000000000E+00 0.  1.
         24    1    1    2    0    0 -0.50809889414E+01  0.43698129868E+01  0.11058375081E+03  0.13689738351E+03  0.80419002446E+02 0.  1.
        -24    1    1    2    0    0  0.50809889414E+01 -0.43698129868E+01  0.46304123159E+03  0.47002054191E+03  0.80419002446E+02 0.  0.
<mgrwt>
<rscale>  0 0.80697755E+02</rscale>
<asrwt>0</asrwt>
<pdfrwt beam="1">  1        1 0.90810977E-01 0.80697755E+02</pdfrwt>
<pdfrwt beam="2">  1       -1 0.25609961E-02 0.80697755E+02</pdfrwt>
<totfact> 0.15519522E+04</totfact>
</mgrwt>
</event>
<event>
 4    1  0.4862093E-001  0.1039336E+03  0.7546771E-02  0.1272235E+00
         -1   -1    0    0    0  501 -0.00000000000E+00  0.00000000000E+00  0.14610583148E+03  0.14610583148E+03  0.00000000000E+00 0.  1.
          1   -1    0    0  501    0  0.00000000000E+00 -0.00000000000E+00 -0.87950829406E+02  0.87950829406E+02  0.00000000000E+00 0. -1.
         24    1    1    2    0    0  0.59219696254E+02 -0.28775067532E+02  0.75796709129E+02  0.12863644120E+03  0.80419002446E+02 0. -1.
        -24    1    1    2    0    0 -0.59219696254E+02  0.28775067532E+02 -0.17641707057E+02  0.10542021968E+03  0.80419002446E+02 0.  1.
<mgrwt>
<rscale>  0 0.10393360E+03</rscale>
<asrwt>0</asrwt>
<pdfrwt beam="1">  1        1 0.13530897E-01 0.10393360E+03</pdfrwt>
<pdfrwt beam="2">  1       -1 0.22477820E-01 0.10393360E+03</pdfrwt>
<totfact> 0.66008517E+03</totfact>
</mgrwt>
</event>
<event>
 4    1  0.4862093E-001  0.8205693E+02  0.7546771E-02  0.1323313E+00
          2   -1    0    0  501    0  0.00000000000E+00  0.00000000000E+00  0.90439184735E+03  0.90439184735E+03  0.00000000000E+00 0. -1.
         -2   -1    0    0    0  501 -0.00000000000E+00 -0.00000000000E+00 -0.84036033749E+01  0.84036033749E+01  0.00000000000E+00 0.  1.
         24    1    1    2    0    0 -0.11002864604E+02 -0.12044129236E+02  0.60212669277E+03  0.60769226931E+03  0.80419002446E+02 0. -1.
        -24    1    1    2    0    0  0.11002864604E+02  0.12044129236E+02  0.29386155121E+03  0.30510318142E+03  0.80419002446E+02 0.  1.
<mgrwt>
<rscale>  0 0.82056932E+02</rscale>
<asrwt>0</asrwt>
<pdfrwt beam="1">  1        2 0.13913713E+00 0.82056932E+02</pdfrwt>
<pdfrwt beam="2">  1       -2 0.12928628E-02 0.82056932E+02</pdfrwt>
<totfact> 0.39531752E+04</totfact>
</mgrwt>
</event>
<event>
 4    1  0.4862093E-001  0.8399319E+02  0.7546771E-02  0.1318087E+00
          1   -1    0    0  501    0  0.00000000000E+00  0.00000000000E+00  0.54635739030E+03  0.54635739030E+03  0.00000000000E+00 0. -1.
         -1   -1    0    0    0  501 -0.00000000000E+00 -0.00000000000E+00 -0.14234937164E+02  0.14234937164E+02  0.00000000000E+00 0.  1.
         24    1    1    2    0    0  0.12413842648E+02 -0.20821543393E+02  0.18062894649E+03  0.19920259141E+03  0.80419002446E+02 0.  1.
        -24    1    1    2    0    0 -0.12413842648E+02  0.20821543393E+02  0.35149350664E+03  0.36138973605E+03  0.80419002446E+02 0.  1.
<mgrwt>
<rscale>  0 0.83993191E+02</rscale>
<asrwt>0</asrwt>
<pdfrwt beam="1">  1        1 0.84054967E-01 0.83993191E+02</pdfrwt>
<pdfrwt beam="2">  1       -1 0.21899908E-02 0.83993191E+02</pdfrwt>
<totfact> 0.21569939E+04</totfact>
</mgrwt>
</event>
<event>
 4    1  0.4862093E-001  0.8326291E+02  0.7546771E-02  0.1320039E+00
         -2   -1    0    0    0  501 -0.00000000000E+00  0.00000000000E+00  0.12471275659E+03  0.12471275659E+03  0.00000000000E+00 0.  1.
          2   -1    0    0  501    0  0.00000000000E+00 -0.00000000000E+00 -0.28259798285E+03  0.28259798285E+03  0.00000000000E+00 0. -1.
         24    1    1    2    0    0  0.32748019576E+01  0.21325381742E+02 -0.26147184999E+03  0.27440889294E+03  0.80419002446E+02 0. -1.
        -24    1    1    2    0    0 -0.32748019576E+01 -0.21325381742E+02  0.10358662373E+03  0.13290184651E+03  0.80419002446E+02 0.  1.
<mgrwt>
<rscale>  0 0.83262910E+02</rscale>
<asrwt>0</asrwt>
<pdfrwt beam="1">  1        2 0.43476612E-01 0.83262910E+02</pdfrwt>
<pdfrwt beam="2">  1       -2 0.19186578E-01 0.83262910E+02</pdfrwt>
<totfact> 0.25006851E+03</totfact>
</mgrwt>
</event>
<event>
 4    1  0.4862093E-001  0.9788692E+02  0.7546771E-02  0.1284803E+00
          2   -1    0    0  501    0  0.00000000000E+00  0.00000000000E+00  0.37347231499E+03  0.37347231499E+03  0.00000000000E+00 0. -1.
         -2   -1    0    0    0  501 -0.00000000000E+00 -0.00000000000E+00 -0.87552870576E+02  0.87552870576E+02  0.00000000000E+00 0.  1.
         24    1    1    2    0    0 -0.55510895658E+02 -0.57596802836E+01  0.33677740474E+03  0.35071479831E+03  0.80419002446E+02 0. -1.
        -24    1    1    2    0    0  0.55510895658E+02  0.57596802836E+01 -0.50857960328E+02  0.11031038726E+03  0.80419002446E+02 0.  1.
<mgrwt>
<rscale>  0 0.97886922E+02</rscale>
<asrwt>0</asrwt>
<pdfrwt beam="1">  1        2 0.57457278E-01 0.97886922E+02</pdfrwt>
<pdfrwt beam="2">  1       -2 0.13469673E-01 0.97886922E+02</pdfrwt>
<totfact> 0.33551738E+03</totfact>
</mgrwt>
</event>
<event>
 4    1  0.4862093E-001  0.1347233E+03  0.7546771E-02  0.1220611E+00
         -1   -1    0    0    0  501 -0.00000000000E+00  0.00000000000E+00  0.19926382675E+03  0.19926382675E+03  0.00000000000E+00 0.  1.
          1   -1    0    0  501    0  0.00000000000E+00 -0.00000000000E+00 -0.20673407783E+03  0.20673407783E+03  0.00000000000E+00 0. -1.
         24    1    1    2    0    0 -0.51339012065E+02 -0.95118084847E+02  0.14809394798E+03  0.20020533861E+03  0.80419002446E+02 0.  1.
        -24    1    1    2    0    0  0.51339012065E+02  0.95118084847E+02 -0.15556419906E+03  0.20579256597E+03  0.80419002446E+02 0. -1.
<mgrwt>
<rscale>  0 0.13472327E+03</rscale>
<asrwt>0</asrwt>
<pdfrwt beam="1">  1        1 0.31805243E-01 0.13472327E+03</pdfrwt>
<pdfrwt beam="2">  1       -1 0.30655973E-01 0.13472327E+03</pdfrwt>
<totfact> 0.13624723E+03</totfact>
</mgrwt>
</event>
<event>
 4    1  0.4862093E-001  0.8238214E+02  0.7546771E-02  0.1322424E+00
         -2   -1    0    0    0  501 -0.00000000000E+00  0.00000000000E+00  0.82434304041E+02  0.82434304041E+02  0.00000000000E+00 0.  1.
          2   -1    0    0  501    0  0.00000000000E+00 -0.00000000000E+00 -0.54946810564E+03  0.54946810564E+03  0.00000000000E+00 0. -1.
         24    1    1    2    0    0 -0.17877384666E+02 -0.16515659310E-01 -0.52483764745E+03  0.53126393939E+03  0.80419002446E+02 0. -1.
        -24    1    1    2    0    0  0.17877384666E+02  0.16515659310E-01  0.57803845847E+02  0.10063847030E+03  0.80419002446E+02 0.  1.
<mgrwt>
<rscale>  0 0.82382141E+02</rscale>
<asrwt>0</asrwt>
<pdfrwt beam="1">  1        2 0.84533554E-01 0.82382141E+02</pdfrwt>
<pdfrwt beam="2">  1       -2 0.12682201E-01 0.82382141E+02</pdfrwt>
<totfact> 0.24253518E+03</totfact>
</mgrwt>
</event>
<event>
 4    1  0.4862093E-001  0.8469267E+02  0.7546771E-02  0.1316238E+00
         -1   -1    0    0    0  501 -0.00000000000E+00  0.00000000000E+00  0.64668385071E+02  0.64668385071E+02  0.00000000000E+00 0.  1.
          1   -1    0    0  501    0  0.00000000000E+00 -0.00000000000E+00 -0.20464105370E+04  0.20464105370E+04  0.00000000000E+00 0. -1.
         24    1    1    2    0    0  0.24552601504E+02  0.10139138315E+02  0.35664278987E+02  0.91895533713E+02  0.80419002446E+02 0.  1.
        -24    1    1    2    0    0 -0.24552601504E+02 -0.10139138315E+02 -0.20174064309E+04  0.20191833884E+04  0.80419002446E+02 0. -1.
<mgrwt>
<rscale>  0 0.84692670E+02</rscale>
<asrwt>0</asrwt>
<pdfrwt beam="1">  1        1 0.31483236E+00 0.84692670E+02</pdfrwt>
<pdfrwt beam="2">  1       -1 0.99489831E-02 0.84692670E+02</pdfrwt>
<totfact> 0.20808006E+02</totfact>
</mgrwt>
</event>
<event>
 4    1  0.4862093E-001  0.8846784E+02  0.7546771E-02  0.1306605E+00
          1   -1    0    0  501    0  0.00000000000E+00  0.00000000000E+00  0.41628101996E+02  0.41628101996E+02  0.00000000000E+00 0. -1.
         -1   -1    0    0    0  501 -0.00000000000E+00 -0.00000000000E+00 -0.28858314470E+03  0.28858314470E+03  0.00000000000E+00 0.  1.
         24    1    1    2    0    0  0.25833835628E+02  0.26305050099E+02 -0.22094603147E+03  0.23799938551E+03  0.80419002446E+02 0.  1.
        -24    1    1    2    0    0 -0.25833835628E+02 -0.26305050099E+02 -0.26009011228E+02  0.92211861186E+02  0.80419002446E+02 0. -1.
<mgrwt>
<rscale>  0 0.88467840E+02</rscale>
<asrwt>0</asrwt>
<pdfrwt beam="1">  1        1 0.64043234E-02 0.88467840E+02</pdfrwt>
<pdfrwt beam="2">  1       -1 0.44397407E-01 0.88467840E+02</pdfrwt>
<totfact> 0.55573653E+03</totfact>
</mgrwt>
</event>
<event>
 4    1  0.4862093E-001  0.9296935E+02  0.7546771E-02  0.1295816E+00
         -3   -1    0    0    0  501 -0.00000000000E+00  0.00000000000E+00  0.12620438441E+02  0.12620438441E+02  0.00000000000E+00 0.  1.
          3   -1    0    0  501    0  0.00000000000E+00 -0.00000000000E+00 -0.93402322021E+03  0.93402322021E+03  0.00000000000E+00 0. -1.
         24    1    1    2    0    0  0.46634763300E+02 -0.11324329324E+01 -0.21623728304E+03  0.23537600150E+03  0.80419002446E+02 0.  1.
        -24    1    1    2    0    0 -0.46634763300E+02  0.11324329324E+01 -0.70516549873E+03  0.71126765715E+03  0.80419002446E+02 0. -1.
<mgrwt>
<rscale>  0 0.92969347E+02</rscale>
<asrwt>0</asrwt>
<pdfrwt beam="1">  1        3 0.14369594E+00 0.92969347E+02</pdfrwt>
<pdfrwt beam="2">  1       -3 0.19416052E-02 0.92969347E+02</pdfrwt>
<totfact> 0.83087406E+02</totfact>
</mgrwt>
</event>
<event>
 4    1  0.4862093E-001  0.8323520E+02  0.7546771E-02  0.1320113E+00
         -1   -1    0    0    0  501 -0.00000000000E+00  0.00000000000E+00  0.23769771552E+02  0.23769771552E+02  0.00000000000E+00 0.  1.
          1   -1    0    0  501    0  0.00000000000E+00 -0.00000000000E+00 -0.80283350460E+03  0.80283350460E+03  0.00000000000E+00 0. -1.
         24    1    1    2    0    0 -0.20910446625E+02  0.48617308381E+01 -0.59678737934E+02  0.10241899687E+03  0.80419002446E+02 0.  1.
        -24    1    1    2    0    0  0.20910446625E+02 -0.48617308381E+01 -0.71938499511E+03  0.72418427928E+03  0.80419002446E+02 0. -1.
<mgrwt>
<rscale>  0 0.83235204E+02</rscale>
<asrwt>0</asrwt>
<pdfrwt beam="1">  1        1 0.12351285E+00 0.83235204E+02</pdfrwt>
<pdfrwt beam="2">  1       -1 0.36568879E-02 0.83235204E+02</pdfrwt>
<totfact> 0.60700081E+03</totfact>
</mgrwt>
</event>
<event>
 4    1  0.4862093E-001  0.1235929E+03  0.7546771E-02  0.1237285E+00
         -3   -1    0    0    0  501 -0.00000000000E+00  0.00000000000E+00  0.92559181814E+02  0.92559181814E+02  0.00000000000E+00 0.  1.
          3   -1    0    0  501    0  0.00000000000E+00 -0.00000000000E+00 -0.30601574600E+03  0.30601574600E+03  0.00000000000E+00 0. -1.
         24    1    1    2    0    0  0.39648795778E+02  0.85064523403E+02  0.28539010026E+02  0.12684514652E+03  0.80419002446E+02 0.  1.
        -24    1    1    2    0    0 -0.39648795778E+02 -0.85064523403E+02 -0.24199557422E+03  0.27172978130E+03  0.80419002446E+02 0. -1.
<mgrwt>
<rscale>  0 0.12359295E+03</rscale>
<asrwt>0</asrwt>
<pdfrwt beam="1">  1        3 0.47079347E-01 0.12359295E+03</pdfrwt>
<pdfrwt beam="2">  1       -3 0.14239874E-01 0.12359295E+03</pdfrwt>
<totfact> 0.41949749E+02</totfact>
</mgrwt>
</event>
<event>
 4    1  0.4862093E-001  0.1149535E+03  0.7546771E-02  0.1251662E+00
         -1   -1    0    0    0  501 -0.00000000000E+00  0.00000000000E+00  0.65015847228E+02  0.65015847228E+02  0.00000000000E+00 0.  1.
          1   -1    0    0  501    0  0.00000000000E+00 -0.00000000000E+00 -0.26869319832E+03  0.26869319832E+03  0.00000000000E+00 0. -1.
         24    1    1    2    0    0  0.79661219017E+02 -0.20029784504E+02 -0.19491310253E+02  0.11659429322E+03  0.80419002446E+02 0.  1.
        -24    1    1    2    0    0 -0.79661219017E+02  0.20029784504E+02 -0.18418604084E+03  0.21711475233E+03  0.80419002446E+02 0. -1.
<mgrwt>
<rscale>  0 0.11495355E+03</rscale>
<asrwt>0</asrwt>
<pdfrwt beam="1">  1        1 0.41337415E-01 0.11495355E+03</pdfrwt>
<pdfrwt beam="2">  1       -1 0.10002438E-01 0.11495355E+03</pdfrwt>
<totfact> 0.58015560E+03</totfact>
</mgrwt>
</event>
<event>
 4    1  0.4862093E-001  0.8168423E+02  0.7546771E-02  0.1324339E+00
         -4   -1    0    0    0  501 -0.00000000000E+00  0.00000000000E+00  0.26334682514E+03  0.26334682514E+03  0.00000000000E+00 0.  1.
          4   -1    0    0  501    0  0.00000000000E+00 -0.00000000000E+00 -0.32831667432E+02  0.32831667432E+02  0.00000000000E+00 0. -1.
         24    1    1    2    0    0  0.29069140242E+01 -0.14023007225E+02  0.18601387351E+03  0.20315873591E+03  0.80419002446E+02 0.  1.
        -24    1    1    2    0    0 -0.29069140242E+01  0.14023007225E+02  0.44501284191E+02  0.93019756664E+02  0.80419002446E+02 0.  0.
<mgrwt>
<rscale>  0 0.81684224E+02</rscale>
<asrwt>0</asrwt>
<pdfrwt beam="1">  1        4 0.50510259E-02 0.81684235E+02</pdfrwt>
<pdfrwt beam="2">  1       -4 0.40514895E-01 0.81684235E+02</pdfrwt>
<totfact> 0.20160574E+03</totfact>
</mgrwt>
</event>
<event>
 4    1  0.4862093E-001  0.9413319E+02  0.7546771E-02  0.1293140E+00
         -2   -1    0    0    0  501 -0.00000000000E+00  0.00000000000E+00  0.46941342430E+02  0.46941342430E+02  0.00000000000E+00 0.  1.
          2   -1    0    0  501    0  0.00000000000E+00 -0.00000000000E+00 -0.28928254726E+03  0.28928254726E+03  0.00000000000E+00 0. -1.
         24    1    1    2    0    0 -0.37329609635E+02  0.31628183171E+02 -0.22026528146E+03  0.23953674436E+03  0.80419002446E+02 0.  0.
        -24    1    1    2    0    0  0.37329609635E+02 -0.31628183171E+02 -0.22075923374E+02  0.96687145337E+02  0.80419002446E+02 0.  0.
<mgrwt>
<rscale>  0 0.94133191E+02</rscale>
<asrwt>0</asrwt>
<pdfrwt beam="1">  1        2 0.44505008E-01 0.94133191E+02</pdfrwt>
<pdfrwt beam="2">  1       -2 0.72217449E-02 0.94133191E+02</pdfrwt>
<totfact> 0.11544333E+04</totfact>
</mgrwt>
</event>
<event>
 4    1  0.4862093E-001  0.8796012E+02  0.7546771E-02  0.1307868E+00
          2   -1    0    0  501    0  0.00000000000E+00  0.00000000000E+00  0.17485612286E+04  0.17485612286E+04  0.00000000000E+00 0. -1.
         -2   -1    0    0    0  501 -0.00000000000E+00 -0.00000000000E+00 -0.51417031174E+01  0.51417031174E+01  0.00000000000E+00 0.  1.
         24    1    1    2    0    0 -0.15628324484E+02 -0.32023772678E+02  0.11991346164E+04  0.12023563576E+04  0.80419002446E+02 0. -1.
        -24    1    1    2    0    0  0.15628324484E+02  0.32023772678E+02  0.54428490907E+03  0.55134657407E+03  0.80419002446E+02 0.  1.
<mgrwt>
<rscale>  0 0.87960119E+02</rscale>
<asrwt>0</asrwt>
<pdfrwt beam="1">  1        2 0.26900895E+00 0.87960119E+02</pdfrwt>
<pdfrwt beam="2">  1       -2 0.79103264E-03 0.87960119E+02</pdfrwt>
<totfact> 0.28170861E+04</totfact>
</mgrwt>
</event>
<event>
 4    1  0.4862093E-001  0.8365690E+02  0.7546771E-02  0.1318983E+00
         -3   -1    0    0    0  501 -0.00000000000E+00  0.00000000000E+00  0.35066870142E+03  0.35066870142E+03  0.00000000000E+00 0.  1.
          3   -1    0    0  501    0  0.00000000000E+00 -0.00000000000E+00 -0.22452499016E+02  0.22452499016E+02  0.00000000000E+00 0. -1.
         24    1    1    2    0    0  0.20952961175E+02 -0.96038299652E+01  0.22629822439E+03  0.24126616515E+03  0.80419002446E+02 0.  1.
        -24    1    1    2    0    0 -0.20952961175E+02  0.96038299652E+01  0.10191797801E+03  0.13185503528E+03  0.80419002446E+02 0. -1.
<mgrwt>
<rscale>  0 0.83656895E+02</rscale>
<asrwt>0</asrwt>
<pdfrwt beam="1">  1        3 0.34542309E-02 0.83656895E+02</pdfrwt>
<pdfrwt beam="2">  1       -3 0.53949027E-01 0.83656895E+02</pdfrwt>
<totfact> 0.29046281E+03</totfact>
</mgrwt>
</event>
<event>
 4    1  0.4862093E-001  0.1259401E+03  0.7546771E-02  0.1233607E+00
         -2   -1    0    0    0  501 -0.00000000000E+00  0.00000000000E+00  0.12362591098E+02  0.12362591098E+02  0.00000000000E+00 0.  1.
          2   -1    0    0  501    0  0.00000000000E+00 -0.00000000000E+00 -0.15347987405E+04  0.15347987405E+04  0.00000000000E+00 0. -1.
         24    1    1    2    0    0  0.64448163192E+02  0.72388634055E+02 -0.44786917444E+03  0.46523939370E+03  0.80419002446E+02 0.  1.
        -24    1    1    2    0    0 -0.64448163192E+02 -0.72388634055E+02 -0.10745669750E+04  0.10819219379E+04  0.80419002446E+02 0. -1.
<mgrwt>
<rscale>  0 0.12594007E+03</rscale>
<asrwt>0</asrwt>
<pdfrwt beam="1">  1        2 0.23612269E+00 0.12594008E+03</pdfrwt>
<pdfrwt beam="2">  1       -2 0.19019387E-02 0.12594008E+03</pdfrwt>
<totfact> 0.10571962E+04</totfact>
</mgrwt>
</event>
<event>
 4    1  0.4862093E-001  0.1134206E+03  0.7546771E-02  0.1254363E+00
          3   -1    0    0  501    0  0.00000000000E+00  0.00000000000E+00  0.12815371532E+03  0.12815371532E+03  0.00000000000E+00 0. -1.
         -3   -1    0    0    0  501 -0.00000000000E+00 -0.00000000000E+00 -0.12100956066E+03  0.12100956066E+03  0.00000000000E+00 0.  1.
         24    1    1    2    0    0  0.79373976071E+02 -0.98381021579E+01 -0.47864948557E+02  0.12310680560E+03  0.80419002446E+02 0.  1.
        -24    1    1    2    0    0 -0.79373976071E+02  0.98381021579E+01  0.55009103224E+02  0.12605647037E+03  0.80419002446E+02 0. -1.
<mgrwt>
<rscale>  0 0.11342060E+03</rscale>
<asrwt>0</asrwt>
<pdfrwt beam="1">  1        3 0.19715956E-01 0.11342060E+03</pdfrwt>
<pdfrwt beam="2">  1       -3 0.18616855E-01 0.11342060E+03</pdfrwt>
<totfact> 0.13081850E+03</totfact>
</mgrwt>
</event>
<event>
 4    1  0.4862093E-001  0.8068105E+02  0.7546771E-02  0.1327130E+00
          2   -1    0    0  501    0  0.00000000000E+00  0.00000000000E+00  0.79257875130E+03  0.79257875130E+03  0.00000000000E+00 0. -1.
         -2   -1    0    0    0  501 -0.00000000000E+00 -0.00000000000E+00 -0.85178080482E+01  0.85178080482E+01  0.00000000000E+00 0.  1.
         24    1    1    2    0    0  0.36143132289E+01  0.53993704475E+01  0.46780431627E+03  0.47471076535E+03  0.80419002446E+02 0.  0.
        -24    1    1    2    0    0 -0.36143132289E+01 -0.53993704475E+01  0.31625662698E+03  0.32638579400E+03  0.80419002446E+02 0.  1.
<mgrwt>
<rscale>  0 0.80681054E+02</rscale>
<asrwt>0</asrwt>
<pdfrwt beam="1">  1        2 0.12193513E+00 0.80681054E+02</pdfrwt>
<pdfrwt beam="2">  1       -2 0.13104326E-02 0.80681054E+02</pdfrwt>
<totfact> 0.45610257E+04</totfact>
</mgrwt>
</event>
<event>
 4    1  0.4862093E-001  0.1012213E+03  0.7546771E-02  0.1277749E+00
          2   -1    0    0  501    0  0.00000000000E+00  0.00000000000E+00  0.36407686883E+03  0.36407686883E+03  0.00000000000E+00 0. -1.
         -2   -1    0    0    0  501 -0.00000000000E+00 -0.00000000000E+00 -0.35506106548E+02  0.35506106548E+02  0.00000000000E+00 0.  1.
         24    1    1    2    0    0  0.36751073960E+02 -0.49273614498E+02  0.25527544535E+03  0.27461117871E+03  0.80419002446E+02 0. -1.
        -24    1    1    2    0    0 -0.36751073960E+02  0.49273614498E+02  0.73295316940E+02  0.12497179667E+03  0.80419002446E+02 0.  1.
<mgrwt>
<rscale>  0 0.10122127E+03</rscale>
<asrwt>0</asrwt>
<pdfrwt beam="1">  1        2 0.56011823E-01 0.10122127E+03</pdfrwt>
<pdfrwt beam="2">  1       -2 0.54624782E-02 0.10122127E+03</pdfrwt>
<totfact> 0.13907403E+04</totfact>
</mgrwt>
</event>
<event>
 4    1  0.4862093E-001  0.8422495E+02  0.7546771E-02  0.1317472E+00
          1   -1    0    0  501    0  0.00000000000E+00  0.00000000000E+00  0.20080072178E+03  0.20080072178E+03  0.00000000000E+00 0. -1.
         -1   -1    0    0    0  501 -0.00000000000E+00 -0.00000000000E+00 -0.94962957099E+02  0.94962957099E+02  0.00000000000E+00 0.  1.
         24    1    1    2    0    0 -0.25021641071E+02 -0.73750429177E+00 -0.64270700919E+02  0.10594604941E+03  0.80419002446E+02 0.  1.
        -24    1    1    2    0    0  0.25021641071E+02  0.73750429177E+00  0.17010846560E+03  0.18981762947E+03  0.80419002446E+02 0.  1.
<mgrwt>
<rscale>  0 0.84224951E+02</rscale>
<asrwt>0</asrwt>
<pdfrwt beam="1">  1        1 0.30892419E-01 0.84224951E+02</pdfrwt>
<pdfrwt beam="2">  1       -1 0.14609686E-01 0.84224951E+02</pdfrwt>
<totfact> 0.45440945E+03</totfact>
</mgrwt>
</event>
<event>
 4    1  0.4862093E-001  0.1005033E+03  0.7546771E-02  0.1279241E+00
          2   -1    0    0  501    0  0.00000000000E+00  0.00000000000E+00  0.19867619908E+03  0.19867619908E+03  0.00000000000E+00 0. -1.
         -2   -1    0    0    0  501 -0.00000000000E+00 -0.00000000000E+00 -0.10731618441E+03  0.10731618441E+03  0.00000000000E+00 0.  1.
         24    1    1    2    0    0 -0.60237164005E+02  0.22749132541E+01  0.15666816322E+03  0.18613387784E+03  0.80419002446E+02 0. -1.
        -24    1    1    2    0    0  0.60237164005E+02 -0.22749132541E+01 -0.65308148544E+02  0.11985850566E+03  0.80419002446E+02 0.  1.
<mgrwt>
<rscale>  0 0.10050327E+03</rscale>
<asrwt>0</asrwt>
<pdfrwt beam="1">  1        2 0.30565569E-01 0.10050327E+03</pdfrwt>
<pdfrwt beam="2">  1       -2 0.16510182E-01 0.10050327E+03</pdfrwt>
<totfact> 0.47004174E+03</totfact>
</mgrwt>
</event>
<event>
 4    1  0.4862093E-001  0.8970706E+02  0.7546771E-02  0.1303563E+00
          2   -1    0    0  501    0  0.00000000000E+00  0.00000000000E+00  0.56132314901E+03  0.56132314901E+03  0.00000000000E+00 0. -1.
         -2   -1    0    0    0  501 -0.00000000000E+00 -0.00000000000E+00 -0.14646267632E+02  0.14646267632E+02  0.00000000000E+00 0.  1.
         24    1    1    2    0    0  0.26999798679E+02  0.29174502276E+02  0.31522644947E+03  0.32774238528E+03  0.80419002446E+02 0. -1.
        -24    1    1    2    0    0 -0.26999798679E+02 -0.29174502276E+02  0.23145043191E+03  0.24822703136E+03  0.80419002446E+02 0.  1.
<mgrwt>
<rscale>  0 0.89707060E+02</rscale>
<asrwt>0</asrwt>
<pdfrwt beam="1">  1        2 0.86357391E-01 0.89707060E+02</pdfrwt>
<pdfrwt beam="2">  1       -2 0.22532724E-02 0.89707060E+02</pdfrwt>
<totfact> 0.31649992E+04</totfact>
</mgrwt>
</event>
<event>
 4    1  0.4862093E-001  0.8151595E+02  0.7546771E-02  0.1324804E+00
          1   -1    0    0  501    0  0.00000000000E+00  0.00000000000E+00  0.19831692484E+04  0.19831692484E+04  0.00000000000E+00 0. -1.
         -1   -1    0    0    0  501 -0.00000000000E+00 -0.00000000000E+00 -0.39323748740E+01  0.39323748740E+01  0.00000000000E+00 0.  1.
         24    1    1    2    0    0  0.13179020673E+02 -0.19868125027E+01  0.60747007836E+03  0.61291495827E+03  0.80419002446E+02 0.  1.
        -24    1    1    2    0    0 -0.13179020673E+02  0.19868125027E+01  0.13717667951E+04  0.13741866650E+04  0.80419002446E+02 0.  1.
<mgrwt>
<rscale>  0 0.81515949E+02</rscale>
<asrwt>0</asrwt>
<pdfrwt beam="1">  1        1 0.30510216E+00 0.81515949E+02</pdfrwt>
<pdfrwt beam="2">  1       -1 0.60498233E-03 0.81515949E+02</pdfrwt>
<totfact> 0.12733796E+04</totfact>
</mgrwt>
</event>
<event>
 4    1  0.4862093E-001  0.8496329E+02  0.7546771E-02  0.1315529E+00
         -3   -1    0    0    0  501 -0.00000000000E+00  0.00000000000E+00  0.16939876393E+04  0.16939876393E+04  0.00000000000E+00 0.  1.
          3   -1    0    0  501    0  0.00000000000E+00 -0.00000000000E+00 -0.43003277726E+01  0.43003277726E+01  0.00000000000E+00 0. -1.
         24    1    1    2    0    0  0.16060394204E+02 -0.22217297929E+02  0.92563317217E+03  0.92952435684E+03  0.80419002446E+02 0.  0.
        -24    1    1    2    0    0 -0.16060394204E+02  0.22217297929E+02  0.76405413938E+03  0.76876361025E+03  0.80419002446E+02 0. -1.
<mgrwt>
<rscale>  0 0.84963289E+02</rscale>
<asrwt>0</asrwt>
<pdfrwt beam="1">  1        3 0.66159024E-03 0.84963289E+02</pdfrwt>
<pdfrwt beam="2">  1       -3 0.26061295E+00 0.84963289E+02</pdfrwt>
<totfact> 0.80023037E+02</totfact>
</mgrwt>
</event>
<event>
 4    1  0.4862093E-001  0.1003015E+03  0.7546771E-02  0.1279663E+00
          1   -1    0    0  501    0  0.00000000000E+00  0.00000000000E+00  0.89855933039E+02  0.89855933039E+02  0.00000000000E+00 0. -1.
         -1   -1    0    0    0  501 -0.00000000000E+00 -0.00000000000E+00 -0.12939736579E+03  0.12939736579E+03  0.00000000000E+00 0.  1.
         24    1    1    2    0    0  0.36980877642E+02  0.47176230114E+02 -0.60012402096E+02  0.11688407231E+03  0.80419002446E+02 0.  1.
        -24    1    1    2    0    0 -0.36980877642E+02 -0.47176230114E+02  0.20470969344E+02  0.10236922652E+03  0.80419002446E+02 0. -1.
<mgrwt>
<rscale>  0 0.10030154E+03</rscale>
<asrwt>0</asrwt>
<pdfrwt beam="1">  1        1 0.13823990E-01 0.10030154E+03</pdfrwt>
<pdfrwt beam="2">  1       -1 0.19907287E-01 0.10030154E+03</pdfrwt>
<totfact> 0.77772632E+03</totfact>
</mgrwt>
</event>
<event>
 4    1  0.4862093E-001  0.8621090E+02  0.7546771E-02  0.1312296E+00
          2   -1    0    0  501    0  0.00000000000E+00  0.00000000000E+00  0.30893665149E+04  0.30893665149E+04  0.00000000000E+00 0. -1.
         -2   -1    0    0    0  501 -0.00000000000E+00 -0.00000000000E+00 -0.18899937943E+02  0.18899937943E+02  0.00000000000E+00 0.  1.
         24    1    1    2    0    0  0.28433255846E+02  0.12516092739E+02  0.29870881591E+04  0.29883319743E+04  0.80419002446E+02 0. -1.
        -24    1    1    2    0    0 -0.28433255846E+02 -0.12516092739E+02  0.83378417833E+02  0.11993447849E+03  0.80419002446E+02 0.  1.
<mgrwt>
<rscale>  0 0.86210896E+02</rscale>
<asrwt>0</asrwt>
<pdfrwt beam="1">  1        2 0.47528675E+00 0.86210896E+02</pdfrwt>
<pdfrwt beam="2">  1       -2 0.29076852E-02 0.86210896E+02</pdfrwt>
<totfact> 0.86787689E+02</totfact>
</mgrwt>
</event>
<event>
 4    1  0.4862093E-001  0.9599116E+02  0.7546771E-02  0.1288959E+00
          2   -1    0    0  501    0  0.00000000000E+00  0.00000000000E+00  0.19539322424E+03  0.19539322424E+03  0.00000000000E+00 0. -1.
         -2   -1    0    0    0  501 -0.00000000000E+00 -0.00000000000E+00 -0.47309391197E+02  0.47309391197E+02  0.00000000000E+00 0.  1.
         24    1    1    2    0    0 -0.30642225165E+02 -0.42522231631E+02  0.80912590107E+02  0.12554341615E+03  0.80419002446E+02 0. -1.
        -24    1    1    2    0    0  0.30642225165E+02  0.42522231631E+02  0.67171242935E+02  0.11715919929E+03  0.80419002446E+02 0.  1.
<mgrwt>
<rscale>  0 0.95991156E+02</rscale>
<asrwt>0</asrwt>
<pdfrwt beam="1">  1        2 0.30060496E-01 0.95991156E+02</pdfrwt>
<pdfrwt beam="2">  1       -2 0.72783680E-02 0.95991156E+02</pdfrwt>
<totfact> 0.17301008E+04</totfact>
</mgrwt>
</event>
<event>
 4    1  0.4862093E-001  0.8957725E+02  0.7546771E-02  0.1303879E+00
          2   -1    0    0  501    0  0.00000000000E+00  0.00000000000E+00  0.15254282660E+03  0.15254282660E+03  0.00000000000E+00 0. -1.
         -2   -1    0    0    0  501 -0.00000000000E+00 -0.00000000000E+00 -0.97219930998E+02  0.97219930998E+02  0.00000000000E+00 0.  1.
         24    1    1    2    0    0 -0.10254368211E+01  0.39443834091E+02  0.11226214123E+03  0.14362058306E+03  0.80419002446E+02 0. -1.
        -24    1    1    2    0    0  0.10254368211E+01 -0.39443834091E+02 -0.56939245634E+02  0.10614217454E+03  0.80419002446E+02 0.  1.
<mgrwt>
<rscale>  0 0.89577249E+02</rscale>
<asrwt>0</asrwt>
<pdfrwt beam="1">  1        2 0.23468127E-01 0.89577249E+02</pdfrwt>
<pdfrwt beam="2">  1       -2 0.14956913E-01 0.89577249E+02</pdfrwt>
<totfact> 0.72869641E+03</totfact>
</mgrwt>
</event>
<event>
 4    1  0.4862093E-001  0.8847667E+02  0.7546771E-02  0.1306583E+00
         -2   -1    0    0    0  501 -0.00000000000E+00  0.00000000000E+00  0.12384841841E+02  0.12384841841E+02  0.00000000000E+00 0.  1.
          2   -1    0    0  501    0  0.00000000000E+00 -0.00000000000E+00 -0.89347922558E+03  0.89347922558E+03  0.00000000000E+00 0. -1.
         24    1    1    2    0    0  0.34895434051E+02  0.11967204827E+02 -0.68553753374E+03  0.69122343090E+03  0.80419002446E+02 0. -1.
        -24    1    1    2    0    0 -0.34895434051E+02 -0.11967204827E+02 -0.19555685001E+03  0.21464063652E+03  0.80419002446E+02 0.  1.
<mgrwt>
<rscale>  0 0.88476671E+02</rscale>
<asrwt>0</asrwt>
<pdfrwt beam="1">  1        2 0.13745833E+00 0.88476671E+02</pdfrwt>
<pdfrwt beam="2">  1       -2 0.19053605E-02 0.88476671E+02</pdfrwt>
<totfact> 0.23277528E+04</totfact>
</mgrwt>
</event>
<event>
 4    1  0.4862093E-001  0.9321724E+02  0.7546771E-02  0.1295243E+00
         -2   -1    0    0    0  501 -0.00000000000E+00  0.00000000000E+00  0.46176973896E+03  0.46176973896E+03  0.00000000000E+00 0.  1.
          2   -1    0    0  501    0  0.00000000000E+00 -0.00000000000E+00 -0.19674485068E+02  0.19674485068E+02  0.00000000000E+00 0. -1.
         24    1    1    2    0    0 -0.27894158235E+02  0.38001954926E+02  0.27128164861E+03  0.28685045140E+03  0.80419002446E+02 0. -1.
        -24    1    1    2    0    0  0.27894158235E+02 -0.38001954926E+02  0.17081360529E+03  0.19459377263E+03  0.80419002446E+02 0.  1.
<mgrwt>
<rscale>  0 0.93217224E+02</rscale>
<asrwt>0</asrwt>
<pdfrwt beam="1">  1        2 0.30268442E-02 0.93217235E+02</pdfrwt>
<pdfrwt beam="2">  1       -2 0.71041490E-01 0.93217235E+02</pdfrwt>
<totfact> 0.52208991E+03</totfact>
</mgrwt>
</event>
<event>
 4    1  0.4862093E-001  0.1205722E+03  0.7546771E-02  0.1242156E+00
          1   -1    0    0  501    0  0.00000000000E+00  0.00000000000E+00  0.52775914477E+03  0.52775914477E+03  0.00000000000E+00 0. -1.
         -1   -1    0    0    0  501 -0.00000000000E+00 -0.00000000000E+00 -0.58261244742E+02  0.58261244742E+02  0.00000000000E+00 0.  1.
         24    1    1    2    0    0 -0.59063833604E+02 -0.67689788873E+02  0.21998859040E+02  0.12256267666E+03  0.80419002446E+02 0.  1.
        -24    1    1    2    0    0  0.59063833604E+02  0.67689788873E+02  0.44749904099E+03  0.46345771285E+03  0.80419002446E+02 0. -1.
<mgrwt>
<rscale>  0 0.12057222E+03</rscale>
<asrwt>0</asrwt>
<pdfrwt beam="1">  1        1 0.81193711E-01 0.12057222E+03</pdfrwt>
<pdfrwt beam="2">  1       -1 0.89632688E-02 0.12057222E+03</pdfrwt>
<totfact> 0.29432702E+03</totfact>
</mgrwt>
</event>
<event>
 4    1  0.4862093E-001  0.8110107E+02  0.7546771E-02  0.1325955E+00
          2   -1    0    0  501    0  0.00000000000E+00  0.00000000000E+00  0.17101850093E+02  0.17101850093E+02  0.00000000000E+00 0. -1.
         -2   -1    0    0    0  501 -0.00000000000E+00 -0.00000000000E+00 -0.56159494258E+03  0.56159494258E+03  0.00000000000E+00 0.  1.
         24    1    1    2    0    0 -0.84335948728E+01  0.62484260100E+01 -0.10980803560E+03  0.13651076509E+03  0.80419002446E+02 0. -1.
        -24    1    1    2    0    0  0.84335948728E+01 -0.62484260100E+01 -0.43468505689E+03  0.44218602758E+03  0.80419002446E+02 0.  1.
<mgrwt>
<rscale>  0 0.81101075E+02</rscale>
<asrwt>0</asrwt>
<pdfrwt beam="1">  1        2 0.26310536E-02 0.81101075E+02</pdfrwt>
<pdfrwt beam="2">  1       -2 0.86399231E-01 0.81101075E+02</pdfrwt>
<totfact> 0.40645548E+03</totfact>
</mgrwt>
</event>
<event>
 4    1  0.4862093E-001  0.8424747E+02  0.7546771E-02  0.1317412E+00
          2   -1    0    0  501    0  0.00000000000E+00  0.00000000000E+00  0.60776970348E+02  0.60776970348E+02  0.00000000000E+00 0. -1.
         -2   -1    0    0    0  501 -0.00000000000E+00 -0.00000000000E+00 -0.40689091638E+03  0.40689091638E+03  0.00000000000E+00 0.  1.
         24    1    1    2    0    0 -0.24833035369E+02  0.37068975166E+01  0.24389479147E+02  0.87706803512E+02  0.80419002446E+02 0. -1.
        -24    1    1    2    0    0  0.24833035369E+02 -0.37068975166E+01 -0.37050342517E+03  0.37996108321E+03  0.80419002446E+02 0.  1.
<mgrwt>
<rscale>  0 0.84247473E+02</rscale>
<asrwt>0</asrwt>
<pdfrwt beam="1">  1        2 0.93503031E-02 0.84247473E+02</pdfrwt>
<pdfrwt beam="2">  1       -2 0.62598603E-01 0.84247473E+02</pdfrwt>
<totfact> 0.15924058E+03</totfact>
</mgrwt>
</event>
<event>
 4    1  0.4862093E-001  0.9535658E+02  0.7546771E-02  0.1290375E+00
         -2   -1    0    0    0  501 -0.00000000000E+00  0.00000000000E+00  0.47544538818E+01  0.47544538818E+01  0.00000000000E+00 0.  1.
          2   -1    0    0  501    0  0.00000000000E+00 -0.00000000000E+00 -0.20993248266E+04  0.20993248266E+04  0.00000000000E+00 0. -1.
         24    1    1    2    0    0  0.51026632643E+02  0.46843675572E+01 -0.13611290377E+04  0.13644651457E+04  0.80419002446E+02 0.  1.
        -24    1    1    2    0    0 -0.51026632643E+02 -0.46843675572E+01 -0.73344133507E+03  0.73961413485E+03  0.80419002446E+02 0. -1.
<mgrwt>
<rscale>  0 0.95356576E+02</rscale>
<asrwt>0</asrwt>
<pdfrwt beam="1">  1        2 0.32297240E+00 0.95356576E+02</pdfrwt>
<pdfrwt beam="2">  1       -2 0.73145591E-03 0.95356576E+02</pdfrwt>
<totfact> 0.21079325E+04</totfact>
</mgrwt>
</event>
<event>
 4    1  0.4862093E-001  0.9614731E+02  0.7546771E-02  0.1288613E+00
         -2   -1    0    0    0  501 -0.00000000000E+00  0.00000000000E+00  0.83277465241E+01  0.83277465241E+01  0.00000000000E+00 0.  1.
          2   -1    0    0  501    0  0.00000000000E+00 -0.00000000000E+00 -0.20636654497E+04  0.20636654497E+04  0.00000000000E+00 0. -1.
         24    1    1    2    0    0 -0.46428726075E+02 -0.24929136091E+02 -0.17319124026E+04  0.17345791635E+04  0.80419002446E+02 0. -1.
        -24    1    1    2    0    0  0.46428726075E+02  0.24929136091E+02 -0.32342530062E+03  0.33741403271E+03  0.80419002446E+02 0.  1.
<mgrwt>
<rscale>  0 0.96147306E+02</rscale>
<asrwt>0</asrwt>
<pdfrwt beam="1">  1        2 0.31748684E+00 0.96147306E+02</pdfrwt>
<pdfrwt beam="2">  1       -2 0.12811924E-02 0.96147306E+02</pdfrwt>
<totfact> 0.99347388E+03</totfact>
</mgrwt>
</event>
<event>
 4    1  0.4862093E-001  0.8597929E+02  0.7546771E-02  0.1312891E+00
         -1   -1    0    0    0  501 -0.00000000000E+00  0.00000000000E+00  0.79856756525E+02  0.79856756525E+02  0.00000000000E+00 0.  1.
          1   -1    0    0  501    0  0.00000000000E+00 -0.00000000000E+00 -0.23224766995E+04  0.23224766995E+04  0.00000000000E+00 0. -1.
         24    1    1    2    0    0 -0.25577926256E+02  0.16461827103E+02  0.55674783501E+02  0.10243104771E+03  0.80419002446E+02 0.  1.
        -24    1    1    2    0    0  0.25577926256E+02 -0.16461827103E+02 -0.22982947265E+04  0.22999024083E+04  0.80419002446E+02 0. -1.
<mgrwt>
<rscale>  0 0.85979288E+02</rscale>
<asrwt>0</asrwt>
<pdfrwt beam="1">  1        1 0.35730412E+00 0.85979288E+02</pdfrwt>
<pdfrwt beam="2">  1       -1 0.12285655E-01 0.85979288E+02</pdfrwt>
<totfact> 0.10117847E+02</totfact>
</mgrwt>
</event>
<event>
 4    1  0.4862093E-001  0.8901880E+02  0.7546771E-02  0.1305245E+00
         -2   -1    0    0    0  501 -0.00000000000E+00  0.00000000000E+00  0.10936583685E+02  0.10936583685E+02  0.00000000000E+00 0.  1.
          2   -1    0    0  501    0  0.00000000000E+00 -0.00000000000E+00 -0.88155612100E+03  0.88155612100E+03  0.00000000000E+00 0. -1.
         24    1    1    2    0    0  0.29916872865E+02 -0.23708884789E+02 -0.62362135228E+03  0.62994280492E+03  0.80419002446E+02 0. -1.
        -24    1    1    2    0    0 -0.29916872865E+02  0.23708884789E+02 -0.24699818504E+03  0.26254989977E+03  0.80419002446E+02 0.  1.
<mgrwt>
<rscale>  0 0.89018798E+02</rscale>
<asrwt>0</asrwt>
<pdfrwt beam="1">  1        2 0.13562402E+00 0.89018798E+02</pdfrwt>
<pdfrwt beam="2">  1       -2 0.16825513E-02 0.89018798E+02</pdfrwt>
<totfact> 0.28309222E+04</totfact>
</mgrwt>
</event>
<event>
 4    1  0.4862093E-001  0.1108047E+03  0.7546771E-02  0.1259087E+00
          2   -1    0    0  501    0  0.00000000000E+00  0.00000000000E+00  0.12588958789E+04  0.12588958789E+04  0.00000000000E+00 0. -1.
         -2   -1    0    0    0  501 -0.00000000000E+00 -0.00000000000E+00 -0.24312358370E+02  0.24312358370E+02  0.00000000000E+00 0.  1.
         24    1    1    2    0    0 -0.70749366182E+02  0.28372444664E+02  0.11138024376E+04  0.11193004755E+04  0.80419002446E+02 0. -1.
        -24    1    1    2    0    0  0.70749366182E+02 -0.28372444664E+02  0.12078108295E+03  0.16390776182E+03  0.80419002446E+02 0.  1.
<mgrwt>
<rscale>  0 0.11080471E+03</rscale>
<asrwt>0</asrwt>
<pdfrwt beam="1">  1        2 0.19367624E+00 0.11080471E+03</pdfrwt>
<pdfrwt beam="2">  1       -2 0.37403638E-02 0.11080471E+03</pdfrwt>
<totfact> 0.54758753E+03</totfact>
</mgrwt>
</event>
<event>
 4    1  0.4862093E-001  0.8389248E+02  0.7546771E-02  0.1318354E+00
          1   -1    0    0  501    0  0.00000000000E+00  0.00000000000E+00  0.45164463109E+03  0.45164463109E+03  0.00000000000E+00 0. -1.
         -1   -1    0    0    0  501 -0.00000000000E+00 -0.00000000000E+00 -0.16661838784E+02  0.16661838784E+02  0.00000000000E+00 0.  1.
         24    1    1    2    0    0 -0.23416173734E+02  0.47345137227E+01  0.15790733115E+03  0.17880904339E+03  0.80419002446E+02 0. -1.
        -24    1    1    2    0    0  0.23416173734E+02 -0.47345137227E+01  0.27707546115E+03  0.28949742648E+03  0.80419002446E+02 0. -1.
<mgrwt>
<rscale>  0 0.83892483E+02</rscale>
<asrwt>0</asrwt>
<pdfrwt beam="1">  1        1 0.69483780E-01 0.83892483E+02</pdfrwt>
<pdfrwt beam="2">  1       -1 0.25633602E-02 0.83892483E+02</pdfrwt>
<totfact> 0.21974659E+04</totfact>
</mgrwt>
</event>
<event>
 4    1  0.4862093E-001  0.8856540E+02  0.7546771E-02  0.1306363E+00
          1   -1    0    0  501    0  0.00000000000E+00  0.00000000000E+00  0.33123093301E+03  0.33123093301E+03  0.00000000000E+00 0. -1.
         -1   -1    0    0    0  501 -0.00000000000E+00 -0.00000000000E+00 -0.28274421879E+02  0.28274421879E+02  0.00000000000E+00 0.  1.
         24    1    1    2    0    0  0.31229772497E+02 -0.20032867692E+02  0.79025700886E+02  0.11869663783E+03  0.80419002446E+02 0.  1.
        -24    1    1    2    0    0 -0.31229772497E+02  0.20032867692E+02  0.22393081024E+03  0.24080871705E+03  0.80419002446E+02 0. -1.
<mgrwt>
<rscale>  0 0.88565402E+02</rscale>
<asrwt>0</asrwt>
<pdfrwt beam="1">  1        1 0.50958602E-01 0.88565402E+02</pdfrwt>
<pdfrwt beam="2">  1       -1 0.43499113E-02 0.88565402E+02</pdfrwt>
<totfact> 0.15128354E+04</totfact>
</mgrwt>
</event>
<event>
 4    1  0.4862093E-001  0.9783502E+02  0.7546771E-02  0.1284916E+00
         -1   -1    0    0    0  501 -0.00000000000E+00  0.00000000000E+00  0.30925369223E+02  0.30925369223E+02  0.00000000000E+00 0.  1.
          1   -1    0    0  501    0  0.00000000000E+00 -0.00000000000E+00 -0.32738107615E+03  0.32738107615E+03  0.00000000000E+00 0. -1.
         24    1    1    2    0    0  0.55498327009E+02 -0.49407253194E+01 -0.10636960495E+03  0.14452053100E+03  0.80419002446E+02 0.  1.
        -24    1    1    2    0    0 -0.55498327009E+02  0.49407253194E+01 -0.19008610198E+03  0.21378591438E+03  0.80419002446E+02 0. -1.
<mgrwt>
<rscale>  0 0.97835019E+02</rscale>
<asrwt>0</asrwt>
<pdfrwt beam="1">  1        1 0.50366320E-01 0.97835019E+02</pdfrwt>
<pdfrwt beam="2">  1       -1 0.47577491E-02 0.97835019E+02</pdfrwt>
<totfact> 0.13593491E+04</totfact>
</mgrwt>
</event>
<event>
 4    1  0.4862093E-001  0.1009747E+03  0.7546771E-02  0.1278260E+00
         -1   -1    0    0    0  501 -0.00000000000E+00  0.00000000000E+00  0.36671322138E+03  0.36671322138E+03  0.00000000000E+00 0.  1.
          1   -1    0    0  501    0  0.00000000000E+00 -0.00000000000E+00 -0.47701271967E+02  0.47701271967E+02  0.00000000000E+00 0. -1.
         24    1    1    2    0    0 -0.24274920383E+02 -0.56030280505E+02  0.29333277901E+03  0.31022572313E+03  0.80419002446E+02 0.  1.
        -24    1    1    2    0    0  0.24274920383E+02  0.56030280505E+02  0.25679170401E+02  0.10418877022E+03  0.80419002446E+02 0. -1.
<mgrwt>
<rscale>  0 0.10097465E+03</rscale>
<asrwt>0</asrwt>
<pdfrwt beam="1">  1        1 0.73386575E-02 0.10097465E+03</pdfrwt>
<pdfrwt beam="2">  1       -1 0.56417417E-01 0.10097465E+03</pdfrwt>
<totfact> 0.30319806E+03</totfact>
</mgrwt>
</event>
<event>
 4    1  0.4862093E-001  0.8998878E+02  0.7546771E-02  0.1302879E+00
         -1   -1    0    0    0  501 -0.00000000000E+00  0.00000000000E+00  0.15949339383E+02  0.15949339383E+02  0.00000000000E+00 0.  1.
          1   -1    0    0  501    0  0.00000000000E+00 -0.00000000000E+00 -0.56275024865E+03  0.56275024865E+03  0.00000000000E+00 0. -1.
         24    1    1    2    0    0  0.37808492557E+02  0.14187392681E+02 -0.18292700746E+03  0.20386336168E+03  0.80419002446E+02 0.  1.
        -24    1    1    2    0    0 -0.37808492557E+02 -0.14187392681E+02 -0.36387390180E+03  0.37483622636E+03  0.80419002446E+02 0. -1.
<mgrwt>
<rscale>  0 0.89988778E+02</rscale>
<asrwt>0</asrwt>
<pdfrwt beam="1">  1        1 0.86576958E-01 0.89988778E+02</pdfrwt>
<pdfrwt beam="2">  1       -1 0.24537446E-02 0.89988778E+02</pdfrwt>
<totfact> 0.17760359E+04</totfact>
</mgrwt>
</event>
<event>
 4    1  0.4862093E-001  0.8866144E+02  0.7546771E-02  0.1306126E+00
         -1   -1    0    0    0  501 -0.00000000000E+00  0.00000000000E+00  0.59862397616E+01  0.59862397616E+01  0.00000000000E+00 0.  1.
          1   -1    0    0  501    0  0.00000000000E+00 -0.00000000000E+00 -0.13131873238E+04  0.13131873238E+04  0.00000000000E+00 0. -1.
         24    1    1    2    0    0 -0.36281602823E+02 -0.87908763313E+01 -0.65024042173E+03  0.65625715707E+03  0.80419002446E+02 0.  1.
        -24    1    1    2    0    0  0.36281602823E+02  0.87908763313E+01 -0.65696066232E+03  0.66291640649E+03  0.80419002446E+02 0.  0.
<mgrwt>
<rscale>  0 0.88661436E+02</rscale>
<asrwt>0</asrwt>
<pdfrwt beam="1">  1        1 0.20202918E+00 0.88661436E+02</pdfrwt>
<pdfrwt beam="2">  1       -1 0.92095833E-03 0.88661436E+02</pdfrwt>
<totfact> 0.18844141E+04</totfact>
</mgrwt>
</event>
<event>
 4    1  0.4862093E-001  0.8139743E+02  0.7546771E-02  0.1325132E+00
         -1   -1    0    0    0  501 -0.00000000000E+00  0.00000000000E+00  0.56791257239E+02  0.56791257239E+02  0.00000000000E+00 0.  1.
          1   -1    0    0  501    0  0.00000000000E+00 -0.00000000000E+00 -0.17831013701E+03  0.17831013701E+03  0.00000000000E+00 0. -1.
         24    1    1    2    0    0  0.12560888095E+02 -0.74120557520E+00  0.83579408228E+01  0.81825402074E+02  0.80419002446E+02 0.  0.
        -24    1    1    2    0    0 -0.12560888095E+02  0.74120557520E+00 -0.12987682060E+03  0.15327599218E+03  0.80419002446E+02 0. -1.
<mgrwt>
<rscale>  0 0.81397428E+02</rscale>
<asrwt>0</asrwt>
<pdfrwt beam="1">  1        1 0.27432328E-01 0.81397428E+02</pdfrwt>
<pdfrwt beam="2">  1       -1 0.87371167E-02 0.81397428E+02</pdfrwt>
<totfact> 0.11435020E+04</totfact>
</mgrwt>
</event>
<event>
 4    1  0.4862093E-001  0.9180625E+02  0.7546771E-02  0.1298536E+00
         -1   -1    0    0    0  501 -0.00000000000E+00  0.00000000000E+00  0.21907382262E+04  0.21907382262E+04  0.00000000000E+00 0.  1.
          1   -1    0    0  501    0  0.00000000000E+00 -0.00000000000E+00 -0.74229039884E+01  0.74229039884E+01  0.00000000000E+00 0. -1.
         24    1    1    2    0    0 -0.37841026428E+02 -0.23004977159E+02  0.18544712017E+04  0.18567422616E+04  0.80419002446E+02 0.  1.
        -24    1    1    2    0    0  0.37841026428E+02  0.23004977159E+02  0.32884412055E+03  0.34141886859E+03  0.80419002446E+02 0. -1.
<mgrwt>
<rscale>  0 0.91806254E+02</rscale>
<asrwt>0</asrwt>
<pdfrwt beam="1">  1        1 0.11419870E-02 0.91806254E+02</pdfrwt>
<pdfrwt beam="2">  1       -1 0.33703613E+00 0.91806254E+02</pdfrwt>
<totfact> 0.30264620E+02</totfact>
</mgrwt>
</event>
<event>
 4    1  0.4862093E-001  0.8206340E+02  0.7546771E-02  0.1323296E+00
          2   -1    0    0  501    0  0.00000000000E+00  0.00000000000E+00  0.19121746433E+03  0.19121746433E+03  0.00000000000E+00 0. -1.
         -2   -1    0    0    0  501 -0.00000000000E+00 -0.00000000000E+00 -0.35509362733E+02  0.35509362733E+02  0.00000000000E+00 0.  1.
         24    1    1    2    0    0 -0.81042125914E+01  0.14195304139E+02  0.88113213193E+02  0.12040904956E+03  0.80419002446E+02 0. -1.
        -24    1    1    2    0    0  0.81042125914E+01 -0.14195304139E+02  0.67594888401E+02  0.10631777751E+03  0.80419002446E+02 0.  1.
<mgrwt>
<rscale>  0 0.82063395E+02</rscale>
<asrwt>0</asrwt>
<pdfrwt beam="1">  1        2 0.29418071E-01 0.82063395E+02</pdfrwt>
<pdfrwt beam="2">  1       -2 0.54629790E-02 0.82063395E+02</pdfrwt>
<totfact> 0.26786104E+04</totfact>
</mgrwt>
</event>
<event>
 4    1  0.4862093E-001  0.8826632E+02  0.7546771E-02  0.1307105E+00
         -2   -1    0    0    0  501 -0.00000000000E+00  0.00000000000E+00  0.67129793960E+01  0.67129793960E+01  0.00000000000E+00 0.  1.
          2   -1    0    0  501    0  0.00000000000E+00 -0.00000000000E+00 -0.16836716453E+04  0.16836716453E+04  0.00000000000E+00 0. -1.
         24    1    1    2    0    0 -0.35080583985E+02  0.96478370808E+01 -0.13095825539E+04  0.13125537740E+04  0.80419002446E+02 0. -1.
        -24    1    1    2    0    0  0.35080583985E+02 -0.96478370808E+01 -0.36737611197E+03  0.37783085069E+03  0.80419002446E+02 0.  1.
<mgrwt>
<rscale>  0 0.88266325E+02</rscale>
<asrwt>0</asrwt>
<pdfrwt beam="1">  1        2 0.25902672E+00 0.88266325E+02</pdfrwt>
<pdfrwt beam="2">  1       -2 0.10327648E-02 0.88266325E+02</pdfrwt>
<totfact> 0.20842661E+04</totfact>
</mgrwt>
</event>
<event>
 4    1  0.4862093E-001  0.1044498E+03  0.7546771E-02  0.1271207E+00
         -2   -1    0    0    0  501 -0.00000000000E+00  0.00000000000E+00  0.10611134006E+03  0.10611134006E+03  0.00000000000E+00 0.  1.
          2   -1    0    0  501    0  0.00000000000E+00 -0.00000000000E+00 -0.29559793480E+03  0.29559793480E+03  0.00000000000E+00 0. -1.
         24    1    1    2    0    0  0.26148731565E+02 -0.61308980838E+02 -0.25694904789E+03  0.27736722312E+03  0.80419002446E+02 0. -1.
        -24    1    1    2    0    0 -0.26148731565E+02  0.61308980838E+02  0.67462453143E+02  0.12434205175E+03  0.80419002446E+02 0.  1.
<mgrwt>
<rscale>  0 0.10444981E+03</rscale>
<asrwt>0</asrwt>
<pdfrwt beam="1">  1        2 0.45476605E-01 0.10444981E+03</pdfrwt>
<pdfrwt beam="2">  1       -2 0.16324821E-01 0.10444981E+03</pdfrwt>
<totfact> 0.31520158E+03</totfact>
</mgrwt>
</event>
<event>
 4    1  0.4862093E-001  0.1007913E+03  0.7546771E-02  0.1278641E+00
         -2   -1    0    0    0  501 -0.00000000000E+00  0.00000000000E+00  0.43916649612E+02  0.43916649612E+02  0.00000000000E+00 0.  1.
          2   -1    0    0  501    0  0.00000000000E+00 -0.00000000000E+00 -0.45375147858E+03  0.45375147858E+03  0.00000000000E+00 0. -1.
         24    1    1    2    0    0  0.51402072175E+02 -0.32395902119E+02 -0.37913703436E+03  0.39230571532E+03  0.80419002446E+02 0. -1.
        -24    1    1    2    0    0 -0.51402072175E+02  0.32395902119E+02 -0.30697794614E+02  0.10536241287E+03  0.80419002446E+02 0.  1.
<mgrwt>
<rscale>  0 0.10079129E+03</rscale>
<asrwt>0</asrwt>
<pdfrwt beam="1">  1        2 0.69807920E-01 0.10079129E+03</pdfrwt>
<pdfrwt beam="2">  1       -2 0.67564076E-02 0.10079129E+03</pdfrwt>
<totfact> 0.79938315E+03</totfact>
</mgrwt>
</event>
<event>
 4    1  0.4862093E-001  0.1015468E+03  0.7546771E-02  0.1277077E+00
          2   -1    0    0  501    0  0.00000000000E+00  0.00000000000E+00  0.83977303581E+03  0.83977303581E+03  0.00000000000E+00 0. -1.
         -2   -1    0    0    0  501 -0.00000000000E+00 -0.00000000000E+00 -0.12281955310E+02  0.12281955310E+02  0.00000000000E+00 0.  1.
         24    1    1    2    0    0 -0.61304022940E+02  0.92924513668E+01  0.42011581725E+03  0.43221412371E+03  0.80419002446E+02 0.  1.
        -24    1    1    2    0    0  0.61304022940E+02 -0.92924513668E+01  0.40737526325E+03  0.41984086740E+03  0.80419002446E+02 0. -1.
<mgrwt>
<rscale>  0 0.10154678E+03</rscale>
<asrwt>0</asrwt>
<pdfrwt beam="1">  1        2 0.12919581E+00 0.10154678E+03</pdfrwt>
<pdfrwt beam="2">  1       -2 0.18895322E-02 0.10154678E+03</pdfrwt>
<totfact> 0.25805990E+04</totfact>
</mgrwt>
</event>
<event>
 4    1  0.4862093E-001  0.8218918E+02  0.7546771E-02  0.1322951E+00
         -1   -1    0    0    0  501 -0.00000000000E+00  0.00000000000E+00  0.34432512310E+02  0.34432512310E+02  0.00000000000E+00 0.  1.
          1   -1    0    0  501    0  0.00000000000E+00 -0.00000000000E+00 -0.27070246771E+03  0.27070246771E+03  0.00000000000E+00 0. -1.
         24    1    1    2    0    0  0.95534989059E+01  0.14020573278E+02 -0.38086742062E+02  0.90585107450E+02  0.80419002446E+02 0.  1.
        -24    1    1    2    0    0 -0.95534989059E+01 -0.14020573278E+02 -0.19818321334E+03  0.21454987257E+03  0.80419002446E+02 0. -1.
<mgrwt>
<rscale>  0 0.82189183E+02</rscale>
<asrwt>0</asrwt>
<pdfrwt beam="1">  1        1 0.41646533E-01 0.82189183E+02</pdfrwt>
<pdfrwt beam="2">  1       -1 0.52973097E-02 0.82189183E+02</pdfrwt>
<totfact> 0.14404759E+04</totfact>
</mgrwt>
</event>
<event>
 4    1  0.4862093E-001  0.8263397E+02  0.7546771E-02  0.1321739E+00
          1   -1    0    0  501    0  0.00000000000E+00  0.00000000000E+00  0.14327308615E+03  0.14327308615E+03  0.00000000000E+00 0. -1.
         -1   -1    0    0    0  501 -0.00000000000E+00 -0.00000000000E+00 -0.85904498976E+02  0.85904498976E+02  0.00000000000E+00 0.  1.
         24    1    1    2    0    0  0.12640895748E+02  0.14190288244E+02 -0.47773116083E+02  0.95449688844E+02  0.80419002446E+02 0.  0.
        -24    1    1    2    0    0 -0.12640895748E+02 -0.14190288244E+02  0.10514170326E+03  0.13372789628E+03  0.80419002446E+02 0. -1.
<mgrwt>
<rscale>  0 0.82633967E+02</rscale>
<asrwt>0</asrwt>
<pdfrwt beam="1">  1        1 0.22042013E-01 0.82633967E+02</pdfrwt>
<pdfrwt beam="2">  1       -1 0.13216077E-01 0.82633967E+02</pdfrwt>
<totfact> 0.80269126E+03</totfact>
</mgrwt>
</event>
<event>
 4    1  0.4862093E-001  0.9149222E+02  0.7546771E-02  0.1299278E+00
         -1   -1    0    0    0  501 -0.00000000000E+00  0.00000000000E+00  0.62297354842E+01  0.62297354842E+01  0.00000000000E+00 0.  1.
          1   -1    0    0  501    0  0.00000000000E+00 -0.00000000000E+00 -0.16783286553E+04  0.16783286553E+04  0.00000000000E+00 0. -1.
         24    1    1    2    0    0  0.67371557686E+01 -0.43107093413E+02 -0.45994688734E+03  0.46895838398E+03  0.80419002446E+02 0.  1.
        -24    1    1    2    0    0 -0.67371557686E+01  0.43107093413E+02 -0.12121520325E+04  0.12156000068E+04  0.80419002446E+02 0. -1.
<mgrwt>
<rscale>  0 0.91492222E+02</rscale>
<asrwt>0</asrwt>
<pdfrwt beam="1">  1        1 0.25820447E+00 0.91492222E+02</pdfrwt>
<pdfrwt beam="2">  1       -1 0.95842062E-03 0.91492222E+02</pdfrwt>
<totfact> 0.10426297E+04</totfact>
</mgrwt>
</event>
<event>
 4    1  0.4862093E-001  0.1033778E+03  0.7546771E-02  0.1273349E+00
          1   -1    0    0  501    0  0.00000000000E+00  0.00000000000E+00  0.98986436978E+03  0.98986436978E+03  0.00000000000E+00 0. -1.
         -1   -1    0    0    0  501 -0.00000000000E+00 -0.00000000000E+00 -0.24504686915E+02  0.24504686915E+02  0.00000000000E+00 0.  1.
         24    1    1    2    0    0 -0.52418138316E+02  0.38367795532E+02  0.10333592903E+03  0.14616866675E+03  0.80419002446E+02 0.  1.
        -24    1    1    2    0    0  0.52418138316E+02 -0.38367795532E+02  0.86202375384E+03  0.86820038994E+03  0.80419002446E+02 0. -1.
<mgrwt>
<rscale>  0 0.10337778E+03</rscale>
<asrwt>0</asrwt>
<pdfrwt beam="1">  1        1 0.15228679E+00 0.10337778E+03</pdfrwt>
<pdfrwt beam="2">  1       -1 0.37699526E-02 0.10337778E+03</pdfrwt>
<totfact> 0.42335298E+03</totfact>
</mgrwt>
</event>
<event>
 4    1  0.4862093E-001  0.8559115E+02  0.7546771E-02  0.1313894E+00
          2   -1    0    0  501    0  0.00000000000E+00  0.00000000000E+00  0.14559911248E+04  0.14559911248E+04  0.00000000000E+00 0. -1.
         -2   -1    0    0    0  501 -0.00000000000E+00 -0.00000000000E+00 -0.15355837672E+02  0.15355837672E+02  0.00000000000E+00 0.  1.
         24    1    1    2    0    0  0.12850573835E+02 -0.26334225935E+02  0.13235422928E+04  0.13263069198E+04  0.80419002446E+02 0. -1.
        -24    1    1    2    0    0 -0.12850573835E+02  0.26334225935E+02  0.11709299429E+03  0.14504004265E+03  0.80419002446E+02 0.  1.
<mgrwt>
<rscale>  0 0.85591148E+02</rscale>
<asrwt>0</asrwt>
<pdfrwt beam="1">  1        2 0.22399853E+00 0.85591148E+02</pdfrwt>
<pdfrwt beam="2">  1       -2 0.23624377E-02 0.85591148E+02</pdfrwt>
<totfact> 0.83334510E+03</totfact>
</mgrwt>
</event>
<event>
 4    1  0.4862093E-001  0.1108004E+03  0.7546771E-02  0.1259095E+00
          2   -1    0    0  501    0  0.00000000000E+00  0.00000000000E+00  0.80933258138E+03  0.80933258138E+03  0.00000000000E+00 0. -1.
         -2   -1    0    0    0  501 -0.00000000000E+00 -0.00000000000E+00 -0.15908567245E+02  0.15908567245E+02  0.00000000000E+00 0.  1.
         24    1    1    2    0    0  0.57036206164E+02  0.50560662283E+02  0.48568104695E+03  0.49815941696E+03  0.80419002446E+02 0.  0.
        -24    1    1    2    0    0 -0.57036206164E+02 -0.50560662283E+02  0.30774296719E+03  0.32708173167E+03  0.80419002446E+02 0.  1.
<mgrwt>
<rscale>  0 0.11080039E+03</rscale>
<asrwt>0</asrwt>
<pdfrwt beam="1">  1        2 0.12451267E+00 0.11080039E+03</pdfrwt>
<pdfrwt beam="2">  1       -2 0.24474725E-02 0.11080039E+03</pdfrwt>
<totfact> 0.18732995E+04</totfact>
</mgrwt>
</event>
<event>
 4    1  0.4862093E-001  0.8240713E+02  0.7546771E-02  0.1322356E+00
          2   -1    0    0  501    0  0.00000000000E+00  0.00000000000E+00  0.70444613973E+03  0.70444613973E+03  0.00000000000E+00 0. -1.
         -2   -1    0    0    0  501 -0.00000000000E+00 -0.00000000000E+00 -0.31231161905E+02  0.31231161905E+02  0.00000000000E+00 0.  1.
         24    1    1    2    0    0  0.17698517933E+02  0.32375023914E+01  0.64245168177E+03  0.64771529110E+03  0.80419002446E+02 0. -1.
        -24    1    1    2    0    0 -0.17698517933E+02 -0.32375023914E+01  0.30763296052E+02  0.87962010534E+02  0.80419002446E+02 0.  1.
<mgrwt>
<rscale>  0 0.82407129E+02</rscale>
<asrwt>0</asrwt>
<pdfrwt beam="1">  1        2 0.10837632E+00 0.82407129E+02</pdfrwt>
<pdfrwt beam="2">  1       -2 0.48047947E-02 0.82407129E+02</pdfrwt>
<totfact> 0.80568096E+03</totfact>
</mgrwt>
</event>
<event>
 4    1  0.4862093E-001  0.1218242E+03  0.7546771E-02  0.1240118E+00
         -3   -1    0    0    0  501 -0.00000000000E+00  0.00000000000E+00  0.21430306465E+03  0.21430306465E+03  0.00000000000E+00 0.  1.
          3   -1    0    0  501    0  0.00000000000E+00 -0.00000000000E+00 -0.80696428783E+02  0.80696428783E+02  0.00000000000E+00 0. -1.
         24    1    1    2    0    0  0.73798701663E+02  0.54107971917E+02  0.12234788671E+03  0.17265613898E+03  0.80419002446E+02 0.  1.
        -24    1    1    2    0    0 -0.73798701663E+02 -0.54107971917E+02  0.11258749164E+02  0.12234335445E+03  0.80419002446E+02 0. -1.
<mgrwt>
<rscale>  0 0.12182421E+03</rscale>
<asrwt>0</asrwt>
<pdfrwt beam="1">  1        3 0.12414835E-01 0.12182421E+03</pdfrwt>
<pdfrwt beam="2">  1       -3 0.32969702E-01 0.12182421E+03</pdfrwt>
<totfact> 0.10445131E+03</totfact>
</mgrwt>
</event>
<event>
 4    1  0.4862093E-001  0.9556972E+02  0.7546771E-02  0.1289898E+00
         -2   -1    0    0    0  501 -0.00000000000E+00  0.00000000000E+00  0.13200088732E+03  0.13200088732E+03  0.00000000000E+00 0.  1.
          2   -1    0    0  501    0  0.00000000000E+00 -0.00000000000E+00 -0.73869470200E+02  0.73869470200E+02  0.00000000000E+00 0. -1.
         24    1    1    2    0    0 -0.14260475335E+02 -0.49628524591E+02  0.54964518243E+02  0.11024820103E+03  0.80419002446E+02 0.  0.
        -24    1    1    2    0    0  0.14260475335E+02  0.49628524591E+02  0.31668988794E+01  0.95622156495E+02  0.80419002446E+02 0.  0.
<mgrwt>
<rscale>  0 0.95569712E+02</rscale>
<asrwt>0</asrwt>
<pdfrwt beam="1">  1        2 0.11364534E-01 0.95569724E+02</pdfrwt>
<pdfrwt beam="2">  1       -2 0.20307829E-01 0.95569724E+02</pdfrwt>
<totfact> 0.10161488E+04</totfact>
</mgrwt>
</event>
<event>
 4    1  0.4862093E-001  0.1207910E+03  0.7546771E-02  0.1241798E+00
          2   -1    0    0  501    0  0.00000000000E+00  0.00000000000E+00  0.49946354890E+02  0.49946354890E+02  0.00000000000E+00 0. -1.
         -2   -1    0    0    0  501 -0.00000000000E+00 -0.00000000000E+00 -0.29233259045E+03  0.29233259045E+03  0.00000000000E+00 0.  1.
         24    1    1    2    0    0 -0.72265401774E+02  0.53860573245E+02 -0.11660773330E+03  0.16789231389E+03  0.80419002446E+02 0.  1.
        -24    1    1    2    0    0  0.72265401774E+02 -0.53860573245E+02 -0.12577850226E+03  0.17438663145E+03  0.80419002446E+02 0. -1.
<mgrwt>
<rscale>  0 0.12079100E+03</rscale>
<asrwt>0</asrwt>
<pdfrwt beam="1">  1        2 0.76840547E-02 0.12079100E+03</pdfrwt>
<pdfrwt beam="2">  1       -2 0.44974244E-01 0.12079100E+03</pdfrwt>
<totfact> 0.40156791E+03</totfact>
</mgrwt>
</event>
<event>
 4    1  0.4862093E-001  0.1207223E+03  0.7546771E-02  0.1241910E+00
         -2   -1    0    0    0  501 -0.00000000000E+00  0.00000000000E+00  0.42952436706E+02  0.42952436706E+02  0.00000000000E+00 0.  1.
          2   -1    0    0  501    0  0.00000000000E+00 -0.00000000000E+00 -0.89879006976E+03  0.89879006976E+03  0.00000000000E+00 0. -1.
         24    1    1    2    0    0  0.68596494232E+02 -0.58319596387E+02 -0.79942688948E+03  0.80849070615E+03  0.80419002446E+02 0. -1.
        -24    1    1    2    0    0 -0.68596494232E+02  0.58319596387E+02 -0.56410743570E+02  0.13325180032E+03  0.80419002446E+02 0.  1.
<mgrwt>
<rscale>  0 0.12072229E+03</rscale>
<asrwt>0</asrwt>
<pdfrwt beam="1">  1        2 0.13827540E+00 0.12072229E+03</pdfrwt>
<pdfrwt beam="2">  1       -2 0.66080671E-02 0.12072229E+03</pdfrwt>
<totfact> 0.37815870E+03</totfact>
</mgrwt>
</event>
<event>
 4    1  0.4862093E-001  0.1565925E+03  0.7546771E-02  0.1192598E+00
          4   -1    0    0  501    0  0.00000000000E+00  0.00000000000E+00  0.10188689449E+03  0.10188689449E+03  0.00000000000E+00 0. -1.
         -4   -1    0    0    0  501 -0.00000000000E+00 -0.00000000000E+00 -0.31565410076E+03  0.31565410076E+03  0.00000000000E+00 0.  1.
         24    1    1    2    0    0  0.81464284543E+02  0.10685307799E+03 -0.51311328984E+01  0.15667659178E+03  0.80419002446E+02 0.  0.
        -24    1    1    2    0    0 -0.81464284543E+02 -0.10685307799E+03 -0.20863607338E+03  0.26086440347E+03  0.80419002446E+02 0.  1.
<mgrwt>
<rscale>  0 0.15659255E+03</rscale>
<asrwt>0</asrwt>
<pdfrwt beam="1">  1        4 0.15674907E-01 0.15659255E+03</pdfrwt>
<pdfrwt beam="2">  1       -4 0.48562169E-01 0.15659255E+03</pdfrwt>
<totfact> 0.24554536E+02</totfact>
</mgrwt>
</event>
<event>
 4    1  0.4862093E-001  0.1152313E+03  0.7546771E-02  0.1251178E+00
          1   -1    0    0  501    0  0.00000000000E+00  0.00000000000E+00  0.25475200964E+03  0.25475200964E+03  0.00000000000E+00 0. -1.
         -1   -1    0    0    0  501 -0.00000000000E+00 -0.00000000000E+00 -0.56327361477E+02  0.56327361477E+02  0.00000000000E+00 0.  1.
         24    1    1    2    0    0 -0.20644561826E+02 -0.79905256775E+02  0.56714467819E+02  0.12843206301E+03  0.80419002446E+02 0.  0.
        -24    1    1    2    0    0  0.20644561826E+02  0.79905256775E+02  0.14171018034E+03  0.18264730811E+03  0.80419002446E+02 0. -1.
<mgrwt>
<rscale>  0 0.11523135E+03</rscale>
<asrwt>0</asrwt>
<pdfrwt beam="1">  1        1 0.39192616E-01 0.11523135E+03</pdfrwt>
<pdfrwt beam="2">  1       -1 0.86657481E-02 0.11523135E+03</pdfrwt>
<totfact> 0.76975923E+03</totfact>
</mgrwt>
</event>
<event>
 4    1  0.4862093E-001  0.9134955E+02  0.7546771E-02  0.1299616E+00
          2   -1    0    0  501    0  0.00000000000E+00  0.00000000000E+00  0.31924378323E+03  0.31924378323E+03  0.00000000000E+00 0. -1.
         -2   -1    0    0    0  501 -0.00000000000E+00 -0.00000000000E+00 -0.22085688716E+03  0.22085688716E+03  0.00000000000E+00 0.  1.
         24    1    1    2    0    0 -0.18078974084E+01 -0.43292683384E+02  0.30276006418E+03  0.31624104311E+03  0.80419002446E+02 0. -1.
        -24    1    1    2    0    0  0.18078974084E+01  0.43292683384E+02 -0.20437316812E+03  0.22385962728E+03  0.80419002446E+02 0.  1.
<mgrwt>
<rscale>  0 0.91349553E+02</rscale>
<asrwt>0</asrwt>
<pdfrwt beam="1">  1        2 0.49114428E-01 0.91349553E+02</pdfrwt>
<pdfrwt beam="2">  1       -2 0.33977983E-01 0.91349553E+02</pdfrwt>
<totfact> 0.81889891E+02</totfact>
</mgrwt>
</event>
<event>
 4    1  0.4862093E-001  0.9055044E+02  0.7546771E-02  0.1301524E+00
         -2   -1    0    0    0  501 -0.00000000000E+00  0.00000000000E+00  0.16338526669E+03  0.16338526669E+03  0.00000000000E+00 0.  1.
          2   -1    0    0  501    0  0.00000000000E+00 -0.00000000000E+00 -0.68987822817E+02  0.68987822817E+02  0.00000000000E+00 0. -1.
         24    1    1    2    0    0 -0.23367735366E+02  0.34440033904E+02 -0.13459361323E+02  0.91545274881E+02  0.80419002446E+02 0. -1.
        -24    1    1    2    0    0  0.23367735366E+02 -0.34440033904E+02  0.10785680520E+03  0.14082781463E+03  0.80419002446E+02 0.  1.
<mgrwt>
<rscale>  0 0.90550444E+02</rscale>
<asrwt>0</asrwt>
<pdfrwt beam="1">  1        2 0.10613511E-01 0.90550444E+02</pdfrwt>
<pdfrwt beam="2">  1       -2 0.25136195E-01 0.90550444E+02</pdfrwt>
<totfact> 0.76281618E+03</totfact>
</mgrwt>
</event>
<event>
 4    1  0.4862093E-001  0.1406157E+03  0.7546771E-02  0.1212503E+00
         -2   -1    0    0    0  501 -0.00000000000E+00  0.00000000000E+00  0.13990454134E+03  0.13990454134E+03  0.00000000000E+00 0.  1.
          2   -1    0    0  501    0  0.00000000000E+00 -0.00000000000E+00 -0.17643179509E+03  0.17643179509E+03  0.00000000000E+00 0. -1.
         24    1    1    2    0    0 -0.70849091113E+02 -0.91027348779E+02 -0.88812783416E+02  0.16631445635E+03  0.80419002446E+02 0. -1.
        -24    1    1    2    0    0  0.70849091113E+02  0.91027348779E+02  0.52285529671E+02  0.15002188009E+03  0.80419002446E+02 0.  1.
<mgrwt>
<rscale>  0 0.14061575E+03</rscale>
<asrwt>0</asrwt>
<pdfrwt beam="1">  1        2 0.27143353E-01 0.14061575E+03</pdfrwt>
<pdfrwt beam="2">  1       -2 0.21523776E-01 0.14061575E+03</pdfrwt>
<totfact> 0.34985635E+03</totfact>
</mgrwt>
</event>
<event>
 4    1  0.4862093E-001  0.1105516E+03  0.7546771E-02  0.1259552E+00
          2   -1    0    0  501    0  0.00000000000E+00  0.00000000000E+00  0.33908829135E+02  0.33908829135E+02  0.00000000000E+00 0. -1.
         -2   -1    0    0    0  501 -0.00000000000E+00 -0.00000000000E+00 -0.57074594942E+03  0.57074594942E+03  0.00000000000E+00 0.  1.
         24    1    1    2    0    0 -0.24540717915E+02 -0.71778759717E+02 -0.84893484696E+02  0.13938635830E+03  0.80419002446E+02 0. -1.
        -24    1    1    2    0    0  0.24540717915E+02  0.71778759717E+02 -0.45194363558E+03  0.46526842025E+03  0.80419002446E+02 0.  1.
<mgrwt>
<rscale>  0 0.11055159E+03</rscale>
<asrwt>0</asrwt>
<pdfrwt beam="1">  1        2 0.52167429E-02 0.11055159E+03</pdfrwt>
<pdfrwt beam="2">  1       -2 0.87807069E-01 0.11055159E+03</pdfrwt>
<totfact> 0.16359432E+03</totfact>
</mgrwt>
</event>
<event>
 4    1  0.4862093E-001  0.9966654E+02  0.7546771E-02  0.1280999E+00
         -2   -1    0    0    0  501 -0.00000000000E+00  0.00000000000E+00  0.27233898371E+03  0.27233898371E+03  0.00000000000E+00 0.  1.
          2   -1    0    0  501    0  0.00000000000E+00 -0.00000000000E+00 -0.40827260167E+02  0.40827260167E+02  0.00000000000E+00 0. -1.
         24    1    1    2    0    0  0.58874460513E+02  0.43542117915E-01  0.64628460215E+02  0.11878660623E+03  0.80419002446E+02 0.  0.
        -24    1    1    2    0    0 -0.58874460513E+02 -0.43542117915E-01  0.16688326333E+03  0.19437963764E+03  0.80419002446E+02 0. -1.
<mgrwt>
<rscale>  0 0.99666544E+02</rscale>
<asrwt>0</asrwt>
<pdfrwt beam="1">  1        2 0.62811171E-02 0.99666544E+02</pdfrwt>
<pdfrwt beam="2">  1       -2 0.41898304E-01 0.99666544E+02</pdfrwt>
<totfact> 0.58429126E+03</totfact>
</mgrwt>
</event>
<event>
 4    1  0.4862093E-001  0.8065321E+02  0.7546771E-02  0.1327208E+00
          2   -1    0    0  501    0  0.00000000000E+00  0.00000000000E+00  0.56931600789E+03  0.56931600789E+03  0.00000000000E+00 0. -1.
         -2   -1    0    0    0  501 -0.00000000000E+00 -0.00000000000E+00 -0.11840239410E+02  0.11840239410E+02  0.00000000000E+00 0.  1.
         24    1    1    2    0    0  0.59046666530E+01 -0.16910409311E+01  0.33309636894E+03  0.34272165333E+03  0.80419002446E+02 0. -1.
        -24    1    1    2    0    0 -0.59046666530E+01  0.16910409311E+01  0.22437939954E+03  0.23843459397E+03  0.80419002446E+02 0. -1.
<mgrwt>
<rscale>  0 0.80653212E+02</rscale>
<asrwt>0</asrwt>
<pdfrwt beam="1">  1        2 0.87587057E-01 0.80653212E+02</pdfrwt>
<pdfrwt beam="2">  1       -2 0.18215757E-02 0.80653212E+02</pdfrwt>
<totfact> 0.41751735E+04</totfact>
</mgrwt>
</event>
<event>
 4    1  0.4862093E-001  0.8316606E+02  0.7546771E-02  0.1320299E+00
          2   -1    0    0  501    0  0.00000000000E+00  0.00000000000E+00  0.14468959012E+03  0.14468959012E+03  0.00000000000E+00 0. -1.
         -2   -1    0    0    0  501 -0.00000000000E+00 -0.00000000000E+00 -0.56892366882E+02  0.56892366882E+02  0.00000000000E+00 0.  1.
         24    1    1    2    0    0  0.88185129235E+00 -0.21180165814E+02  0.84185344101E+02  0.11833750547E+03  0.80419002446E+02 0.  1.
        -24    1    1    2    0    0 -0.88185129235E+00  0.21180165814E+02  0.36118791397E+01  0.83244451532E+02  0.80419002446E+02 0.  1.
<mgrwt>
<rscale>  0 0.83166057E+02</rscale>
<asrwt>0</asrwt>
<pdfrwt beam="1">  1        2 0.22259937E-01 0.83166057E+02</pdfrwt>
<pdfrwt beam="2">  1       -2 0.87526719E-02 0.83166057E+02</pdfrwt>
<totfact> 0.17808188E+04</totfact>
</mgrwt>
</event>
<event>
 4    1  0.4862093E-001  0.8044849E+02  0.7546771E-02  0.1327783E+00
         -1   -1    0    0    0  501 -0.00000000000E+00  0.00000000000E+00  0.68098366071E+01  0.68098366071E+01  0.00000000000E+00 0.  1.
          1   -1    0    0  501    0  0.00000000000E+00 -0.00000000000E+00 -0.95356858008E+03  0.95356858008E+03  0.00000000000E+00 0. -1.
         24    1    1    2    0    0 -0.19077341091E+01  0.10506375190E+01 -0.44562907494E+03  0.45283245430E+03  0.80419002446E+02 0.  0.
        -24    1    1    2    0    0  0.19077341091E+01 -0.10506375190E+01 -0.50112966853E+03  0.50754596238E+03  0.80419002446E+02 0.  0.
<mgrwt>
<rscale>  0 0.80448488E+02</rscale>
<asrwt>0</asrwt>
<pdfrwt beam="1">  1        1 0.14670285E+00 0.80448488E+02</pdfrwt>
<pdfrwt beam="2">  1       -1 0.10476672E-02 0.80448488E+02</pdfrwt>
<totfact> 0.27514173E+04</totfact>
</mgrwt>
</event>
<event>
 4    1  0.4862093E-001  0.8212812E+02  0.7546771E-02  0.1323118E+00
          2   -1    0    0  501    0  0.00000000000E+00  0.00000000000E+00  0.56820348681E+03  0.56820348681E+03  0.00000000000E+00 0. -1.
         -2   -1    0    0    0  501 -0.00000000000E+00 -0.00000000000E+00 -0.15560579308E+02  0.15560579308E+02  0.00000000000E+00 0.  1.
         24    1    1    2    0    0  0.95967337900E+01  0.13627703180E+02  0.41845445493E+03  0.42643775442E+03  0.80419002446E+02 0. -1.
        -24    1    1    2    0    0 -0.95967337900E+01 -0.13627703180E+02  0.13418845258E+03  0.15732631170E+03  0.80419002446E+02 0.  1.
<mgrwt>
<rscale>  0 0.82128117E+02</rscale>
<asrwt>0</asrwt>
<pdfrwt beam="1">  1        2 0.87415905E-01 0.82128117E+02</pdfrwt>
<pdfrwt beam="2">  1       -2 0.23939357E-02 0.82128117E+02</pdfrwt>
<totfact> 0.28340598E+04</totfact>
</mgrwt>
</event>
<event>
 4    1  0.4862093E-001  0.1043010E+03  0.7546771E-02  0.1271503E+00
          1   -1    0    0  501    0  0.00000000000E+00  0.00000000000E+00  0.12944808018E+04  0.12944808018E+04  0.00000000000E+00 0. -1.
         -1   -1    0    0    0  501 -0.00000000000E+00 -0.00000000000E+00 -0.84899517255E+01  0.84899517255E+01  0.00000000000E+00 0.  1.
         24    1    1    2    0    0  0.36337669891E+02  0.55597261057E+02  0.57740936965E+03  0.58675401814E+03  0.80419002446E+02 0.  1.
        -24    1    1    2    0    0 -0.36337669891E+02 -0.55597261057E+02  0.70858148039E+03  0.71621673535E+03  0.80419002446E+02 0.  0.
<mgrwt>
<rscale>  0 0.10430100E+03</rscale>
<asrwt>0</asrwt>
<pdfrwt beam="1">  1        1 0.19915074E+00 0.10430100E+03</pdfrwt>
<pdfrwt beam="2">  1       -1 0.13061474E-02 0.10430100E+03</pdfrwt>
<totfact> 0.11964343E+04</totfact>
</mgrwt>
</event>
<event>
 4    1  0.4862093E-001  0.8601667E+02  0.7546771E-02  0.1312795E+00
          2   -1    0    0  501    0  0.00000000000E+00  0.00000000000E+00  0.18414256630E+04  0.18414256630E+04  0.00000000000E+00 0. -1.
         -2   -1    0    0    0  501 -0.00000000000E+00 -0.00000000000E+00 -0.61719088378E+01  0.61719088378E+01  0.00000000000E+00 0.  1.
         24    1    1    2    0    0  0.15449587563E+02  0.26324179891E+02  0.14633598677E+04  0.14658857291E+04  0.80419002446E+02 0. -1.
        -24    1    1    2    0    0 -0.15449587563E+02 -0.26324179891E+02  0.37189388645E+03  0.38171184280E+03  0.80419002446E+02 0.  1.
<mgrwt>
<rscale>  0 0.86016674E+02</rscale>
<asrwt>0</asrwt>
<pdfrwt beam="1">  1        2 0.28329582E+00 0.86016674E+02</pdfrwt>
<pdfrwt beam="2">  1       -2 0.94952591E-03 0.86016674E+02</pdfrwt>
<totfact> 0.19534183E+04</totfact>
</mgrwt>
</event>
<event>
 4    1  0.4862093E-001  0.1031301E+03  0.7546771E-02  0.1273848E+00
         -2   -1    0    0    0  501 -0.00000000000E+00  0.00000000000E+00  0.57980390931E+03  0.57980390931E+03  0.00000000000E+00 0.  1.
          2   -1    0    0  501    0  0.00000000000E+00 -0.00000000000E+00 -0.33192523703E+02  0.33192523703E+02  0.00000000000E+00 0. -1.
         24    1    1    2    0    0  0.32626566520E+02  0.55714557356E+02  0.68306556607E+02  0.12369966198E+03  0.80419002446E+02 0. -1.
        -24    1    1    2    0    0 -0.32626566520E+02 -0.55714557356E+02  0.47830482900E+03  0.48929677103E+03  0.80419002446E+02 0.  1.
<mgrwt>
<rscale>  0 0.10313012E+03</rscale>
<asrwt>0</asrwt>
<pdfrwt beam="1">  1        2 0.51065425E-02 0.10313012E+03</pdfrwt>
<pdfrwt beam="2">  1       -2 0.89200594E-01 0.10313012E+03</pdfrwt>
<totfact> 0.16165223E+03</totfact>
</mgrwt>
</event>
<event>
 4    1  0.4862093E-001  0.8829448E+02  0.7546771E-02  0.1307035E+00
          2   -1    0    0  501    0  0.00000000000E+00  0.00000000000E+00  0.20872287342E+02  0.20872287342E+02  0.00000000000E+00 0. -1.
         -2   -1    0    0    0  501 -0.00000000000E+00 -0.00000000000E+00 -0.66933549199E+03  0.66933549199E+03  0.00000000000E+00 0.  1.
         24    1    1    2    0    0  0.16631112474E+02  0.32436176200E+02 -0.94802247673E+02  0.12955069103E+03  0.80419002446E+02 0. -1.
        -24    1    1    2    0    0 -0.16631112474E+02 -0.32436176200E+02 -0.55366095697E+03  0.56065708830E+03  0.80419002446E+02 0.  1.
<mgrwt>
<rscale>  0 0.88294481E+02</rscale>
<asrwt>0</asrwt>
<pdfrwt beam="1">  1        2 0.32111208E-02 0.88294481E+02</pdfrwt>
<pdfrwt beam="2">  1       -2 0.10297470E+00 0.88294481E+02</pdfrwt>
<totfact> 0.21188014E+03</totfact>
</mgrwt>
</event>
<event>
 4    1  0.4862093E-001  0.8291322E+02  0.7546771E-02  0.1320982E+00
          2   -1    0    0  501    0  0.00000000000E+00  0.00000000000E+00  0.43551896227E+03  0.43551896227E+03  0.00000000000E+00 0. -1.
         -2   -1    0    0    0  501 -0.00000000000E+00 -0.00000000000E+00 -0.21900858739E+02  0.21900858739E+02  0.00000000000E+00 0.  1.
         24    1    1    2    0    0 -0.15046357777E+02  0.13453373379E+02  0.32767067192E+03  0.33799803450E+03  0.80419002446E+02 0. -1.
        -24    1    1    2    0    0  0.15046357777E+02 -0.13453373379E+02  0.85947431621E+02  0.11942178651E+03  0.80419002446E+02 0.  0.
<mgrwt>
<rscale>  0 0.82913220E+02</rscale>
<asrwt>0</asrwt>
<pdfrwt beam="1">  1        2 0.67002911E-01 0.82913220E+02</pdfrwt>
<pdfrwt beam="2">  1       -2 0.33693632E-02 0.82913220E+02</pdfrwt>
<totfact> 0.23032465E+04</totfact>
</mgrwt>
</event>
<event>
 4    1  0.4862093E-001  0.1007961E+03  0.7546771E-02  0.1278631E+00
          2   -1    0    0  501    0  0.00000000000E+00  0.00000000000E+00  0.10995398944E+04  0.10995398944E+04  0.00000000000E+00 0. -1.
         -2   -1    0    0    0  501 -0.00000000000E+00 -0.00000000000E+00 -0.10308343733E+02  0.10308343733E+02  0.00000000000E+00 0.  1.
         24    1    1    2    0    0 -0.29912802073E+02  0.52894798514E+02  0.72325452109E+03  0.73024444788E+03  0.80419002446E+02 0. -1.
        -24    1    1    2    0    0  0.29912802073E+02 -0.52894798514E+02  0.36597702959E+03  0.37960379026E+03  0.80419002446E+02 0.  0.
<mgrwt>
<rscale>  0 0.10079609E+03</rscale>
<asrwt>0</asrwt>
<pdfrwt beam="1">  1        2 0.16915989E+00 0.10079609E+03</pdfrwt>
<pdfrwt beam="2">  1       -2 0.15858999E-02 0.10079609E+03</pdfrwt>
<totfact> 0.23151214E+04</totfact>
</mgrwt>
</event>
<event>
 4    1  0.4862093E-001  0.1185504E+03  0.7546771E-02  0.1245508E+00
          2   -1    0    0  501    0  0.00000000000E+00  0.00000000000E+00  0.22913230650E+04  0.22913230650E+04  0.00000000000E+00 0. -1.
         -2   -1    0    0    0  501 -0.00000000000E+00 -0.00000000000E+00 -0.11149739356E+02  0.11149739356E+02  0.00000000000E+00 0.  1.
         24    1    1    2    0    0 -0.28424578523E+02  0.82334896195E+02  0.19122588330E+04  0.19159300750E+04  0.80419002446E+02 0. -1.
        -24    1    1    2    0    0  0.28424578523E+02 -0.82334896195E+02  0.36791449260E+03  0.38654272935E+03  0.80419002446E+02 0.  1.
<mgrwt>
<rscale>  0 0.11855044E+03</rscale>
<asrwt>0</asrwt>
<pdfrwt beam="1">  1        2 0.35251087E+00 0.11855044E+03</pdfrwt>
<pdfrwt beam="2">  1       -2 0.17153463E-02 0.11855044E+03</pdfrwt>
<totfact> 0.50262935E+03</totfact>
</mgrwt>
</event>
<event>
 4    1  0.4862093E-001  0.8669376E+02  0.7546771E-02  0.1311062E+00
         -1   -1    0    0    0  501 -0.00000000000E+00  0.00000000000E+00  0.33012253627E+02  0.33012253627E+02  0.00000000000E+00 0.  1.
          1   -1    0    0  501    0  0.00000000000E+00 -0.00000000000E+00 -0.23686550969E+03  0.23686550969E+03  0.00000000000E+00 0. -1.
         24    1    1    2    0    0  0.20788531081E+02  0.24827988836E+02 -0.75335317920E+02  0.11485302841E+03  0.80419002446E+02 0.  1.
        -24    1    1    2    0    0 -0.20788531081E+02 -0.24827988836E+02 -0.12851793814E+03  0.15502473491E+03  0.80419002446E+02 0. -1.
<mgrwt>
<rscale>  0 0.86693760E+02</rscale>
<asrwt>0</asrwt>
<pdfrwt beam="1">  1        1 0.36440847E-01 0.86693760E+02</pdfrwt>
<pdfrwt beam="2">  1       -1 0.50788083E-02 0.86693760E+02</pdfrwt>
<totfact> 0.18124298E+04</totfact>
</mgrwt>
</event>
<event>
 4    1  0.4862093E-001  0.9208867E+02  0.7546771E-02  0.1297871E+00
         -1   -1    0    0    0  501 -0.00000000000E+00  0.00000000000E+00  0.28390274828E+02  0.28390274828E+02  0.00000000000E+00 0.  1.
          1   -1    0    0  501    0  0.00000000000E+00 -0.00000000000E+00 -0.48784789338E+03  0.48784789338E+03  0.00000000000E+00 0. -1.
         24    1    1    2    0    0 -0.17510950453E+02 -0.41309480536E+02 -0.69007785195E+02  0.11507561401E+03  0.80419002446E+02 0.  1.
        -24    1    1    2    0    0  0.17510950453E+02  0.41309480536E+02 -0.39044983335E+03  0.40116255419E+03  0.80419002446E+02 0.  0.
<mgrwt>
<rscale>  0 0.92088667E+02</rscale>
<asrwt>0</asrwt>
<pdfrwt beam="1">  1        1 0.75053518E-01 0.92088667E+02</pdfrwt>
<pdfrwt beam="2">  1       -1 0.43677348E-02 0.92088667E+02</pdfrwt>
<totfact> 0.93144476E+03</totfact>
</mgrwt>
</event>
<event>
 4    1  0.4862093E-001  0.9023876E+02  0.7546771E-02  0.1302275E+00
          2   -1    0    0  501    0  0.00000000000E+00  0.00000000000E+00  0.67581973294E+03  0.67581973294E+03  0.00000000000E+00 0. -1.
         -2   -1    0    0    0  501 -0.00000000000E+00 -0.00000000000E+00 -0.12417341388E+02  0.12417341388E+02  0.00000000000E+00 0.  1.
         24    1    1    2    0    0  0.31898808275E+02 -0.25657057713E+02  0.39095919402E+03  0.40123824085E+03  0.80419002446E+02 0. -1.
        -24    1    1    2    0    0 -0.31898808275E+02  0.25657057713E+02  0.27244319754E+03  0.28699883348E+03  0.80419002446E+02 0.  1.
<mgrwt>
<rscale>  0 0.90238764E+02</rscale>
<asrwt>0</asrwt>
<pdfrwt beam="1">  1        2 0.10397224E+00 0.90238764E+02</pdfrwt>
<pdfrwt beam="2">  1       -2 0.19103607E-02 0.90238764E+02</pdfrwt>
<totfact> 0.32576734E+04</totfact>
</mgrwt>
</event>
<event>
 4    1  0.4862093E-001  0.9082393E+02  0.7546771E-02  0.1300869E+00
         -1   -1    0    0    0  501 -0.00000000000E+00  0.00000000000E+00  0.58242375953E+02  0.58242375953E+02  0.00000000000E+00 0.  1.
          1   -1    0    0  501    0  0.00000000000E+00 -0.00000000000E+00 -0.29401065462E+03  0.29401065462E+03  0.00000000000E+00 0. -1.
         24    1    1    2    0    0 -0.41496958884E+02  0.77313334500E+01  0.89117590161E+01  0.91260103641E+02  0.80419002446E+02 0.  1.
        -24    1    1    2    0    0  0.41496958884E+02 -0.77313334500E+01 -0.24468003768E+03  0.26099292693E+03  0.80419002446E+02 0. -1.
<mgrwt>
<rscale>  0 0.90823934E+02</rscale>
<asrwt>0</asrwt>
<pdfrwt beam="1">  1        1 0.45232409E-01 0.90823934E+02</pdfrwt>
<pdfrwt beam="2">  1       -1 0.89603655E-02 0.90823934E+02</pdfrwt>
<totfact> 0.60356828E+03</totfact>
</mgrwt>
</event>
<event>
 4    1  0.4862093E-001  0.1380276E+03  0.7546771E-02  0.1216008E+00
          4   -1    0    0  501    0  0.00000000000E+00  0.00000000000E+00  0.87401635376E+02  0.87401635376E+02  0.00000000000E+00 0. -1.
         -4   -1    0    0    0  501 -0.00000000000E+00 -0.00000000000E+00 -0.22558772428E+03  0.22558772428E+03  0.00000000000E+00 0.  1.
         24    1    1    2    0    0  0.10902509614E+03  0.26418283336E+02 -0.97836103018E+02  0.16918485834E+03  0.80419002446E+02 0.  1.
        -24    1    1    2    0    0 -0.10902509614E+03 -0.26418283336E+02 -0.40349985888E+02  0.14380450132E+03  0.80419002446E+02 0. -1.
<mgrwt>
<rscale>  0 0.13802760E+03</rscale>
<asrwt>0</asrwt>
<pdfrwt beam="1">  1        4 0.13446405E-01 0.13802762E+03</pdfrwt>
<pdfrwt beam="2">  1       -4 0.34705804E-01 0.13802762E+03</pdfrwt>
<totfact> 0.60950359E+02</totfact>
</mgrwt>
</event>
<event>
 4    1  0.4862093E-001  0.8114657E+02  0.7546771E-02  0.1325829E+00
          1   -1    0    0  501    0  0.00000000000E+00  0.00000000000E+00  0.71046415570E+01  0.71046415570E+01  0.00000000000E+00 0. -1.
         -1   -1    0    0    0  501 -0.00000000000E+00 -0.00000000000E+00 -0.25830682843E+04  0.25830682843E+04  0.00000000000E+00 0.  1.
         24    1    1    2    0    0 -0.29578726732E+01 -0.10430797344E+02 -0.23250152468E+04  0.23264308854E+04  0.80419002446E+02 0.  1.
        -24    1    1    2    0    0  0.29578726732E+01  0.10430797344E+02 -0.25094839588E+03  0.26374204044E+03  0.80419002446E+02 0. -1.
<mgrwt>
<rscale>  0 0.81146574E+02</rscale>
<asrwt>0</asrwt>
<pdfrwt beam="1">  1        1 0.10930195E-02 0.81146574E+02</pdfrwt>
<pdfrwt beam="2">  1       -1 0.39739593E+00 0.81146574E+02</pdfrwt>
<totfact> 0.13323662E+02</totfact>
</mgrwt>
</event>
<event>
 4    1  0.4862093E-001  0.9727731E+02  0.7546771E-02  0.1286128E+00
         -1   -1    0    0    0  501 -0.00000000000E+00  0.00000000000E+00  0.53758497729E+03  0.53758497729E+03  0.00000000000E+00 0.  1.
          1   -1    0    0  501    0  0.00000000000E+00 -0.00000000000E+00 -0.21623076265E+02  0.21623076265E+02  0.00000000000E+00 0. -1.
         24    1    1    2    0    0 -0.13324553198E+02  0.53085917879E+02  0.37854708555E+03  0.39084622338E+03  0.80419002446E+02 0.  1.
        -24    1    1    2    0    0  0.13324553198E+02 -0.53085917879E+02  0.13741481548E+03  0.16836183018E+03  0.80419002446E+02 0. -1.
<mgrwt>
<rscale>  0 0.97277306E+02</rscale>
<asrwt>0</asrwt>
<pdfrwt beam="1">  1        1 0.33266275E-02 0.97277306E+02</pdfrwt>
<pdfrwt beam="2">  1       -1 0.82705371E-01 0.97277306E+02</pdfrwt>
<totfact> 0.41894943E+03</totfact>
</mgrwt>
</event>
<event>
 4    1  0.4862093E-001  0.9042392E+02  0.7546771E-02  0.1301828E+00
          1   -1    0    0  501    0  0.00000000000E+00  0.00000000000E+00  0.39948831710E+02  0.39948831710E+02  0.00000000000E+00 0. -1.
         -1   -1    0    0    0  501 -0.00000000000E+00 -0.00000000000E+00 -0.38331486083E+03  0.38331486083E+03  0.00000000000E+00 0.  1.
         24    1    1    2    0    0 -0.25310229058E+02  0.32690401565E+02 -0.31615832274E+03  0.32883517306E+03  0.80419002446E+02 0.  1.
        -24    1    1    2    0    0  0.25310229058E+02 -0.32690401565E+02 -0.27207706373E+02  0.94428519473E+02  0.80419002446E+02 0. -1.
<mgrwt>
<rscale>  0 0.90423924E+02</rscale>
<asrwt>0</asrwt>
<pdfrwt beam="1">  1        1 0.61459744E-02 0.90423924E+02</pdfrwt>
<pdfrwt beam="2">  1       -1 0.58971514E-01 0.90423924E+02</pdfrwt>
<totfact> 0.35135394E+03</totfact>
</mgrwt>
</event>
<event>
 4    1  0.4862093E-001  0.1062071E+03  0.7546771E-02  0.1267759E+00
          2   -1    0    0  501    0  0.00000000000E+00  0.00000000000E+00  0.35885969318E+04  0.35885969318E+04  0.00000000000E+00 0. -1.
         -2   -1    0    0    0  501 -0.00000000000E+00 -0.00000000000E+00 -0.45071130489E+01  0.45071130489E+01  0.00000000000E+00 0.  1.
         24    1    1    2    0    0  0.36056342275E+02  0.59267869352E+02  0.27803057108E+04  0.27823335173E+04  0.80419002446E+02 0. -1.
        -24    1    1    2    0    0 -0.36056342275E+02 -0.59267869352E+02  0.80378410792E+03  0.81077052750E+03  0.80419002446E+02 0.  1.
<mgrwt>
<rscale>  0 0.10620714E+03</rscale>
<asrwt>0</asrwt>
<pdfrwt beam="1">  1        2 0.55208955E+00 0.10620714E+03</pdfrwt>
<pdfrwt beam="2">  1       -2 0.69340488E-03 0.10620714E+03</pdfrwt>
<totfact> 0.32926602E+03</totfact>
</mgrwt>
</event>
<event>
 4    1  0.4862093E-001  0.1253645E+03  0.7546771E-02  0.1234501E+00
         -3   -1    0    0    0  501 -0.00000000000E+00  0.00000000000E+00  0.95662324849E+02  0.95662324849E+02  0.00000000000E+00 0.  1.
          3   -1    0    0  501    0  0.00000000000E+00 -0.00000000000E+00 -0.68830719780E+03  0.68830719780E+03  0.00000000000E+00 0. -1.
         24    1    1    2    0    0 -0.62865073110E+02 -0.72780744041E+02  0.45697327183E+02  0.13343356319E+03  0.80419002446E+02 0.  1.
        -24    1    1    2    0    0  0.62865073110E+02  0.72780744041E+02 -0.63834220014E+03  0.65053595946E+03  0.80419002446E+02 0. -1.
<mgrwt>
<rscale>  0 0.12536455E+03</rscale>
<asrwt>0</asrwt>
<pdfrwt beam="1">  1        3 0.10589341E+00 0.12536455E+03</pdfrwt>
<pdfrwt beam="2">  1       -3 0.14717281E-01 0.12536455E+03</pdfrwt>
<totfact> 0.71288954E+01</totfact>
</mgrwt>
</event>
<event>
 4    1  0.4862093E-001  0.9048286E+02  0.7546771E-02  0.1301687E+00
         -1   -1    0    0    0  501 -0.00000000000E+00  0.00000000000E+00  0.70537967946E+01  0.70537967946E+01  0.00000000000E+00 0.  1.
          1   -1    0    0  501    0  0.00000000000E+00 -0.00000000000E+00 -0.12370680721E+04  0.12370680721E+04  0.00000000000E+00 0. -1.
         24    1    1    2    0    0  0.25821270076E+02 -0.32452955589E+02 -0.46042115941E+03  0.46922786821E+03  0.80419002446E+02 0. -1.
        -24    1    1    2    0    0 -0.25821270076E+02  0.32452955589E+02 -0.76959311592E+03  0.77489400072E+03  0.80419002446E+02 0.  0.
<mgrwt>
<rscale>  0 0.90482862E+02</rscale>
<asrwt>0</asrwt>
<pdfrwt beam="1">  1        1 0.19031809E+00 0.90482862E+02</pdfrwt>
<pdfrwt beam="2">  1       -1 0.10851999E-02 0.90482862E+02</pdfrwt>
<totfact> 0.16814774E+04</totfact>
</mgrwt>
</event>
<event>
 4    1  0.4862093E-001  0.8714792E+02  0.7546771E-02  0.1309909E+00
         -2   -1    0    0    0  501 -0.00000000000E+00  0.00000000000E+00  0.94709702787E+02  0.94709702787E+02  0.00000000000E+00 0.  1.
          2   -1    0    0  501    0  0.00000000000E+00 -0.00000000000E+00 -0.18796359684E+03  0.18796359684E+03  0.00000000000E+00 0. -1.
         24    1    1    2    0    0  0.31506272892E+02  0.11614600977E+02 -0.15364926186E+03  0.17664330107E+03  0.80419002446E+02 0. -1.
        -24    1    1    2    0    0 -0.31506272892E+02 -0.11614600977E+02  0.60395367808E+02  0.10602999856E+03  0.80419002446E+02 0.  1.
<mgrwt>
<rscale>  0 0.87147921E+02</rscale>
<asrwt>0</asrwt>
<pdfrwt beam="1">  1        2 0.28917476E-01 0.87147921E+02</pdfrwt>
<pdfrwt beam="2">  1       -2 0.14570724E-01 0.87147921E+02</pdfrwt>
<totfact> 0.60483741E+03</totfact>
</mgrwt>
</event>
<event>
 4    1  0.4862093E-001  0.9056079E+02  0.7546771E-02  0.1301499E+00
          1   -1    0    0  501    0  0.00000000000E+00  0.00000000000E+00  0.44130226481E+02  0.44130226481E+02  0.00000000000E+00 0. -1.
         -1   -1    0    0    0  501 -0.00000000000E+00 -0.00000000000E+00 -0.35579874321E+03  0.35579874321E+03  0.00000000000E+00 0.  1.
         24    1    1    2    0    0 -0.36394064278E+02 -0.20236427438E+02 -0.29403795264E+03  0.30766796138E+03  0.80419002446E+02 0. -1.
        -24    1    1    2    0    0  0.36394064278E+02  0.20236427438E+02 -0.17630564085E+02  0.92261008310E+02  0.80419002446E+02 0.  0.
<mgrwt>
<rscale>  0 0.90560791E+02</rscale>
<asrwt>0</asrwt>
<pdfrwt beam="1">  1        1 0.67892655E-02 0.90560791E+02</pdfrwt>
<pdfrwt beam="2">  1       -1 0.54738269E-01 0.90560791E+02</pdfrwt>
<totfact> 0.35319268E+03</totfact>
</mgrwt>
</event>
<event>
 4    1  0.4862093E-001  0.8370000E+02  0.7546771E-02  0.1318868E+00
         -2   -1    0    0    0  501 -0.00000000000E+00  0.00000000000E+00  0.25128504319E+02  0.25128504319E+02  0.00000000000E+00 0.  1.
          2   -1    0    0  501    0  0.00000000000E+00 -0.00000000000E+00 -0.48320609008E+03  0.48320609008E+03  0.00000000000E+00 0. -1.
         24    1    1    2    0    0  0.86303118733E+01  0.21540484795E+02 -0.39435146578E+03  0.40313616717E+03  0.80419002446E+02 0. -1.
        -24    1    1    2    0    0 -0.86303118733E+01 -0.21540484795E+02 -0.63726119985E+02  0.10519842723E+03  0.80419002446E+02 0.  0.
<mgrwt>
<rscale>  0 0.83700004E+02</rscale>
<asrwt>0</asrwt>
<pdfrwt beam="1">  1        2 0.74339386E-01 0.83700004E+02</pdfrwt>
<pdfrwt beam="2">  1       -2 0.38659244E-02 0.83700004E+02</pdfrwt>
<totfact> 0.16886865E+04</totfact>
</mgrwt>
</event>
<event>
 4    1  0.4862093E-001  0.9371281E+02  0.7546771E-02  0.1294102E+00
         -2   -1    0    0    0  501 -0.00000000000E+00  0.00000000000E+00  0.41190947341E+01  0.41190947341E+01  0.00000000000E+00 0.  1.
          2   -1    0    0  501    0  0.00000000000E+00 -0.00000000000E+00 -0.28248698370E+04  0.28248698370E+04  0.00000000000E+00 0. -1.
         24    1    1    2    0    0 -0.23942718504E+02 -0.41732724340E+02 -0.21108850842E+04  0.21129642517E+04  0.80419002446E+02 0. -1.
        -24    1    1    2    0    0  0.23942718504E+02  0.41732724340E+02 -0.70986565806E+03  0.71602468009E+03  0.80419002446E+02 0.  1.
<mgrwt>
<rscale>  0 0.93712806E+02</rscale>
<asrwt>0</asrwt>
<pdfrwt beam="1">  1        2 0.43459457E+00 0.93712806E+02</pdfrwt>
<pdfrwt beam="2">  1       -2 0.63370803E-03 0.93712806E+02</pdfrwt>
<totfact> 0.10719617E+04</totfact>
</mgrwt>
</event>
<event>
 4    1  0.4862093E-001  0.1093039E+03  0.7546771E-02  0.1261864E+00
         -2   -1    0    0    0  501 -0.00000000000E+00  0.00000000000E+00  0.29397729322E+02  0.29397729322E+02  0.00000000000E+00 0.  1.
          2   -1    0    0  501    0  0.00000000000E+00 -0.00000000000E+00 -0.89379161511E+03  0.89379161511E+03  0.00000000000E+00 0. -1.
         24    1    1    2    0    0  0.40055642455E-01  0.74027843098E+02 -0.77306015452E+03  0.78074921814E+03  0.80419002446E+02 0. -1.
        -24    1    1    2    0    0 -0.40055642455E-01 -0.74027843098E+02 -0.91333731270E+02  0.14244012630E+03  0.80419002446E+02 0.  1.
<mgrwt>
<rscale>  0 0.10930388E+03</rscale>
<asrwt>0</asrwt>
<pdfrwt beam="1">  1        2 0.13750641E+00 0.10930388E+03</pdfrwt>
<pdfrwt beam="2">  1       -2 0.45227274E-02 0.10930388E+03</pdfrwt>
<totfact> 0.67038616E+03</totfact>
</mgrwt>
</event>
<event>
 4    1  0.4862093E-001  0.9189829E+02  0.7546771E-02  0.1298319E+00
          1   -1    0    0  501    0  0.00000000000E+00  0.00000000000E+00  0.66117574408E+02  0.66117574408E+02  0.00000000000E+00 0. -1.
         -1   -1    0    0    0  501 -0.00000000000E+00 -0.00000000000E+00 -0.14409168210E+03  0.14409168210E+03  0.00000000000E+00 0.  1.
         24    1    1    2    0    0 -0.41929149172E+02 -0.14833126803E+02 -0.35712082258E+01  0.91967628455E+02  0.80419002446E+02 0.  0.
        -24    1    1    2    0    0  0.41929149172E+02  0.14833126803E+02 -0.74402899465E+02  0.11824162805E+03  0.80419002446E+02 0.  0.
<mgrwt>
<rscale>  0 0.91898277E+02</rscale>
<asrwt>0</asrwt>
<pdfrwt beam="1">  1        1 0.10171935E-01 0.91898288E+02</pdfrwt>
<pdfrwt beam="2">  1       -1 0.22167951E-01 0.91898288E+02</pdfrwt>
<totfact> 0.96805144E+03</totfact>
</mgrwt>
</event>
<event>
 4    1  0.4862093E-001  0.8319032E+02  0.7546771E-02  0.1320234E+00
         -1   -1    0    0    0  501 -0.00000000000E+00  0.00000000000E+00  0.67077430106E+02  0.67077430106E+02  0.00000000000E+00 0.  1.
          1   -1    0    0  501    0  0.00000000000E+00 -0.00000000000E+00 -0.22517608277E+03  0.22517608277E+03  0.00000000000E+00 0. -1.
         24    1    1    2    0    0 -0.30224165694E+01  0.21077919541E+02  0.28511143692E+02  0.87940405748E+02  0.80419002446E+02 0.  1.
        -24    1    1    2    0    0  0.30224165694E+01 -0.21077919541E+02 -0.18660979636E+03  0.20431310713E+03  0.80419002446E+02 0. -1.
<mgrwt>
<rscale>  0 0.83190322E+02</rscale>
<asrwt>0</asrwt>
<pdfrwt beam="1">  1        1 0.34642474E-01 0.83190322E+02</pdfrwt>
<pdfrwt beam="2">  1       -1 0.10319605E-01 0.83190322E+02</pdfrwt>
<totfact> 0.67080937E+03</totfact>
</mgrwt>
</event>
<event>
 4    1  0.4862093E-001  0.9600485E+02  0.7546771E-02  0.1288929E+00
          2   -1    0    0  501    0  0.00000000000E+00  0.00000000000E+00  0.78304827337E+03  0.78304827337E+03  0.00000000000E+00 0. -1.
         -2   -1    0    0    0  501 -0.00000000000E+00 -0.00000000000E+00 -0.13289832980E+02  0.13289832980E+02  0.00000000000E+00 0.  1.
         24    1    1    2    0    0 -0.22224134199E+02 -0.47495241810E+02  0.25025477354E+03  0.26803801553E+03  0.80419002446E+02 0.  0.
        -24    1    1    2    0    0  0.22224134199E+02  0.47495241810E+02  0.51950366686E+03  0.52830009083E+03  0.80419002446E+02 0.  1.
<mgrwt>
<rscale>  0 0.96004835E+02</rscale>
<asrwt>0</asrwt>
<pdfrwt beam="1">  1        2 0.12046893E+00 0.96004847E+02</pdfrwt>
<pdfrwt beam="2">  1       -2 0.20445903E-02 0.96004847E+02</pdfrwt>
<totfact> 0.24979934E+04</totfact>
</mgrwt>
</event>
<event>
 4    1  0.4862093E-001  0.9483877E+02  0.7546771E-02  0.1291540E+00
         -2   -1    0    0    0  501 -0.00000000000E+00  0.00000000000E+00  0.13478447633E+02  0.13478447633E+02  0.00000000000E+00 0.  1.
          2   -1    0    0  501    0  0.00000000000E+00 -0.00000000000E+00 -0.79954582146E+03  0.79954582146E+03  0.00000000000E+00 0. -1.
         24    1    1    2    0    0 -0.29358325585E+02 -0.40807661903E+02 -0.55834991027E+03  0.56634707981E+03  0.80419002446E+02 0. -1.
        -24    1    1    2    0    0  0.29358325585E+02  0.40807661903E+02 -0.22771746355E+03  0.24667718928E+03  0.80419002446E+02 0.  1.
<mgrwt>
<rscale>  0 0.94838771E+02</rscale>
<asrwt>0</asrwt>
<pdfrwt beam="1">  1        2 0.12300710E+00 0.94838771E+02</pdfrwt>
<pdfrwt beam="2">  1       -2 0.20736065E-02 0.94838771E+02</pdfrwt>
<totfact> 0.23836465E+04</totfact>
</mgrwt>
</event>
<event>
 4    1  0.4862093E-001  0.8655385E+02  0.7546771E-02  0.1311418E+00
         -2   -1    0    0    0  501 -0.00000000000E+00  0.00000000000E+00  0.34470853148E+01  0.34470853148E+01  0.00000000000E+00 0.  1.
          2   -1    0    0  501    0  0.00000000000E+00 -0.00000000000E+00 -0.25355327014E+04  0.25355327014E+04  0.00000000000E+00 0. -1.
         24    1    1    2    0    0 -0.23623550691E+02  0.21593540808E+02 -0.17458704175E+04  0.17480146120E+04  0.80419002446E+02 0. -1.
        -24    1    1    2    0    0  0.23623550691E+02 -0.21593540808E+02 -0.78621519862E+03  0.79096517473E+03  0.80419002446E+02 0.  1.
<mgrwt>
<rscale>  0 0.86553851E+02</rscale>
<asrwt>0</asrwt>
<pdfrwt beam="1">  1        2 0.39008106E+00 0.86553851E+02</pdfrwt>
<pdfrwt beam="2">  1       -2 0.53032203E-03 0.86553851E+02</pdfrwt>
<totfact> 0.19647744E+04</totfact>
</mgrwt>
</event>
<event>
 4    1  0.4862093E-001  0.9052486E+02  0.7546771E-02  0.1301586E+00
          3   -1    0    0  501    0  0.00000000000E+00  0.00000000000E+00  0.66753149348E+03  0.66753149348E+03  0.00000000000E+00 0. -1.
         -3   -1    0    0    0  501 -0.00000000000E+00 -0.00000000000E+00 -0.13883010205E+02  0.13883010205E+02  0.00000000000E+00 0.  1.
         24    1    1    2    0    0 -0.41087272584E+02 -0.62745797567E+01  0.21091399884E+03  0.22952007577E+03  0.80419002446E+02 0.  1.
        -24    1    1    2    0    0  0.41087272584E+02  0.62745797567E+01  0.44273448443E+03  0.45189442791E+03  0.80419002446E+02 0. -1.
<mgrwt>
<rscale>  0 0.90524860E+02</rscale>
<asrwt>0</asrwt>
<pdfrwt beam="1">  1        3 0.10269713E+00 0.90524860E+02</pdfrwt>
<pdfrwt beam="2">  1       -3 0.21358482E-02 0.90524860E+02</pdfrwt>
<totfact> 0.15703708E+03</totfact>
</mgrwt>
</event>
<event>
 4    1  0.4862093E-001  0.1007522E+03  0.7546771E-02  0.1278722E+00
         -2   -1    0    0    0  501 -0.00000000000E+00  0.00000000000E+00  0.25767410682E+02  0.25767410682E+02  0.00000000000E+00 0.  1.
          2   -1    0    0  501    0  0.00000000000E+00 -0.00000000000E+00 -0.25404415909E+04  0.25404415909E+04  0.00000000000E+00 0. -1.
         24    1    1    2    0    0  0.59030791662E+02 -0.14112458968E+02 -0.24367673095E+04  0.24388493050E+04  0.80419002446E+02 0. -1.
        -24    1    1    2    0    0 -0.59030791662E+02  0.14112458968E+02 -0.77906870785E+02  0.12735969666E+03  0.80419002446E+02 0.  1.
<mgrwt>
<rscale>  0 0.10075223E+03</rscale>
<asrwt>0</asrwt>
<pdfrwt beam="1">  1        2 0.39083720E+00 0.10075223E+03</pdfrwt>
<pdfrwt beam="2">  1       -2 0.39642167E-02 0.10075223E+03</pdfrwt>
<totfact> 0.11014386E+03</totfact>
</mgrwt>
</event>
<event>
 4    1  0.4862093E-001  0.8074142E+02  0.7546771E-02  0.1326960E+00
          2   -1    0    0  501    0  0.00000000000E+00  0.00000000000E+00  0.11581444975E+04  0.11581444975E+04  0.00000000000E+00 0. -1.
         -2   -1    0    0    0  501 -0.00000000000E+00 -0.00000000000E+00 -0.52474182679E+02  0.52474182679E+02  0.00000000000E+00 0.  1.
         24    1    1    2    0    0 -0.53158027325E+01 -0.48686324483E+01  0.11247575154E+04  0.11276518282E+04  0.80419002446E+02 0. -1.
        -24    1    1    2    0    0  0.53158027325E+01  0.48686324483E+01 -0.19087200573E+02  0.82966851939E+02  0.80419002446E+02 0.  1.
<mgrwt>
<rscale>  0 0.80741422E+02</rscale>
<asrwt>0</asrwt>
<pdfrwt beam="1">  1        2 0.17817606E+00 0.80741422E+02</pdfrwt>
<pdfrwt beam="2">  1       -2 0.80729521E-02 0.80741422E+02</pdfrwt>
<totfact> 0.19472466E+03</totfact>
</mgrwt>
</event>
<event>
 4    1  0.4862093E-001  0.1203229E+03  0.7546771E-02  0.1242565E+00
          1   -1    0    0  501    0  0.00000000000E+00  0.00000000000E+00  0.39795306354E+03  0.39795306354E+03  0.00000000000E+00 0. -1.
         -1   -1    0    0    0  501 -0.00000000000E+00 -0.00000000000E+00 -0.37010957440E+02  0.37010957440E+02  0.00000000000E+00 0.  1.
         24    1    1    2    0    0  0.89408503155E+02 -0.40638752724E+01  0.15207945340E+03  0.19392207615E+03  0.80419002446E+02 0.  1.
        -24    1    1    2    0    0 -0.89408503155E+02  0.40638752724E+01  0.20886265270E+03  0.24104194482E+03  0.80419002446E+02 0. -1.
<mgrwt>
<rscale>  0 0.12032295E+03</rscale>
<asrwt>0</asrwt>
<pdfrwt beam="1">  1        1 0.61223545E-01 0.12032295E+03</pdfrwt>
<pdfrwt beam="2">  1       -1 0.56939937E-02 0.12032295E+03</pdfrwt>
<totfact> 0.83290938E+03</totfact>
</mgrwt>
</event>
<event>
 4    1  0.4862093E-001  0.8383622E+02  0.7546771E-02  0.1318504E+00
          3   -1    0    0  501    0  0.00000000000E+00  0.00000000000E+00  0.80793922070E+02  0.80793922070E+02  0.00000000000E+00 0. -1.
         -3   -1    0    0    0  501 -0.00000000000E+00 -0.00000000000E+00 -0.18826414509E+03  0.18826414509E+03  0.00000000000E+00 0.  1.
         24    1    1    2    0    0  0.18897140583E+02 -0.14289624738E+02 -0.15240279366E+03  0.17393999761E+03  0.80419002446E+02 0.  1.
        -24    1    1    2    0    0 -0.18897140583E+02  0.14289624738E+02  0.44932570639E+02  0.95118069555E+02  0.80419002446E+02 0. -1.
<mgrwt>
<rscale>  0 0.83836217E+02</rscale>
<asrwt>0</asrwt>
<pdfrwt beam="1">  1        3 0.12429834E-01 0.83836217E+02</pdfrwt>
<pdfrwt beam="2">  1       -3 0.28963714E-01 0.83836217E+02</pdfrwt>
<totfact> 0.12372431E+03</totfact>
</mgrwt>
</event>
<event>
 4    1  0.4862093E-001  0.9256974E+02  0.7546771E-02  0.1296745E+00
         -1   -1    0    0    0  501 -0.00000000000E+00  0.00000000000E+00  0.37443710311E+02  0.37443710311E+02  0.00000000000E+00 0.  1.
          1   -1    0    0  501    0  0.00000000000E+00 -0.00000000000E+00 -0.33702612043E+03  0.33702612043E+03  0.00000000000E+00 0. -1.
         24    1    1    2    0    0  0.15102208036E+02  0.43288160302E+02 -0.43716471948E+02  0.10237327475E+03  0.80419002446E+02 0.  1.
        -24    1    1    2    0    0 -0.15102208036E+02 -0.43288160302E+02 -0.25586593817E+03  0.27209655599E+03  0.80419002446E+02 0. -1.
<mgrwt>
<rscale>  0 0.92569744E+02</rscale>
<asrwt>0</asrwt>
<pdfrwt beam="1">  1        1 0.51850173E-01 0.92569744E+02</pdfrwt>
<pdfrwt beam="2">  1       -1 0.57605707E-02 0.92569744E+02</pdfrwt>
<totfact> 0.98587311E+03</totfact>
</mgrwt>
</event>
<event>
 4    1  0.4862093E-001  0.1109589E+03  0.7546771E-02  0.1258804E+00
          1   -1    0    0  501    0  0.00000000000E+00  0.00000000000E+00  0.24529584299E+02  0.24529584299E+02  0.00000000000E+00 0. -1.
         -1   -1    0    0    0  501 -0.00000000000E+00 -0.00000000000E+00 -0.80828068882E+03  0.80828068882E+03  0.00000000000E+00 0.  1.
         24    1    1    2    0    0  0.28318929082E+02 -0.71012013880E+02 -0.64823636737E+03  0.65766425461E+03  0.80419002446E+02 0.  1.
        -24    1    1    2    0    0 -0.28318929082E+02  0.71012013880E+02 -0.13551473716E+03  0.17514601851E+03  0.80419002446E+02 0. -1.
<mgrwt>
<rscale>  0 0.11095893E+03</rscale>
<asrwt>0</asrwt>
<pdfrwt beam="1">  1        1 0.37737822E-02 0.11095893E+03</pdfrwt>
<pdfrwt beam="2">  1       -1 0.12435087E+00 0.11095893E+03</pdfrwt>
<totfact> 0.14488580E+03</totfact>
</mgrwt>
</event>
<event>
 4    1  0.4862093E-001  0.1047726E+03  0.7546771E-02  0.1270568E+00
          2   -1    0    0  501    0  0.00000000000E+00  0.00000000000E+00  0.35395569277E+03  0.35395569277E+03  0.00000000000E+00 0. -1.
         -2   -1    0    0    0  501 -0.00000000000E+00 -0.00000000000E+00 -0.81530600437E+02  0.81530600437E+02  0.00000000000E+00 0.  1.
         24    1    1    2    0    0 -0.70672949610E+01  0.66784257592E+02  0.30761011578E+03  0.32496351027E+03  0.80419002446E+02 0. -1.
        -24    1    1    2    0    0  0.70672949610E+01 -0.66784257592E+02 -0.35185023445E+02  0.11052278294E+03  0.80419002446E+02 0.  1.
<mgrwt>
<rscale>  0 0.10477261E+03</rscale>
<asrwt>0</asrwt>
<pdfrwt beam="1">  1        2 0.54454721E-01 0.10477261E+03</pdfrwt>
<pdfrwt beam="2">  1       -2 0.12543170E-01 0.10477261E+03</pdfrwt>
<totfact> 0.39932627E+03</totfact>
</mgrwt>
</event>
<event>
 4    1  0.4862093E-001  0.8898546E+02  0.7546771E-02  0.1305327E+00
          1   -1    0    0  501    0  0.00000000000E+00  0.00000000000E+00  0.12689633883E+04  0.12689633883E+04  0.00000000000E+00 0. -1.
         -1   -1    0    0    0  501 -0.00000000000E+00 -0.00000000000E+00 -0.62854720595E+01  0.62854720595E+01  0.00000000000E+00 0.  1.
         24    1    1    2    0    0 -0.97016295865E+01  0.36838487077E+02  0.57714305636E+03  0.58396277210E+03  0.80419002446E+02 0.  0.
        -24    1    1    2    0    0  0.97016295865E+01 -0.36838487077E+02  0.68553485985E+03  0.69128608823E+03  0.80419002446E+02 0. -1.
<mgrwt>
<rscale>  0 0.88985458E+02</rscale>
<asrwt>0</asrwt>
<pdfrwt beam="1">  1        1 0.19522493E+00 0.88985458E+02</pdfrwt>
<pdfrwt beam="2">  1       -1 0.96699671E-03 0.88985458E+02</pdfrwt>
<totfact> 0.18818379E+04</totfact>
</mgrwt>
</event>
<event>
 4    1  0.4862093E-001  0.1123481E+03  0.7546771E-02  0.1256282E+00
         -1   -1    0    0    0  501 -0.00000000000E+00  0.00000000000E+00  0.68026833758E+02  0.68026833758E+02  0.00000000000E+00 0.  1.
          1   -1    0    0  501    0  0.00000000000E+00 -0.00000000000E+00 -0.18630310379E+03  0.18630310379E+03  0.00000000000E+00 0. -1.
         24    1    1    2    0    0  0.31300748712E+02  0.71938536728E+02 -0.51031522916E+02  0.12339498459E+03  0.80419002446E+02 0.  1.
        -24    1    1    2    0    0 -0.31300748712E+02 -0.71938536728E+02 -0.67244747111E+02  0.13093495295E+03  0.80419002446E+02 0. -1.
<mgrwt>
<rscale>  0 0.11234815E+03</rscale>
<asrwt>0</asrwt>
<pdfrwt beam="1">  1        1 0.28662015E-01 0.11234815E+03</pdfrwt>
<pdfrwt beam="2">  1       -1 0.10465667E-01 0.11234815E+03</pdfrwt>
<totfact> 0.84906688E+03</totfact>
</mgrwt>
</event>
<event>
 4    1  0.4862093E-001  0.8750482E+02  0.7546771E-02  0.1309009E+00
          1   -1    0    0  501    0  0.00000000000E+00  0.00000000000E+00  0.19530648521E+04  0.19530648521E+04  0.00000000000E+00 0. -1.
         -1   -1    0    0    0  501 -0.00000000000E+00 -0.00000000000E+00 -0.58593565002E+01  0.58593565002E+01  0.00000000000E+00 0.  1.
         24    1    1    2    0    0  0.24023818068E+02  0.24753456864E+02  0.41018616836E+03  0.41941600605E+03  0.80419002446E+02 0.  1.
        -24    1    1    2    0    0 -0.24023818068E+02 -0.24753456864E+02  0.15370193272E+04  0.15395082025E+04  0.80419002446E+02 0. -1.
<mgrwt>
<rscale>  0 0.87504819E+02</rscale>
<asrwt>0</asrwt>
<pdfrwt beam="1">  1        1 0.30047100E+00 0.87504819E+02</pdfrwt>
<pdfrwt beam="2">  1       -1 0.90144102E-03 0.87504819E+02</pdfrwt>
<totfact> 0.76297493E+03</totfact>
</mgrwt>
</event>
<event>
 4    1  0.4862093E-001  0.8626840E+02  0.7546771E-02  0.1312148E+00
         -1   -1    0    0    0  501 -0.00000000000E+00  0.00000000000E+00  0.44395387812E+01  0.44395387812E+01  0.00000000000E+00 0.  1.
          1   -1    0    0  501    0  0.00000000000E+00 -0.00000000000E+00 -0.16974568267E+04  0.16974568267E+04  0.00000000000E+00 0. -1.
         24    1    1    2    0    0 -0.31107603334E+02 -0.27088016540E+01 -0.75162774086E+03  0.75656228916E+03  0.80419002446E+02 0.  0.
        -24    1    1    2    0    0  0.31107603334E+02  0.27088016540E+01 -0.94138954707E+03  0.94533407634E+03  0.80419002446E+02 0.  1.
<mgrwt>
<rscale>  0 0.86268398E+02</rscale>
<asrwt>0</asrwt>
<pdfrwt beam="1">  1        1 0.26114723E+00 0.86268398E+02</pdfrwt>
<pdfrwt beam="2">  1       -1 0.68300590E-03 0.86268398E+02</pdfrwt>
<totfact> 0.16268534E+04</totfact>
</mgrwt>
</event>
<event>
 4    1  0.4862093E-001  0.8312935E+02  0.7546771E-02  0.1320398E+00
          1   -1    0    0  501    0  0.00000000000E+00  0.00000000000E+00  0.41243176102E+03  0.41243176102E+03  0.00000000000E+00 0. -1.
         -1   -1    0    0    0  501 -0.00000000000E+00 -0.00000000000E+00 -0.21615140272E+02  0.21615140272E+02  0.00000000000E+00 0.  1.
         24    1    1    2    0    0 -0.17787246816E+02  0.11264391522E+02  0.92504615299E+02  0.12436877611E+03  0.80419002446E+02 0.  1.
        -24    1    1    2    0    0  0.17787246816E+02 -0.11264391522E+02  0.29831200545E+03  0.30967812518E+03  0.80419002446E+02 0.  0.
<mgrwt>
<rscale>  0 0.83129349E+02</rscale>
<asrwt>0</asrwt>
<pdfrwt beam="1">  1        1 0.63451034E-01 0.83129349E+02</pdfrwt>
<pdfrwt beam="2">  1       -1 0.33254065E-02 0.83129349E+02</pdfrwt>
<totfact> 0.16924424E+04</totfact>
</mgrwt>
</event>
<event>
 4    1  0.4862093E-001  0.1059913E+03  0.7546771E-02  0.1268179E+00
          1   -1    0    0  501    0  0.00000000000E+00  0.00000000000E+00  0.14380377198E+04  0.14380377198E+04  0.00000000000E+00 0. -1.
         -1   -1    0    0    0  501 -0.00000000000E+00 -0.00000000000E+00 -0.34671512538E+02  0.34671512538E+02  0.00000000000E+00 0.  1.
         24    1    1    2    0    0 -0.66768135376E+02 -0.17577352720E+02  0.53573453172E+02  0.11876143343E+03  0.80419002446E+02 0.  1.
        -24    1    1    2    0    0  0.66768135376E+02  0.17577352720E+02  0.13497927541E+04  0.13539477989E+04  0.80419002446E+02 0. -1.
<mgrwt>
<rscale>  0 0.10599134E+03</rscale>
<asrwt>0</asrwt>
<pdfrwt beam="1">  1        1 0.22123653E+00 0.10599134E+03</pdfrwt>
<pdfrwt beam="2">  1       -1 0.53340800E-02 0.10599134E+03</pdfrwt>
<totfact> 0.12652345E+03</totfact>
</mgrwt>
</event>
<event>
 4    1  0.4862093E-001  0.1135543E+03  0.7546771E-02  0.1254126E+00
          3   -1    0    0  501    0  0.00000000000E+00  0.00000000000E+00  0.23163084068E+02  0.23163084068E+02  0.00000000000E+00 0. -1.
         -3   -1    0    0    0  501 -0.00000000000E+00 -0.00000000000E+00 -0.10171058868E+04  0.10171058868E+04  0.00000000000E+00 0.  1.
         24    1    1    2    0    0  0.36475353718E+02  0.71392669106E+02 -0.84692404343E+03  0.85450273020E+03  0.80419002446E+02 0.  1.
        -24    1    1    2    0    0 -0.36475353718E+02 -0.71392669106E+02 -0.14701875932E+03  0.18576624068E+03  0.80419002446E+02 0. -1.
<mgrwt>
<rscale>  0 0.11355431E+03</rscale>
<asrwt>0</asrwt>
<pdfrwt beam="1">  1        3 0.35635511E-02 0.11355431E+03</pdfrwt>
<pdfrwt beam="2">  1       -3 0.15647784E+00 0.11355431E+03</pdfrwt>
<totfact> 0.27350425E+02</totfact>
</mgrwt>
</event>
<event>
 4    1  0.4862093E-001  0.8818224E+02  0.7546771E-02  0.1307314E+00
          1   -1    0    0  501    0  0.00000000000E+00  0.00000000000E+00  0.67324034045E+03  0.67324034045E+03  0.00000000000E+00 0. -1.
         -1   -1    0    0    0  501 -0.00000000000E+00 -0.00000000000E+00 -0.12693081917E+02  0.12693081917E+02  0.00000000000E+00 0.  1.
         24    1    1    2    0    0  0.93367023108E+01 -0.34953063970E+02  0.22736397782E+03  0.24386571111E+03  0.80419002446E+02 0.  1.
        -24    1    1    2    0    0 -0.93367023108E+01  0.34953063970E+02  0.43318328071E+03  0.44206771126E+03  0.80419002446E+02 0. -1.
<mgrwt>
<rscale>  0 0.88182235E+02</rscale>
<asrwt>0</asrwt>
<pdfrwt beam="1">  1        1 0.10357541E+00 0.88182235E+02</pdfrwt>
<pdfrwt beam="2">  1       -1 0.19527824E-02 0.88182235E+02</pdfrwt>
<totfact> 0.19284892E+04</totfact>
</mgrwt>
</event>
<event>
 4    1  0.4862093E-001  0.1054594E+03  0.7546771E-02  0.1269217E+00
          2   -1    0    0  501    0  0.00000000000E+00  0.00000000000E+00  0.25099950557E+03  0.25099950557E+03  0.00000000000E+00 0. -1.
         -2   -1    0    0    0  501 -0.00000000000E+00 -0.00000000000E+00 -0.14169209048E+03  0.14169209048E+03  0.00000000000E+00 0.  1.
         24    1    1    2    0    0 -0.11284714503E+02 -0.67283864247E+02  0.21742931404E+03  0.24165509663E+03  0.80419002446E+02 0. -1.
        -24    1    1    2    0    0  0.11284714503E+02  0.67283864247E+02 -0.10812189896E+03  0.15103649942E+03  0.80419002446E+02 0.  1.
<mgrwt>
<rscale>  0 0.10545937E+03</rscale>
<asrwt>0</asrwt>
<pdfrwt beam="1">  1        2 0.38615308E-01 0.10545937E+03</pdfrwt>
<pdfrwt beam="2">  1       -2 0.21798783E-01 0.10545937E+03</pdfrwt>
<totfact> 0.23113792E+03</totfact>
</mgrwt>
</event>
<event>
 4    1  0.4862093E-001  0.1088979E+03  0.7546771E-02  0.1262624E+00
          4   -1    0    0  501    0  0.00000000000E+00  0.00000000000E+00  0.87577238391E+03  0.87577238391E+03  0.00000000000E+00 0. -1.
         -4   -1    0    0    0  501 -0.00000000000E+00 -0.00000000000E+00 -0.21845178492E+02  0.21845178492E+02  0.00000000000E+00 0.  1.
         24    1    1    2    0    0 -0.71716773034E+02  0.15755829347E+02  0.70367953171E+03  0.71205592547E+03  0.80419002446E+02 0. -1.
        -24    1    1    2    0    0  0.71716773034E+02 -0.15755829347E+02  0.15024767371E+03  0.18556163694E+03  0.80419002446E+02 0.  1.
<mgrwt>
<rscale>  0 0.10889792E+03</rscale>
<asrwt>0</asrwt>
<pdfrwt beam="1">  1        4 0.13473419E+00 0.10889792E+03</pdfrwt>
<pdfrwt beam="2">  1       -4 0.33607974E-02 0.10889792E+03</pdfrwt>
<totfact> 0.30155111E+02</totfact>
</mgrwt>
</event>
<event>
 4    1  0.4862093E-001  0.8163646E+02  0.7546771E-02  0.1324471E+00
          2   -1    0    0  501    0  0.00000000000E+00  0.00000000000E+00  0.80333374493E+03  0.80333374493E+03  0.00000000000E+00 0. -1.
         -2   -1    0    0    0  501 -0.00000000000E+00 -0.00000000000E+00 -0.14128271929E+02  0.14128271929E+02  0.00000000000E+00 0.  1.
         24    1    1    2    0    0  0.13621443263E+02 -0.34281479452E+01  0.65721160701E+03  0.66226249196E+03  0.80419002446E+02 0. -1.
        -24    1    1    2    0    0 -0.13621443263E+02  0.34281479452E+01  0.13199386599E+03  0.15519952490E+03  0.80419002446E+02 0.  0.
<mgrwt>
<rscale>  0 0.81636462E+02</rscale>
<asrwt>0</asrwt>
<pdfrwt beam="1">  1        2 0.12358977E+00 0.81636462E+02</pdfrwt>
<pdfrwt beam="2">  1       -2 0.21735809E-02 0.81636462E+02</pdfrwt>
<totfact> 0.21833933E+04</totfact>
</mgrwt>
</event>
<event>
 4    1  0.4862093E-001  0.8313265E+02  0.7546771E-02  0.1320389E+00
         -2   -1    0    0    0  501 -0.00000000000E+00  0.00000000000E+00  0.18980151801E+03  0.18980151801E+03  0.00000000000E+00 0.  1.
          2   -1    0    0  501    0  0.00000000000E+00 -0.00000000000E+00 -0.37364791592E+02  0.37364791592E+02  0.00000000000E+00 0. -1.
         24    1    1    2    0    0  0.20935691215E+02  0.23492596224E+01  0.58079949973E+02  0.10141163016E+03  0.80419002446E+02 0.  0.
        -24    1    1    2    0    0 -0.20935691215E+02 -0.23492596224E+01  0.94356776444E+02  0.12575467945E+03  0.80419002446E+02 0.  0.
<mgrwt>
<rscale>  0 0.83132654E+02</rscale>
<asrwt>0</asrwt>
<pdfrwt beam="1">  1        2 0.57484296E-02 0.83132654E+02</pdfrwt>
<pdfrwt beam="2">  1       -2 0.29200233E-01 0.83132654E+02</pdfrwt>
<totfact> 0.12442459E+04</totfact>
</mgrwt>
</event>
<event>
 4    1  0.4862093E-001  0.8492938E+02  0.7546771E-02  0.1315617E+00
         -1   -1    0    0    0  501 -0.00000000000E+00  0.00000000000E+00  0.85141494995E+01  0.85141494995E+01  0.00000000000E+00 0.  1.
          1   -1    0    0  501    0  0.00000000000E+00 -0.00000000000E+00 -0.13225200751E+04  0.13225200751E+04  0.00000000000E+00 0. -1.
         24    1    1    2    0    0 -0.48397747720E+01 -0.26876762291E+02 -0.25801366955E+03  0.27163220244E+03  0.80419002446E+02 0.  0.
        -24    1    1    2    0    0  0.48397747720E+01  0.26876762291E+02 -0.10559922560E+04  0.10594020221E+04  0.80419002446E+02 0.  0.
<mgrwt>
<rscale>  0 0.84929381E+02</rscale>
<asrwt>0</asrwt>
<pdfrwt beam="1">  1        1 0.20346447E+00 0.84929381E+02</pdfrwt>
<pdfrwt beam="2">  1       -1 0.13098702E-02 0.84929381E+02</pdfrwt>
<totfact> 0.11269357E+04</totfact>
</mgrwt>
</event>
<event>
 4    1  0.4862093E-001  0.8425436E+02  0.7546771E-02  0.1317394E+00
         -2   -1    0    0    0  501 -0.00000000000E+00  0.00000000000E+00  0.11503767076E+02  0.11503767076E+02  0.00000000000E+00 0.  1.
          2   -1    0    0  501    0  0.00000000000E+00 -0.00000000000E+00 -0.64962229760E+03  0.64962229760E+03  0.00000000000E+00 0. -1.
         24    1    1    2    0    0  0.20645278036E+02 -0.14330163142E+02 -0.39303980643E+03  0.40196901183E+03  0.80419002446E+02 0. -1.
        -24    1    1    2    0    0 -0.20645278036E+02  0.14330163142E+02 -0.24507872410E+03  0.25915705285E+03  0.80419002446E+02 0.  1.
<mgrwt>
<rscale>  0 0.84254359E+02</rscale>
<asrwt>0</asrwt>
<pdfrwt beam="1">  1        2 0.99941882E-01 0.84254359E+02</pdfrwt>
<pdfrwt beam="2">  1       -2 0.17698105E-02 0.84254359E+02</pdfrwt>
<totfact> 0.37734612E+04</totfact>
</mgrwt>
</event>
<event>
 4    1  0.4862093E-001  0.8277161E+02  0.7546771E-02  0.1321365E+00
         -1   -1    0    0    0  501 -0.00000000000E+00  0.00000000000E+00  0.25654406539E+03  0.25654406539E+03  0.00000000000E+00 0.  1.
          1   -1    0    0  501    0  0.00000000000E+00 -0.00000000000E+00 -0.13034983395E+03  0.13034983395E+03  0.00000000000E+00 0. -1.
         24    1    1    2    0    0  0.13597914559E+02  0.14107468891E+02  0.23559326637E+03  0.24971048650E+03  0.80419002446E+02 0.  1.
        -24    1    1    2    0    0 -0.13597914559E+02 -0.14107468891E+02 -0.10939903493E+03  0.13718341284E+03  0.80419002446E+02 0. -1.
<mgrwt>
<rscale>  0 0.82771613E+02</rscale>
<asrwt>0</asrwt>
<pdfrwt beam="1">  1        1 0.20053821E-01 0.82771613E+02</pdfrwt>
<pdfrwt beam="2">  1       -1 0.39468318E-01 0.82771613E+02</pdfrwt>
<totfact> 0.15467447E+03</totfact>
</mgrwt>
</event>
<event>
 4    1  0.4862093E-001  0.1019333E+03  0.7546771E-02  0.1276282E+00
         -1   -1    0    0    0  501 -0.00000000000E+00  0.00000000000E+00  0.84521377091E+01  0.84521377091E+01  0.00000000000E+00 0.  1.
          1   -1    0    0  501    0  0.00000000000E+00 -0.00000000000E+00 -0.17970689166E+04  0.17970689166E+04  0.00000000000E+00 0. -1.
         24    1    1    2    0    0  0.46573007950E+02  0.41882330613E+02 -0.38688794884E+03  0.40009083419E+03  0.80419002446E+02 0.  1.
        -24    1    1    2    0    0 -0.46573007950E+02 -0.41882330613E+02 -0.14017288300E+04  0.14054302201E+04  0.80419002446E+02 0. -1.
<mgrwt>
<rscale>  0 0.10193327E+03</rscale>
<asrwt>0</asrwt>
<pdfrwt beam="1">  1        1 0.27647208E+00 0.10193327E+03</pdfrwt>
<pdfrwt beam="2">  1       -1 0.13003292E-02 0.10193327E+03</pdfrwt>
<totfact> 0.57286300E+03</totfact>
</mgrwt>
</event>
<event>
 4    1  0.4862093E-001  0.2305995E+03  0.7546771E-02  0.1126219E+00
          2   -1    0    0  501    0  0.00000000000E+00  0.00000000000E+00  0.13764264202E+04  0.13764264202E+04  0.00000000000E+00 0. -1.
         -2   -1    0    0    0  501 -0.00000000000E+00 -0.00000000000E+00 -0.59443490466E+02  0.59443490466E+02  0.00000000000E+00 0.  1.
         24    1    1    2    0    0  0.59022461119E+02  0.20790682402E+03  0.10832766003E+04  0.11075487832E+04  0.80419002446E+02 0. -1.
        -24    1    1    2    0    0 -0.59022461119E+02 -0.20790682402E+03  0.23370632944E+03  0.32832112751E+03  0.80419002446E+02 0.  1.
<mgrwt>
<rscale>  0 0.23059947E+03</rscale>
<asrwt>0</asrwt>
<pdfrwt beam="1">  1        2 0.21175789E+00 0.23059947E+03</pdfrwt>
<pdfrwt beam="2">  1       -2 0.91451534E-02 0.23059947E+03</pdfrwt>
<totfact> 0.12226231E+03</totfact>
</mgrwt>
</event>
<event>
 4    1  0.4862093E-001  0.9229925E+02  0.7546771E-02  0.1297377E+00
          2   -1    0    0  501    0  0.00000000000E+00  0.00000000000E+00  0.18224188536E+03  0.18224188536E+03  0.00000000000E+00 0. -1.
         -2   -1    0    0    0  501 -0.00000000000E+00 -0.00000000000E+00 -0.49450402833E+02  0.49450402833E+02  0.00000000000E+00 0.  1.
         24    1    1    2    0    0 -0.40221773386E+02 -0.20836146715E+02  0.93485195775E+02  0.13137211975E+03  0.80419002446E+02 0. -1.
        -24    1    1    2    0    0  0.40221773386E+02  0.20836146715E+02  0.39306286757E+02  0.10032016845E+03  0.80419002446E+02 0.  1.
<mgrwt>
<rscale>  0 0.92299253E+02</rscale>
<asrwt>0</asrwt>
<pdfrwt beam="1">  1        2 0.28037213E-01 0.92299253E+02</pdfrwt>
<pdfrwt beam="2">  1       -2 0.76077544E-02 0.92299253E+02</pdfrwt>
<totfact> 0.17360495E+04</totfact>
</mgrwt>
</event>
<event>
 4    1  0.4862093E-001  0.1244954E+03  0.7546771E-02  0.1235860E+00
          1   -1    0    0  501    0  0.00000000000E+00  0.00000000000E+00  0.11023479116E+03  0.11023479116E+03  0.00000000000E+00 0. -1.
         -1   -1    0    0    0  501 -0.00000000000E+00 -0.00000000000E+00 -0.16801622605E+03  0.16801622605E+03  0.00000000000E+00 0.  1.
         24    1    1    2    0    0  0.86939010453E+01 -0.94637712817E+02  0.27308321246E+02  0.12745525084E+03  0.80419002446E+02 0.  0.
        -24    1    1    2    0    0 -0.86939010453E+01  0.94637712817E+02 -0.85089756129E+02  0.15079576637E+03  0.80419002446E+02 0.  0.
<mgrwt>
<rscale>  0 0.12449538E+03</rscale>
<asrwt>0</asrwt>
<pdfrwt beam="1">  1        1 0.16959199E-01 0.12449540E+03</pdfrwt>
<pdfrwt beam="2">  1       -1 0.25848650E-01 0.12449540E+03</pdfrwt>
<totfact> 0.39808819E+03</totfact>
</mgrwt>
</event>
<event>
 4    1  0.4862093E-001  0.9640856E+02  0.7546771E-02  0.1288035E+00
          2   -1    0    0  501    0  0.00000000000E+00  0.00000000000E+00  0.23960835276E+04  0.23960835276E+04  0.00000000000E+00 0. -1.
         -2   -1    0    0    0  501 -0.00000000000E+00 -0.00000000000E+00 -0.38879251503E+01  0.38879251503E+01  0.00000000000E+00 0.  1.
         24    1    1    2    0    0  0.53144627499E+02  0.17445611825E+01  0.12533187509E+04  0.12570212816E+04  0.80419002446E+02 0.  1.
        -24    1    1    2    0    0 -0.53144627499E+02 -0.17445611825E+01  0.11388768515E+04  0.11429501712E+04  0.80419002446E+02 0.  0.
<mgrwt>
<rscale>  0 0.96408562E+02</rscale>
<asrwt>0</asrwt>
<pdfrwt beam="1">  1        2 0.36862705E+00 0.96408562E+02</pdfrwt>
<pdfrwt beam="2">  1       -2 0.59814425E-03 0.96408562E+02</pdfrwt>
<totfact> 0.19731767E+04</totfact>
</mgrwt>
</event>
<event>
 4    1  0.4862093E-001  0.8370835E+02  0.7546771E-02  0.1318845E+00
          1   -1    0    0  501    0  0.00000000000E+00  0.00000000000E+00  0.17997867740E+04  0.17997867740E+04  0.00000000000E+00 0. -1.
         -1   -1    0    0    0  501 -0.00000000000E+00 -0.00000000000E+00 -0.40012411415E+01  0.40012411415E+01  0.00000000000E+00 0.  1.
         24    1    1    2    0    0 -0.23222520744E+02  0.76599335909E+00  0.74975156235E+03  0.75441003004E+03  0.80419002446E+02 0. -1.
        -24    1    1    2    0    0  0.23222520744E+02 -0.76599335909E+00  0.10460339705E+04  0.10493779851E+04  0.80419002446E+02 0.  0.
<mgrwt>
<rscale>  0 0.83708352E+02</rscale>
<asrwt>0</asrwt>
<pdfrwt beam="1">  1        1 0.27688963E+00 0.83708352E+02</pdfrwt>
<pdfrwt beam="2">  1       -1 0.61557700E-03 0.83708352E+02</pdfrwt>
<totfact> 0.16203142E+04</totfact>
</mgrwt>
</event>
<event>
 4    1  0.4862093E-001  0.8186120E+02  0.7546771E-02  0.1323851E+00
          3   -1    0    0  501    0  0.00000000000E+00  0.00000000000E+00  0.39039574653E+03  0.39039574653E+03  0.00000000000E+00 0. -1.
         -3   -1    0    0    0  501 -0.00000000000E+00 -0.00000000000E+00 -0.29983375089E+02  0.29983375089E+02  0.00000000000E+00 0.  1.
         24    1    1    2    0    0 -0.15105275207E+00 -0.15297630685E+02  0.42775897969E+02  0.92363595225E+02  0.80419002446E+02 0.  1.
        -24    1    1    2    0    0  0.15105275207E+00  0.15297630685E+02  0.31763647347E+03  0.32801552639E+03  0.80419002446E+02 0. -1.
<mgrwt>
<rscale>  0 0.81861201E+02</rscale>
<asrwt>0</asrwt>
<pdfrwt beam="1">  1        3 0.60060880E-01 0.81861201E+02</pdfrwt>
<pdfrwt beam="2">  1       -3 0.46128272E-02 0.81861201E+02</pdfrwt>
<totfact> 0.14896915E+03</totfact>
</mgrwt>
</event>
<event>
 4    1  0.4862093E-001  0.8962371E+02  0.7546771E-02  0.1303765E+00
         -1   -1    0    0    0  501 -0.00000000000E+00  0.00000000000E+00  0.48428556672E+02  0.48428556672E+02  0.00000000000E+00 0.  1.
          1   -1    0    0  501    0  0.00000000000E+00 -0.00000000000E+00 -0.16695919366E+03  0.16695919366E+03  0.00000000000E+00 0. -1.
         24    1    1    2    0    0  0.11831664481E+01  0.39544835933E+02 -0.50531160921E+02  0.10288735642E+03  0.80419002446E+02 0.  1.
        -24    1    1    2    0    0 -0.11831664481E+01 -0.39544835933E+02 -0.67999476071E+02  0.11250039392E+03  0.80419002446E+02 0. -1.
<mgrwt>
<rscale>  0 0.89623713E+02</rscale>
<asrwt>0</asrwt>
<pdfrwt beam="1">  1        1 0.25686030E-01 0.89623713E+02</pdfrwt>
<pdfrwt beam="2">  1       -1 0.74505471E-02 0.89623713E+02</pdfrwt>
<totfact> 0.15879612E+04</totfact>
</mgrwt>
</event>
<event>
 4    1  0.4862093E-001  0.8190288E+02  0.7546771E-02  0.1323736E+00
         -2   -1    0    0    0  501 -0.00000000000E+00  0.00000000000E+00  0.27844486776E+03  0.27844486776E+03  0.00000000000E+00 0.  1.
          2   -1    0    0  501    0  0.00000000000E+00 -0.00000000000E+00 -0.73313641166E+02  0.73313641166E+02  0.00000000000E+00 0. -1.
         24    1    1    2    0    0 -0.11553252937E+02 -0.10362786603E+02 -0.41547545587E+02  0.91838333490E+02  0.80419002446E+02 0. -1.
        -24    1    1    2    0    0  0.11553252937E+02  0.10362786603E+02  0.24667877218E+03  0.25992017543E+03  0.80419002446E+02 0.  1.
<mgrwt>
<rscale>  0 0.81902875E+02</rscale>
<asrwt>0</asrwt>
<pdfrwt beam="1">  1        2 0.11279022E-01 0.81902875E+02</pdfrwt>
<pdfrwt beam="2">  1       -2 0.42837671E-01 0.81902875E+02</pdfrwt>
<totfact> 0.26805964E+03</totfact>
</mgrwt>
</event>
<event>
 4    1  0.4862093E-001  0.8817367E+02  0.7546771E-02  0.1307336E+00
         -1   -1    0    0    0  501 -0.00000000000E+00  0.00000000000E+00  0.27859853762E+02  0.27859853762E+02  0.00000000000E+00 0.  1.
          1   -1    0    0  501    0  0.00000000000E+00 -0.00000000000E+00 -0.30684911051E+03  0.30684911051E+03  0.00000000000E+00 0. -1.
         24    1    1    2    0    0 -0.34656813157E+02  0.10309451461E+02 -0.89132355407E+02  0.12537612302E+03  0.80419002446E+02 0.  1.
        -24    1    1    2    0    0  0.34656813157E+02 -0.10309451461E+02 -0.18985690134E+03  0.20933284126E+03  0.80419002446E+02 0. -1.
<mgrwt>
<rscale>  0 0.88173666E+02</rscale>
<asrwt>0</asrwt>
<pdfrwt beam="1">  1        1 0.47207557E-01 0.88173666E+02</pdfrwt>
<pdfrwt beam="2">  1       -1 0.42861312E-02 0.88173666E+02</pdfrwt>
<totfact> 0.16963970E+04</totfact>
</mgrwt>
</event>
<event>
 4    1  0.4862093E-001  0.1032399E+03  0.7546771E-02  0.1273627E+00
         -4   -1    0    0    0  501 -0.00000000000E+00  0.00000000000E+00  0.14671908155E+03  0.14671908155E+03  0.00000000000E+00 0.  1.
          4   -1    0    0  501    0  0.00000000000E+00 -0.00000000000E+00 -0.72770067131E+02  0.72770067131E+02  0.00000000000E+00 0. -1.
         24    1    1    2    0    0  0.54120838118E+02  0.35527187101E+02  0.41517408961E+02  0.11127514252E+03  0.80419002446E+02 0. -1.
        -24    1    1    2    0    0 -0.54120838118E+02 -0.35527187101E+02  0.32431605455E+02  0.10821400616E+03  0.80419002446E+02 0.  1.
<mgrwt>
<rscale>  0 0.10323984E+03</rscale>
<asrwt>0</asrwt>
<pdfrwt beam="1">  1        4 0.11195395E-01 0.10323985E+03</pdfrwt>
<pdfrwt beam="2">  1       -4 0.22572166E-01 0.10323985E+03</pdfrwt>
<totfact> 0.17462887E+03</totfact>
</mgrwt>
</event>
<event>
 4    1  0.4862093E-001  0.1050208E+03  0.7546771E-02  0.1270079E+00
         -1   -1    0    0    0  501 -0.00000000000E+00  0.00000000000E+00  0.23752124211E+03  0.23752124211E+03  0.00000000000E+00 0.  1.
          1   -1    0    0  501    0  0.00000000000E+00 -0.00000000000E+00 -0.79805269595E+02  0.79805269595E+02  0.00000000000E+00 0. -1.
         24    1    1    2    0    0 -0.21684440696E+02 -0.63968233403E+02  0.18145591693E+03  0.20965594577E+03  0.80419002446E+02 0.  1.
        -24    1    1    2    0    0  0.21684440696E+02  0.63968233403E+02 -0.23739944418E+02  0.10767056593E+03  0.80419002446E+02 0. -1.
<mgrwt>
<rscale>  0 0.10502079E+03</rscale>
<asrwt>0</asrwt>
<pdfrwt beam="1">  1        1 0.12277734E-01 0.10502079E+03</pdfrwt>
<pdfrwt beam="2">  1       -1 0.36541729E-01 0.10502079E+03</pdfrwt>
<totfact> 0.33438627E+03</totfact>
</mgrwt>
</event>
<event>
 4    1  0.4862093E-001  0.8846799E+02  0.7546771E-02  0.1306605E+00
          1   -1    0    0  501    0  0.00000000000E+00  0.00000000000E+00  0.57673394960E+02  0.57673394960E+02  0.00000000000E+00 0. -1.
         -1   -1    0    0    0  501 -0.00000000000E+00 -0.00000000000E+00 -0.22005912456E+03  0.22005912456E+03  0.00000000000E+00 0.  1.
         24    1    1    2    0    0  0.16306066939E+02  0.33067818281E+02 -0.16716930924E+03  0.18913530165E+03  0.80419002446E+02 0.  1.
        -24    1    1    2    0    0 -0.16306066939E+02 -0.33067818281E+02  0.47835796423E+01  0.88597217865E+02  0.80419002446E+02 0. -1.
<mgrwt>
<rscale>  0 0.88467985E+02</rscale>
<asrwt>0</asrwt>
<pdfrwt beam="1">  1        1 0.88728302E-02 0.88467985E+02</pdfrwt>
<pdfrwt beam="2">  1       -1 0.33855249E-01 0.88467985E+02</pdfrwt>
<totfact> 0.57545485E+03</totfact>
</mgrwt>
</event>
<event>
 4    1  0.4862093E-001  0.8661406E+02  0.7546771E-02  0.1311265E+00
         -1   -1    0    0    0  501 -0.00000000000E+00  0.00000000000E+00  0.14966220812E+03  0.14966220812E+03  0.00000000000E+00 0.  1.
          1   -1    0    0  501    0  0.00000000000E+00 -0.00000000000E+00 -0.73039583508E+02  0.73039583508E+02  0.00000000000E+00 0. -1.
         24    1    1    2    0    0  0.32154667212E+02  0.92592026355E+00  0.10067895102E+03  0.13280906251E+03  0.80419002446E+02 0.  1.
        -24    1    1    2    0    0 -0.32154667212E+02 -0.92592026355E+00 -0.24056326417E+02  0.89892729110E+02  0.80419002446E+02 0. -1.
<mgrwt>
<rscale>  0 0.86614063E+02</rscale>
<asrwt>0</asrwt>
<pdfrwt beam="1">  1        1 0.11236859E-01 0.86614063E+02</pdfrwt>
<pdfrwt beam="2">  1       -1 0.23024955E-01 0.86614063E+02</pdfrwt>
<totfact> 0.79546391E+03</totfact>
</mgrwt>
</event>
<event>
 4    1  0.4862093E-001  0.8168265E+02  0.7546771E-02  0.1324343E+00
          1   -1    0    0  501    0  0.00000000000E+00  0.00000000000E+00  0.12984879752E+04  0.12984879752E+04  0.00000000000E+00 0. -1.
         -1   -1    0    0    0  501 -0.00000000000E+00 -0.00000000000E+00 -0.51386843070E+01  0.51386843070E+01  0.00000000000E+00 0.  1.
         24    1    1    2    0    0 -0.58287423697E+01  0.13071407383E+02  0.65213290148E+03  0.65722855467E+03  0.80419002446E+02 0.  0.
        -24    1    1    2    0    0  0.58287423697E+01 -0.13071407383E+02  0.64121638942E+03  0.64639810484E+03  0.80419002446E+02 0. -1.
<mgrwt>
<rscale>  0 0.81682639E+02</rscale>
<asrwt>0</asrwt>
<pdfrwt beam="1">  1        1 0.19976712E+00 0.81682649E+02</pdfrwt>
<pdfrwt beam="2">  1       -1 0.79056785E-03 0.81682649E+02</pdfrwt>
<totfact> 0.23710106E+04</totfact>
</mgrwt>
</event>
<event>
 4    1  0.4862093E-001  0.8388951E+02  0.7546771E-02  0.1318362E+00
          2   -1    0    0  501    0  0.00000000000E+00  0.00000000000E+00  0.30873947759E+03  0.30873947759E+03  0.00000000000E+00 0. -1.
         -2   -1    0    0    0  501 -0.00000000000E+00 -0.00000000000E+00 -0.22825800260E+02  0.22825800260E+02  0.00000000000E+00 0.  1.
         24    1    1    2    0    0  0.15848820096E+01  0.23826848286E+02  0.13678122157E+03  0.16045731233E+03  0.80419002446E+02 0.  0.
        -24    1    1    2    0    0 -0.15848820096E+01 -0.23826848286E+02  0.14913245576E+03  0.17110796552E+03  0.80419002446E+02 0.  0.
<mgrwt>
<rscale>  0 0.83889500E+02</rscale>
<asrwt>0</asrwt>
<pdfrwt beam="1">  1        2 0.47498378E-01 0.83889511E+02</pdfrwt>
<pdfrwt beam="2">  1       -2 0.35116618E-02 0.83889511E+02</pdfrwt>
<totfact> 0.31122836E+04</totfact>
</mgrwt>
</event>
<event>
 4    1  0.4862093E-001  0.9326216E+02  0.7546771E-02  0.1295139E+00
         -4   -1    0    0    0  501 -0.00000000000E+00  0.00000000000E+00  0.60811325728E+03  0.60811325728E+03  0.00000000000E+00 0.  1.
          4   -1    0    0  501    0  0.00000000000E+00 -0.00000000000E+00 -0.37815713792E+02  0.37815713792E+02  0.00000000000E+00 0. -1.
         24    1    1    2    0    0 -0.45549453897E+02 -0.12484440265E+02  0.30483216883E+02  0.98117564508E+02  0.80419002446E+02 0. -1.
        -24    1    1    2    0    0  0.45549453897E+02  0.12484440265E+02  0.53981432661E+03  0.54781140657E+03  0.80419002446E+02 0.  1.
<mgrwt>
<rscale>  0 0.93262157E+02</rscale>
<asrwt>0</asrwt>
<pdfrwt beam="1">  1        4 0.58178026E-02 0.93262157E+02</pdfrwt>
<pdfrwt beam="2">  1       -4 0.93555879E-01 0.93262157E+02</pdfrwt>
<totfact> 0.28824440E+02</totfact>
</mgrwt>
</event>
<event>
 4    1  0.4862093E-001  0.9776869E+02  0.7546771E-02  0.1285059E+00
         -2   -1    0    0    0  501 -0.00000000000E+00  0.00000000000E+00  0.48436179484E+03  0.48436179484E+03  0.00000000000E+00 0.  1.
          2   -1    0    0  501    0  0.00000000000E+00 -0.00000000000E+00 -0.29841924374E+02  0.29841924374E+02  0.00000000000E+00 0. -1.
         24    1    1    2    0    0 -0.29548513485E+02  0.47099753519E+02  0.77633431802E+02  0.12484256934E+03  0.80419002446E+02 0. -1.
        -24    1    1    2    0    0  0.29548513485E+02 -0.47099753519E+02  0.37688643866E+03  0.38936114987E+03  0.80419002446E+02 0.  1.
<mgrwt>
<rscale>  0 0.97768693E+02</rscale>
<asrwt>0</asrwt>
<pdfrwt beam="1">  1        2 0.45910656E-02 0.97768693E+02</pdfrwt>
<pdfrwt beam="2">  1       -2 0.74517193E-01 0.97768693E+02</pdfrwt>
<totfact> 0.27382357E+03</totfact>
</mgrwt>
</event>
<event>
 4    1  0.4862093E-001  0.8060968E+02  0.7546771E-02  0.1327330E+00
         -1   -1    0    0    0  501 -0.00000000000E+00  0.00000000000E+00  0.94370771205E+01  0.94370771205E+01  0.00000000000E+00 0.  1.
          1   -1    0    0  501    0  0.00000000000E+00 -0.00000000000E+00 -0.90183105379E+03  0.90183105379E+03  0.00000000000E+00 0. -1.
         24    1    1    2    0    0  0.34951918404E+01 -0.42997872941E+01 -0.22461856757E+03  0.23864496933E+03  0.80419002446E+02 0.  1.
        -24    1    1    2    0    0 -0.34951918404E+01  0.42997872941E+01 -0.66777540911E+03  0.67262316158E+03  0.80419002446E+02 0.  0.
<mgrwt>
<rscale>  0 0.80609680E+02</rscale>
<asrwt>0</asrwt>
<pdfrwt beam="1">  1        1 0.13874327E+00 0.80609680E+02</pdfrwt>
<pdfrwt beam="2">  1       -1 0.14518577E-02 0.80609680E+02</pdfrwt>
<totfact> 0.18975644E+04</totfact>
</mgrwt>
</event>
<event>
 4    1  0.4862093E-001  0.8653876E+02  0.7546771E-02  0.1311457E+00
         -2   -1    0    0    0  501 -0.00000000000E+00  0.00000000000E+00  0.47604210627E+01  0.47604210627E+01  0.00000000000E+00 0.  1.
          2   -1    0    0  501    0  0.00000000000E+00 -0.00000000000E+00 -0.20588672609E+04  0.20588672609E+04  0.00000000000E+00 0. -1.
         24    1    1    2    0    0 -0.25886529159E+02  0.18751742138E+02 -0.15282055410E+04  0.15306538249E+04  0.80419002446E+02 0. -1.
        -24    1    1    2    0    0  0.25886529159E+02 -0.18751742138E+02 -0.52590129887E+03  0.53297385709E+03  0.80419002446E+02 0.  1.
<mgrwt>
<rscale>  0 0.86538755E+02</rscale>
<asrwt>0</asrwt>
<pdfrwt beam="1">  1        2 0.31674841E+00 0.86538755E+02</pdfrwt>
<pdfrwt beam="2">  1       -2 0.73237338E-03 0.86538755E+02</pdfrwt>
<totfact> 0.21927132E+04</totfact>
</mgrwt>
</event>
<event>
 4    1  0.4862093E-001  0.9427101E+02  0.7546771E-02  0.1292826E+00
         -2   -1    0    0    0  501 -0.00000000000E+00  0.00000000000E+00  0.22803543280E+02  0.22803543280E+02  0.00000000000E+00 0.  1.
          2   -1    0    0  501    0  0.00000000000E+00 -0.00000000000E+00 -0.38983322844E+03  0.38983322844E+03  0.00000000000E+00 0. -1.
         24    1    1    2    0    0  0.34702954979E+02 -0.34864130654E+02 -0.18001346733E+03  0.20320400356E+03  0.80419002446E+02 0.  0.
        -24    1    1    2    0    0 -0.34702954979E+02  0.34864130654E+02 -0.18701621783E+03  0.20943276815E+03  0.80419002446E+02 0.  1.
<mgrwt>
<rscale>  0 0.94270997E+02</rscale>
<asrwt>0</asrwt>
<pdfrwt beam="1">  1        2 0.59974342E-01 0.94271009E+02</pdfrwt>
<pdfrwt beam="2">  1       -2 0.35082375E-02 0.94271009E+02</pdfrwt>
<totfact> 0.24745585E+04</totfact>
</mgrwt>
</event>
<event>
 4    1  0.4862093E-001  0.8109550E+02  0.7546771E-02  0.1325971E+00
          2   -1    0    0  501    0  0.00000000000E+00  0.00000000000E+00  0.12235698838E+03  0.12235698838E+03  0.00000000000E+00 0. -1.
         -2   -1    0    0    0  501 -0.00000000000E+00 -0.00000000000E+00 -0.30424825969E+03  0.30424825969E+03  0.00000000000E+00 0.  1.
         24    1    1    2    0    0 -0.62135808162E+01 -0.84056818769E+01  0.10260115643E+03  0.13078026353E+03  0.80419002446E+02 0. -1.
        -24    1    1    2    0    0  0.62135808162E+01  0.84056818769E+01 -0.28449242774E+03  0.29582498453E+03  0.80419002446E+02 0.  1.
<mgrwt>
<rscale>  0 0.81095499E+02</rscale>
<asrwt>0</asrwt>
<pdfrwt beam="1">  1        2 0.18824152E-01 0.81095499E+02</pdfrwt>
<pdfrwt beam="2">  1       -2 0.46807424E-01 0.81095499E+02</pdfrwt>
<totfact> 0.12504847E+03</totfact>
</mgrwt>
</event>
<event>
 4    1  0.4862093E-001  0.8178561E+02  0.7546771E-02  0.1324059E+00
         -4   -1    0    0    0  501 -0.00000000000E+00  0.00000000000E+00  0.13398051703E+03  0.13398051703E+03  0.00000000000E+00 0.  1.
          4   -1    0    0  501    0  0.00000000000E+00 -0.00000000000E+00 -0.55550137264E+02  0.55550137264E+02  0.00000000000E+00 0. -1.
         24    1    1    2    0    0 -0.14704937039E+02 -0.23311689054E+01  0.90573716769E+01  0.82285609057E+02  0.80419002446E+02 0.  1.
        -24    1    1    2    0    0  0.14704937039E+02  0.23311689054E+01  0.69373008086E+02  0.10724504523E+03  0.80419002446E+02 0.  1.
<mgrwt>
<rscale>  0 0.81785607E+02</rscale>
<asrwt>0</asrwt>
<pdfrwt beam="1">  1        4 0.85461750E-02 0.81785607E+02</pdfrwt>
<pdfrwt beam="2">  1       -4 0.20612387E-01 0.81785607E+02</pdfrwt>
<totfact> 0.30326531E+03</totfact>
</mgrwt>
</event>
<event>
 4    1  0.4862093E-001  0.9660864E+02  0.7546771E-02  0.1287594E+00
          2   -1    0    0  501    0  0.00000000000E+00  0.00000000000E+00  0.11338670524E+03  0.11338670524E+03  0.00000000000E+00 0. -1.
         -2   -1    0    0    0  501 -0.00000000000E+00 -0.00000000000E+00 -0.13000707873E+03  0.13000707873E+03  0.00000000000E+00 0.  1.
         24    1    1    2    0    0 -0.53277464956E+02  0.52464601103E+01  0.65399917697E+02  0.11666352817E+03  0.80419002446E+02 0. -1.
        -24    1    1    2    0    0  0.53277464956E+02 -0.52464601103E+01 -0.82020291182E+02  0.12673025580E+03  0.80419002446E+02 0.  1.
<mgrwt>
<rscale>  0 0.96608641E+02</rscale>
<asrwt>0</asrwt>
<pdfrwt beam="1">  1        2 0.17444109E-01 0.96608641E+02</pdfrwt>
<pdfrwt beam="2">  1       -2 0.20001089E-01 0.96608641E+02</pdfrwt>
<totfact> 0.63276165E+03</totfact>
</mgrwt>
</event>
<event>
 4    1  0.4862093E-001  0.8608890E+02  0.7546771E-02  0.1312609E+00
         -1   -1    0    0    0  501 -0.00000000000E+00  0.00000000000E+00  0.19584984670E+03  0.19584984670E+03  0.00000000000E+00 0.  1.
          1   -1    0    0  501    0  0.00000000000E+00 -0.00000000000E+00 -0.64065479016E+02  0.64065479016E+02  0.00000000000E+00 0. -1.
         24    1    1    2    0    0 -0.16497881513E+02  0.25921069881E+02  0.14903738831E+03  0.17211461596E+03  0.80419002446E+02 0.  0.
        -24    1    1    2    0    0  0.16497881513E+02 -0.25921069881E+02 -0.17253020628E+02  0.87800709754E+02  0.80419002446E+02 0.  0.
<mgrwt>
<rscale>  0 0.86088895E+02</rscale>
<asrwt>0</asrwt>
<pdfrwt beam="1">  1        1 0.98562276E-02 0.86088895E+02</pdfrwt>
<pdfrwt beam="2">  1       -1 0.30130745E-01 0.86088895E+02</pdfrwt>
<totfact> 0.60789218E+03</totfact>
</mgrwt>
</event>
<event>
 4    1  0.4862093E-001  0.9146038E+02  0.7546771E-02  0.1299353E+00
          2   -1    0    0  501    0  0.00000000000E+00  0.00000000000E+00  0.16401500085E+04  0.16401500085E+04  0.00000000000E+00 0. -1.
         -2   -1    0    0    0  501 -0.00000000000E+00 -0.00000000000E+00 -0.60054447474E+01  0.60054447474E+01  0.00000000000E+00 0.  1.
         24    1    1    2    0    0  0.35102301832E+02 -0.25799501916E+02  0.11366412570E+04  0.11403150219E+04  0.80419002446E+02 0. -1.
        -24    1    1    2    0    0 -0.35102301832E+02  0.25799501916E+02  0.49750330667E+03  0.50584043135E+03  0.80419002446E+02 0.  1.
<mgrwt>
<rscale>  0 0.91460384E+02</rscale>
<asrwt>0</asrwt>
<pdfrwt beam="1">  1        2 0.25233041E+00 0.91460384E+02</pdfrwt>
<pdfrwt beam="2">  1       -2 0.92391588E-03 0.91460384E+02</pdfrwt>
<totfact> 0.25727093E+04</totfact>
</mgrwt>
</event>
<event>
 4    1  0.4862093E-001  0.8838156E+02  0.7546771E-02  0.1306819E+00
          4   -1    0    0  501    0  0.00000000000E+00  0.00000000000E+00  0.27937540236E+03  0.27937540236E+03  0.00000000000E+00 0. -1.
         -4   -1    0    0    0  501 -0.00000000000E+00 -0.00000000000E+00 -0.31435820362E+02  0.31435820362E+02  0.00000000000E+00 0.  1.
         24    1    1    2    0    0  0.99078913784E+01  0.35297570549E+02  0.17564602977E+03  0.19662865643E+03  0.80419002446E+02 0.  1.
        -24    1    1    2    0    0 -0.99078913784E+01 -0.35297570549E+02  0.72293552220E+02  0.11418256629E+03  0.80419002446E+02 0.  1.
<mgrwt>
<rscale>  0 0.88381563E+02</rscale>
<asrwt>0</asrwt>
<pdfrwt beam="1">  1        4 0.42980830E-01 0.88381563E+02</pdfrwt>
<pdfrwt beam="2">  1       -4 0.48362802E-02 0.88381563E+02</pdfrwt>
<totfact> 0.19656910E+03</totfact>
</mgrwt>
</event>
<event>
 4    1  0.4862093E-001  0.9057293E+02  0.7546771E-02  0.1301470E+00
          2   -1    0    0  501    0  0.00000000000E+00  0.00000000000E+00  0.27722410533E+03  0.27722410533E+03  0.00000000000E+00 0. -1.
         -2   -1    0    0    0  501 -0.00000000000E+00 -0.00000000000E+00 -0.11279871382E+03  0.11279871382E+03  0.00000000000E+00 0.  1.
         24    1    1    2    0    0  0.13361036613E+02 -0.39467987140E+02  0.24970260349E+03  0.26562162083E+03  0.80419002446E+02 0. -1.
        -24    1    1    2    0    0 -0.13361036613E+02  0.39467987140E+02 -0.85277211975E+02  0.12440119833E+03  0.80419002446E+02 0.  1.
<mgrwt>
<rscale>  0 0.90572928E+02</rscale>
<asrwt>0</asrwt>
<pdfrwt beam="1">  1        2 0.42649862E-01 0.90572928E+02</pdfrwt>
<pdfrwt beam="2">  1       -2 0.17353648E-01 0.90572928E+02</pdfrwt>
<totfact> 0.30261640E+03</totfact>
</mgrwt>
</event>
<event>
 4    1  0.4862093E-001  0.8545207E+02  0.7546771E-02  0.1314255E+00
         -1   -1    0    0    0  501 -0.00000000000E+00  0.00000000000E+00  0.16831246892E+02  0.16831246892E+02  0.00000000000E+00 0.  1.
          1   -1    0    0  501    0  0.00000000000E+00 -0.00000000000E+00 -0.52001686830E+03  0.52001686830E+03  0.00000000000E+00 0. -1.
         24    1    1    2    0    0  0.33100631448E+01 -0.28703364738E+02 -0.14232054419E+03  0.16600359309E+03  0.80419002446E+02 0.  1.
        -24    1    1    2    0    0 -0.33100631448E+01  0.28703364738E+02 -0.36086507722E+03  0.37084452211E+03  0.80419002446E+02 0. -1.
<mgrwt>
<rscale>  0 0.85452066E+02</rscale>
<asrwt>0</asrwt>
<pdfrwt beam="1">  1        1 0.80002595E-01 0.85452066E+02</pdfrwt>
<pdfrwt beam="2">  1       -1 0.25894226E-02 0.85452066E+02</pdfrwt>
<totfact> 0.18133019E+04</totfact>
</mgrwt>
</event>
<event>
 4    1  0.4862093E-001  0.1529369E+03  0.7546771E-02  0.1196910E+00
         -2   -1    0    0    0  501 -0.00000000000E+00  0.00000000000E+00  0.55823403904E+02  0.55823403904E+02  0.00000000000E+00 0.  1.
          2   -1    0    0  501    0  0.00000000000E+00 -0.00000000000E+00 -0.15828180974E+04  0.15828180974E+04  0.00000000000E+00 0. -1.
         24    1    1    2    0    0 -0.12349427244E+03  0.40885639253E+02 -0.14660551657E+04  0.14740106633E+04  0.80419002446E+02 0. -1.
        -24    1    1    2    0    0  0.12349427244E+03 -0.40885639253E+02 -0.60939527888E+02  0.16463083805E+03  0.80419002446E+02 0.  1.
<mgrwt>
<rscale>  0 0.15293687E+03</rscale>
<asrwt>0</asrwt>
<pdfrwt beam="1">  1        2 0.24351042E+00 0.15293687E+03</pdfrwt>
<pdfrwt beam="2">  1       -2 0.85882178E-02 0.15293687E+03</pdfrwt>
<totfact> 0.10553521E+03</totfact>
</mgrwt>
</event>
<event>
 4    1  0.4862093E-001  0.9090226E+02  0.7546771E-02  0.1300681E+00
         -2   -1    0    0    0  501 -0.00000000000E+00  0.00000000000E+00  0.41752680774E+01  0.41752680774E+01  0.00000000000E+00 0.  1.
          2   -1    0    0  501    0  0.00000000000E+00 -0.00000000000E+00 -0.24448587165E+04  0.24448587165E+04  0.00000000000E+00 0. -1.
         24    1    1    2    0    0 -0.35902473037E+02 -0.22517065493E+02 -0.17548127358E+04  0.17571656039E+04  0.80419002446E+02 0. -1.
        -24    1    1    2    0    0  0.35902473037E+02  0.22517065493E+02 -0.68587071254E+03  0.69186838061E+03  0.80419002446E+02 0.  1.
<mgrwt>
<rscale>  0 0.90902265E+02</rscale>
<asrwt>0</asrwt>
<pdfrwt beam="1">  1        2 0.37613241E+00 0.90902265E+02</pdfrwt>
<pdfrwt beam="2">  1       -2 0.64234842E-03 0.90902265E+02</pdfrwt>
<totfact> 0.16787352E+04</totfact>
</mgrwt>
</event>
<event>
 4    1  0.4862093E-001  0.1090414E+03  0.7546771E-02  0.1262355E+00
         -2   -1    0    0    0  501 -0.00000000000E+00  0.00000000000E+00  0.27929949941E+03  0.27929949941E+03  0.00000000000E+00 0.  1.
          2   -1    0    0  501    0  0.00000000000E+00 -0.00000000000E+00 -0.51688628317E+02  0.51688628317E+02  0.00000000000E+00 0. -1.
         24    1    1    2    0    0  0.16178709036E+02  0.71840592712E+02  0.44298569881E+02  0.11769622184E+03  0.80419002446E+02 0. -1.
        -24    1    1    2    0    0 -0.16178709036E+02 -0.71840592712E+02  0.18331230121E+03  0.21329190588E+03  0.80419002446E+02 0.  1.
<mgrwt>
<rscale>  0 0.10904145E+03</rscale>
<asrwt>0</asrwt>
<pdfrwt beam="1">  1        2 0.79520969E-02 0.10904145E+03</pdfrwt>
<pdfrwt beam="2">  1       -2 0.42969153E-01 0.10904145E+03</pdfrwt>
<totfact> 0.41680677E+03</totfact>
</mgrwt>
</event>
<event>
 4    1  0.4862093E-001  0.8239341E+02  0.7546771E-02  0.1322393E+00
          2   -1    0    0  501    0  0.00000000000E+00  0.00000000000E+00  0.11188035896E+04  0.11188035896E+04  0.00000000000E+00 0. -1.
         -2   -1    0    0    0  501 -0.00000000000E+00 -0.00000000000E+00 -0.65960706537E+01  0.65960706537E+01  0.00000000000E+00 0.  1.
         24    1    1    2    0    0 -0.44263365634E+01  0.17374288253E+02  0.71534778799E+03  0.72007717092E+03  0.80419002446E+02 0. -1.
        -24    1    1    2    0    0  0.44263365634E+01 -0.17374288253E+02  0.39685973092E+03  0.40532248930E+03  0.80419002446E+02 0.  1.
<mgrwt>
<rscale>  0 0.82393412E+02</rscale>
<asrwt>0</asrwt>
<pdfrwt beam="1">  1        2 0.17212348E+00 0.82393412E+02</pdfrwt>
<pdfrwt beam="2">  1       -2 0.10147810E-02 0.82393412E+02</pdfrwt>
<totfact> 0.41806528E+04</totfact>
</mgrwt>
</event>
<event>
 4    1  0.4862093E-001  0.8239745E+02  0.7546771E-02  0.1322382E+00
          1   -1    0    0  501    0  0.00000000000E+00  0.00000000000E+00  0.46114855867E+03  0.46114855867E+03  0.00000000000E+00 0. -1.
         -1   -1    0    0    0  501 -0.00000000000E+00 -0.00000000000E+00 -0.23814801181E+02  0.23814801181E+02  0.00000000000E+00 0.  1.
         24    1    1    2    0    0 -0.97396449557E+01  0.15075266371E+02  0.68840534656E+02  0.10737019841E+03  0.80419002446E+02 0. -1.
        -24    1    1    2    0    0  0.97396449557E+01 -0.15075266371E+02  0.36849322283E+03  0.37759316144E+03  0.80419002446E+02 0. -1.
<mgrwt>
<rscale>  0 0.82397453E+02</rscale>
<asrwt>0</asrwt>
<pdfrwt beam="1">  1        1 0.70945925E-01 0.82397453E+02</pdfrwt>
<pdfrwt beam="2">  1       -1 0.36638159E-02 0.82397453E+02</pdfrwt>
<totfact> 0.12786098E+04</totfact>
</mgrwt>
</event>
<event>
 4    1  0.4862093E-001  0.8248750E+02  0.7546771E-02  0.1322137E+00
         -1   -1    0    0    0  501 -0.00000000000E+00  0.00000000000E+00  0.29929116826E+02  0.29929116826E+02  0.00000000000E+00 0.  1.
          1   -1    0    0  501    0  0.00000000000E+00 -0.00000000000E+00 -0.22971697642E+03  0.22971697642E+03  0.00000000000E+00 0. -1.
         24    1    1    2    0    0  0.16536806701E+02 -0.79688572643E+01 -0.11309060997E+03  0.13997739346E+03  0.80419002446E+02 0. -1.
        -24    1    1    2    0    0 -0.16536806701E+02  0.79688572643E+01 -0.86697249622E+02  0.11966869979E+03  0.80419002446E+02 0.  1.
<mgrwt>
<rscale>  0 0.82487492E+02</rscale>
<asrwt>0</asrwt>
<pdfrwt beam="1">  1        1 0.35341073E-01 0.82487502E+02</pdfrwt>
<pdfrwt beam="2">  1       -1 0.46044796E-02 0.82487502E+02</pdfrwt>
<totfact> 0.21586516E+04</totfact>
</mgrwt>
</event>
<event>
 4    1  0.4862093E-001  0.1097856E+03  0.7546771E-02  0.1260967E+00
         -2   -1    0    0    0  501 -0.00000000000E+00  0.00000000000E+00  0.65392853512E+02  0.65392853512E+02  0.00000000000E+00 0.  1.
          2   -1    0    0  501    0  0.00000000000E+00 -0.00000000000E+00 -0.30654656682E+03  0.30654656682E+03  0.00000000000E+00 0. -1.
         24    1    1    2    0    0 -0.19170942587E+02  0.72236676400E+02 -0.23800868471E+03  0.26210877973E+03  0.80419002446E+02 0. -1.
        -24    1    1    2    0    0  0.19170942587E+02 -0.72236676400E+02 -0.31450285975E+01  0.10983064061E+03  0.80419002446E+02 0.  1.
<mgrwt>
<rscale>  0 0.10978560E+03</rscale>
<asrwt>0</asrwt>
<pdfrwt beam="1">  1        2 0.47161012E-01 0.10978560E+03</pdfrwt>
<pdfrwt beam="2">  1       -2 0.10060439E-01 0.10978560E+03</pdfrwt>
<totfact> 0.65991275E+03</totfact>
</mgrwt>
</event>
<event>
 4    1  0.4862093E-001  0.1492880E+03  0.7546771E-02  0.1201351E+00
         -2   -1    0    0    0  501 -0.00000000000E+00  0.00000000000E+00  0.25142453035E+02  0.25142453035E+02  0.00000000000E+00 0.  1.
          2   -1    0    0  501    0  0.00000000000E+00 -0.00000000000E+00 -0.89998666313E+03  0.89998666313E+03  0.00000000000E+00 0. -1.
         24    1    1    2    0    0 -0.10536518381E+03 -0.68686626577E+02 -0.38063939588E+03  0.40886824318E+03  0.80419002446E+02 0.  1.
        -24    1    1    2    0    0  0.10536518381E+03  0.68686626577E+02 -0.49420481422E+03  0.51626087299E+03  0.80419002446E+02 0. -1.
<mgrwt>
<rscale>  0 0.14928796E+03</rscale>
<asrwt>0</asrwt>
<pdfrwt beam="1">  1        2 0.13845950E+00 0.14928798E+03</pdfrwt>
<pdfrwt beam="2">  1       -2 0.38680694E-02 0.14928798E+03</pdfrwt>
<totfact> 0.85194554E+03</totfact>
</mgrwt>
</event>
<event>
 4    1  0.4862093E-001  0.8973311E+02  0.7546771E-02  0.1303499E+00
         -2   -1    0    0    0  501 -0.00000000000E+00  0.00000000000E+00  0.19114598281E+03  0.19114598281E+03  0.00000000000E+00 0.  1.
          2   -1    0    0  501    0  0.00000000000E+00 -0.00000000000E+00 -0.43668780778E+02  0.43668780778E+02  0.00000000000E+00 0. -1.
         24    1    1    2    0    0  0.15786624610E+02  0.36545766643E+02  0.95813626279E+02  0.13127176967E+03  0.80419002446E+02 0.  0.
        -24    1    1    2    0    0 -0.15786624610E+02 -0.36545766643E+02  0.51663575749E+02  0.10354299392E+03  0.80419002446E+02 0.  0.
<mgrwt>
<rscale>  0 0.89733096E+02</rscale>
<asrwt>0</asrwt>
<pdfrwt beam="1">  1        2 0.67182741E-02 0.89733107E+02</pdfrwt>
<pdfrwt beam="2">  1       -2 0.29407074E-01 0.89733107E+02</pdfrwt>
<totfact> 0.10170538E+04</totfact>
</mgrwt>
</event>
<event>
 4    1  0.4862093E-001  0.1851666E+03  0.7546771E-02  0.1162894E+00
          2   -1    0    0  501    0  0.00000000000E+00  0.00000000000E+00  0.11404642123E+04  0.11404642123E+04  0.00000000000E+00 0. -1.
         -2   -1    0    0    0  501 -0.00000000000E+00 -0.00000000000E+00 -0.34193937715E+02  0.34193937715E+02  0.00000000000E+00 0.  1.
         24    1    1    2    0    0  0.13581448613E+02  0.16623775516E+03  0.75725739506E+03  0.77956746040E+03  0.80419002446E+02 0.  1.
        -24    1    1    2    0    0 -0.13581448613E+02 -0.16623775516E+03  0.34901287948E+03  0.39509068957E+03  0.80419002446E+02 0. -1.
<mgrwt>
<rscale>  0 0.18516658E+03</rscale>
<asrwt>0</asrwt>
<pdfrwt beam="1">  1        2 0.17545600E+00 0.18516658E+03</pdfrwt>
<pdfrwt beam="2">  1       -2 0.52606067E-02 0.18516658E+03</pdfrwt>
<totfact> 0.38840390E+03</totfact>
</mgrwt>
</event>
<event>
 4    1  0.4862093E-001  0.8117470E+02  0.7546771E-02  0.1325750E+00
         -1   -1    0    0    0  501 -0.00000000000E+00  0.00000000000E+00  0.90743358122E+01  0.90743358122E+01  0.00000000000E+00 0.  1.
          1   -1    0    0  501    0  0.00000000000E+00 -0.00000000000E+00 -0.73191585338E+03  0.73191585338E+03  0.00000000000E+00 0. -1.
         24    1    1    2    0    0  0.54461555423E+01  0.96154080783E+01 -0.32853798993E+03  0.33841770560E+03  0.80419002446E+02 0.  0.
        -24    1    1    2    0    0 -0.54461555423E+01 -0.96154080783E+01 -0.39430352764E+03  0.40257248360E+03  0.80419002446E+02 0.  0.
<mgrwt>
<rscale>  0 0.81174704E+02</rscale>
<asrwt>0</asrwt>
<pdfrwt beam="1">  1        1 0.11260245E+00 0.81174704E+02</pdfrwt>
<pdfrwt beam="2">  1       -1 0.13960515E-02 0.81174704E+02</pdfrwt>
<totfact> 0.27376500E+04</totfact>
</mgrwt>
</event>
<event>
 4    1  0.4862093E-001  0.8227406E+02  0.7546771E-02  0.1322719E+00
          1   -1    0    0  501    0  0.00000000000E+00  0.00000000000E+00  0.85506037778E+02  0.85506037778E+02  0.00000000000E+00 0. -1.
         -1   -1    0    0    0  501 -0.00000000000E+00 -0.00000000000E+00 -0.13241854514E+03  0.13241854514E+03  0.00000000000E+00 0.  1.
         24    1    1    2    0    0 -0.13763374292E+02  0.10600692502E+02 -0.92556429725E+02  0.12383744907E+03  0.80419002446E+02 0. -1.
        -24    1    1    2    0    0  0.13763374292E+02 -0.10600692502E+02  0.45643922363E+02  0.94087133852E+02  0.80419002446E+02 0. -1.
<mgrwt>
<rscale>  0 0.82274061E+02</rscale>
<asrwt>0</asrwt>
<pdfrwt beam="1">  1        1 0.13154775E-01 0.82274061E+02</pdfrwt>
<pdfrwt beam="2">  1       -1 0.20372084E-01 0.82274061E+02</pdfrwt>
<totfact> 0.78537260E+03</totfact>
</mgrwt>
</event>
<event>
 4    1  0.4862093E-001  0.8950906E+02  0.7546771E-02  0.1304045E+00
         -2   -1    0    0    0  501 -0.00000000000E+00  0.00000000000E+00  0.71847708116E+02  0.71847708116E+02  0.00000000000E+00 0.  1.
          2   -1    0    0  501    0  0.00000000000E+00 -0.00000000000E+00 -0.11580543661E+03  0.11580543661E+03  0.00000000000E+00 0. -1.
         24    1    1    2    0    0  0.35759346080E+02 -0.16307227331E+02 -0.40045211988E+02  0.98058612334E+02  0.80419002446E+02 0. -1.
        -24    1    1    2    0    0 -0.35759346080E+02  0.16307227331E+02 -0.39125165084E+01  0.89594532395E+02  0.80419002446E+02 0.  0.
<mgrwt>
<rscale>  0 0.89509064E+02</rscale>
<asrwt>0</asrwt>
<pdfrwt beam="1">  1        2 0.17816221E-01 0.89509064E+02</pdfrwt>
<pdfrwt beam="2">  1       -2 0.11053494E-01 0.89509064E+02</pdfrwt>
<totfact> 0.16024337E+04</totfact>
</mgrwt>
</event>
<event>
 4    1  0.4862093E-001  0.9349083E+02  0.7546771E-02  0.1294612E+00
         -1   -1    0    0    0  501 -0.00000000000E+00  0.00000000000E+00  0.71445452825E+02  0.71445452825E+02  0.00000000000E+00 0.  1.
          1   -1    0    0  501    0  0.00000000000E+00 -0.00000000000E+00 -0.17932411610E+03  0.17932411610E+03  0.00000000000E+00 0. -1.
         24    1    1    2    0    0 -0.33414901230E+02  0.34011226953E+02  0.16742502936E+02  0.94978137179E+02  0.80419002446E+02 0. -1.
        -24    1    1    2    0    0  0.33414901230E+02 -0.34011226953E+02 -0.12462116621E+03  0.15579143175E+03  0.80419002446E+02 0.  1.
<mgrwt>
<rscale>  0 0.93490829E+02</rscale>
<asrwt>0</asrwt>
<pdfrwt beam="1">  1        1 0.27588326E-01 0.93490829E+02</pdfrwt>
<pdfrwt beam="2">  1       -1 0.10991608E-01 0.93490829E+02</pdfrwt>
<totfact> 0.81381328E+03</totfact>
</mgrwt>
</event>
<event>
 4    1  0.4862093E-001  0.8200702E+02  0.7546771E-02  0.1323450E+00
          2   -1    0    0  501    0  0.00000000000E+00  0.00000000000E+00  0.13990204879E+04  0.13990204879E+04  0.00000000000E+00 0. -1.
         -2   -1    0    0    0  501 -0.00000000000E+00 -0.00000000000E+00 -0.49440108784E+01  0.49440108784E+01  0.00000000000E+00 0.  1.
         24    1    1    2    0    0 -0.24891887074E+01 -0.15866200425E+02  0.58019608850E+03  0.58596301030E+03  0.80419002446E+02 0.  1.
        -24    1    1    2    0    0  0.24891887074E+01  0.15866200425E+02  0.81388038852E+03  0.81800148847E+03  0.80419002446E+02 0.  0.
<mgrwt>
<rscale>  0 0.82007012E+02</rscale>
<asrwt>0</asrwt>
<pdfrwt beam="1">  1        2 0.21523361E+00 0.82007022E+02</pdfrwt>
<pdfrwt beam="2">  1       -2 0.76061817E-03 0.82007022E+02</pdfrwt>
<totfact> 0.44471494E+04</totfact>
</mgrwt>
</event>
<event>
 4    1  0.4862093E-001  0.1038221E+03  0.7546771E-02  0.1272458E+00
          3   -1    0    0  501    0  0.00000000000E+00  0.00000000000E+00  0.64441385627E+02  0.64441385627E+02  0.00000000000E+00 0. -1.
         -3   -1    0    0    0  501 -0.00000000000E+00 -0.00000000000E+00 -0.18446437992E+03  0.18446437992E+03  0.00000000000E+00 0.  1.
         24    1    1    2    0    0  0.30798849244E+02  0.57993485312E+02 -0.98009246007E+02  0.14277549408E+03  0.80419002446E+02 0. -1.
        -24    1    1    2    0    0 -0.30798849244E+02 -0.57993485312E+02 -0.22013748288E+02  0.10613027147E+03  0.80419002446E+02 0.  1.
<mgrwt>
<rscale>  0 0.10382210E+03</rscale>
<asrwt>0</asrwt>
<pdfrwt beam="1">  1        3 0.99140595E-02 0.10382210E+03</pdfrwt>
<pdfrwt beam="2">  1       -3 0.28379135E-01 0.10382210E+03</pdfrwt>
<totfact> 0.19445946E+03</totfact>
</mgrwt>
</event>
<event>
 4    1  0.4862093E-001  0.8827134E+02  0.7546771E-02  0.1307093E+00
          2   -1    0    0  501    0  0.00000000000E+00  0.00000000000E+00  0.49501301178E+03  0.49501301178E+03  0.00000000000E+00 0. -1.
         -2   -1    0    0    0  501 -0.00000000000E+00 -0.00000000000E+00 -0.19085090054E+02  0.19085090054E+02  0.00000000000E+00 0.  1.
         24    1    1    2    0    0  0.33069644228E+02 -0.15199087365E+02  0.34556840548E+03  0.35666420124E+03  0.80419002446E+02 0.  0.
        -24    1    1    2    0    0 -0.33069644228E+02  0.15199087365E+02  0.13035951625E+03  0.15743390060E+03  0.80419002446E+02 0.  0.
<mgrwt>
<rscale>  0 0.88271341E+02</rscale>
<asrwt>0</asrwt>
<pdfrwt beam="1">  1        2 0.76155838E-01 0.88271341E+02</pdfrwt>
<pdfrwt beam="2">  1       -2 0.29361681E-02 0.88271341E+02</pdfrwt>
<totfact> 0.24708686E+04</totfact>
</mgrwt>
</event>
<event>
 4    1  0.4862093E-001  0.8899726E+02  0.7546771E-02  0.1305298E+00
          2   -1    0    0  501    0  0.00000000000E+00  0.00000000000E+00  0.54596548315E+03  0.54596548315E+03  0.00000000000E+00 0. -1.
         -2   -1    0    0    0  501 -0.00000000000E+00 -0.00000000000E+00 -0.14650652025E+02  0.14650652025E+02  0.00000000000E+00 0.  1.
         24    1    1    2    0    0  0.25540942319E+02 -0.28301165956E+02  0.29338009101E+03  0.30658178270E+03  0.80419002446E+02 0.  1.
        -24    1    1    2    0    0 -0.25540942319E+02  0.28301165956E+02  0.23793474012E+03  0.25403435248E+03  0.80419002446E+02 0.  0.
<mgrwt>
<rscale>  0 0.88997257E+02</rscale>
<asrwt>0</asrwt>
<pdfrwt beam="1">  1        2 0.83994674E-01 0.88997257E+02</pdfrwt>
<pdfrwt beam="2">  1       -2 0.22539469E-02 0.88997257E+02</pdfrwt>
<totfact> 0.32586149E+04</totfact>
</mgrwt>
</event>
<event>
 4    1  0.4862093E-001  0.9932036E+02  0.7546771E-02  0.1281732E+00
          2   -1    0    0  501    0  0.00000000000E+00  0.00000000000E+00  0.36807759974E+03  0.36807759974E+03  0.00000000000E+00 0. -1.
         -2   -1    0    0    0  501 -0.00000000000E+00 -0.00000000000E+00 -0.18269770791E+03  0.18269770791E+03  0.00000000000E+00 0.  1.
         24    1    1    2    0    0 -0.17622766120E+02  0.55558577990E+02  0.34707850668E+03  0.36100972733E+03  0.80419002446E+02 0. -1.
        -24    1    1    2    0    0  0.17622766120E+02 -0.55558577990E+02 -0.16169861485E+03  0.18976558032E+03  0.80419002446E+02 0.  1.
<mgrwt>
<rscale>  0 0.99320358E+02</rscale>
<asrwt>0</asrwt>
<pdfrwt beam="1">  1        2 0.56627323E-01 0.99320358E+02</pdfrwt>
<pdfrwt beam="2">  1       -2 0.28107340E-01 0.99320358E+02</pdfrwt>
<totfact> 0.99295419E+02</totfact>
</mgrwt>
</event>
<event>
 4    1  0.4862093E-001  0.8141865E+02  0.7546771E-02  0.1325073E+00
         -2   -1    0    0    0  501 -0.00000000000E+00  0.00000000000E+00  0.17585074386E+02  0.17585074386E+02  0.00000000000E+00 0.  1.
          2   -1    0    0  501    0  0.00000000000E+00 -0.00000000000E+00 -0.20968445341E+04  0.20968445341E+04  0.00000000000E+00 0. -1.
         24    1    1    2    0    0  0.11046056735E+02 -0.63059320037E+01 -0.19971078482E+04  0.19987668082E+04  0.80419002446E+02 0. -1.
        -24    1    1    2    0    0 -0.11046056735E+02  0.63059320037E+01 -0.82151611509E+02  0.11566280031E+03  0.80419002446E+02 0.  1.
<mgrwt>
<rscale>  0 0.81418647E+02</rscale>
<asrwt>0</asrwt>
<pdfrwt beam="1">  1        2 0.32259156E+00 0.81418647E+02</pdfrwt>
<pdfrwt beam="2">  1       -2 0.27053953E-02 0.81418647E+02</pdfrwt>
<totfact> 0.32622693E+03</totfact>
</mgrwt>
</event>
<event>
 4    1  0.4862093E-001  0.8596693E+02  0.7546771E-02  0.1312923E+00
          2   -1    0    0  501    0  0.00000000000E+00  0.00000000000E+00  0.47941803665E+02  0.47941803665E+02  0.00000000000E+00 0. -1.
         -2   -1    0    0    0  501 -0.00000000000E+00 -0.00000000000E+00 -0.15723379513E+03  0.15723379513E+03  0.00000000000E+00 0.  1.
         24    1    1    2    0    0  0.10376307085E+02  0.28555708571E+02 -0.40283055710E+02  0.94937014765E+02  0.80419002446E+02 0.  1.
        -24    1    1    2    0    0 -0.10376307085E+02 -0.28555708571E+02 -0.69008935758E+02  0.11023858403E+03  0.80419002446E+02 0.  0.
<mgrwt>
<rscale>  0 0.85966925E+02</rscale>
<asrwt>0</asrwt>
<pdfrwt beam="1">  1        2 0.73756621E-02 0.85966925E+02</pdfrwt>
<pdfrwt beam="2">  1       -2 0.24189815E-01 0.85966925E+02</pdfrwt>
<totfact> 0.12667419E+04</totfact>
</mgrwt>
</event>
<event>
 4    1  0.4862093E-001  0.8218191E+02  0.7546771E-02  0.1322971E+00
          2   -1    0    0  501    0  0.00000000000E+00  0.00000000000E+00  0.16537661768E+04  0.16537661768E+04  0.00000000000E+00 0. -1.
         -2   -1    0    0    0  501 -0.00000000000E+00 -0.00000000000E+00 -0.40850711341E+01  0.40850711341E+01  0.00000000000E+00 0.  1.
         24    1    1    2    0    0 -0.13268043337E+02 -0.10516974733E+02  0.81098033517E+03  0.81513371156E+03  0.80419002446E+02 0.  0.
        -24    1    1    2    0    0  0.13268043337E+02  0.10516974733E+02  0.83870077055E+03  0.84271753643E+03  0.80419002446E+02 0.  1.
<mgrwt>
<rscale>  0 0.82181904E+02</rscale>
<asrwt>0</asrwt>
<pdfrwt beam="1">  1        2 0.25442503E+00 0.82181914E+02</pdfrwt>
<pdfrwt beam="2">  1       -2 0.62847381E-03 0.82181914E+02</pdfrwt>
<totfact> 0.43173196E+04</totfact>
</mgrwt>
</event>
<event>
 4    1  0.4862093E-001  0.8540649E+02  0.7546771E-02  0.1314373E+00
         -2   -1    0    0    0  501 -0.00000000000E+00  0.00000000000E+00  0.21148788134E+01  0.21148788134E+01  0.00000000000E+00 0.  1.
          2   -1    0    0  501    0  0.00000000000E+00 -0.00000000000E+00 -0.36207406310E+04  0.36207406310E+04  0.00000000000E+00 0. -1.
         24    1    1    2    0    0 -0.24892999607E+02 -0.14401089544E+02 -0.22037955234E+04  0.22054498357E+04  0.80419002446E+02 0. -1.
        -24    1    1    2    0    0  0.24892999607E+02  0.14401089544E+02 -0.14148302288E+04  0.14174056742E+04  0.80419002446E+02 0.  1.
<mgrwt>
<rscale>  0 0.85406491E+02</rscale>
<asrwt>0</asrwt>
<pdfrwt beam="1">  1        2 0.55703292E+00 0.85406491E+02</pdfrwt>
<pdfrwt beam="2">  1       -2 0.32536837E-03 0.85406491E+02</pdfrwt>
<totfact> 0.90758078E+03</totfact>
</mgrwt>
</event>
<event>
 4    1  0.4862093E-001  0.8235419E+02  0.7546771E-02  0.1322500E+00
         -2   -1    0    0    0  501 -0.00000000000E+00  0.00000000000E+00  0.30960535751E+01  0.30960535751E+01  0.00000000000E+00 0.  1.
          2   -1    0    0  501    0  0.00000000000E+00 -0.00000000000E+00 -0.22286735454E+04  0.22286735454E+04  0.00000000000E+00 0. -1.
         24    1    1    2    0    0 -0.17287038650E+02 -0.40194198506E+01 -0.12586401712E+04  0.12613315559E+04  0.80419002446E+02 0. -1.
        -24    1    1    2    0    0  0.17287038650E+02  0.40194198506E+01 -0.96693732063E+03  0.97043804306E+03  0.80419002446E+02 0.  1.
<mgrwt>
<rscale>  0 0.82354195E+02</rscale>
<asrwt>0</asrwt>
<pdfrwt beam="1">  1        2 0.34287393E+00 0.82354195E+02</pdfrwt>
<pdfrwt beam="2">  1       -2 0.47631443E-03 0.82354195E+02</pdfrwt>
<totfact> 0.32783615E+04</totfact>
</mgrwt>
</event>
<event>
 4    1  0.4862093E-001  0.8308315E+02  0.7546771E-02  0.1320523E+00
         -2   -1    0    0    0  501 -0.00000000000E+00  0.00000000000E+00  0.71605386388E+01  0.71605386388E+01  0.00000000000E+00 0.  1.
          2   -1    0    0  501    0  0.00000000000E+00 -0.00000000000E+00 -0.15968512882E+04  0.15968512882E+04  0.00000000000E+00 0. -1.
         24    1    1    2    0    0  0.16191757753E+02 -0.13168951616E+02 -0.12997318345E+04  0.13023846021E+04  0.80419002446E+02 0.  0.
        -24    1    1    2    0    0 -0.16191757753E+02  0.13168951616E+02 -0.28995891505E+03  0.30162722470E+03  0.80419002446E+02 0. -1.
<mgrwt>
<rscale>  0 0.83083153E+02</rscale>
<asrwt>0</asrwt>
<pdfrwt beam="1">  1        2 0.24566940E+00 0.83083153E+02</pdfrwt>
<pdfrwt beam="2">  1       -2 0.11016215E-02 0.83083153E+02</pdfrwt>
<totfact> 0.20945966E+04</totfact>
</mgrwt>
</event>
<event>
 4    1  0.4862093E-001  0.8301093E+02  0.7546771E-02  0.1320718E+00
          1   -1    0    0  501    0  0.00000000000E+00  0.00000000000E+00  0.21115692268E+03  0.21115692268E+03  0.00000000000E+00 0. -1.
         -1   -1    0    0    0  501 -0.00000000000E+00 -0.00000000000E+00 -0.61333186565E+02  0.61333186565E+02  0.00000000000E+00 0.  1.
         24    1    1    2    0    0 -0.19354239496E+02  0.70008879259E+01 -0.18287001505E+02  0.85001349381E+02  0.80419002446E+02 0.  1.
        -24    1    1    2    0    0  0.19354239496E+02 -0.70008879259E+01  0.16811073762E+03  0.18748875987E+03  0.80419002446E+02 0. -1.
<mgrwt>
<rscale>  0 0.83010933E+02</rscale>
<asrwt>0</asrwt>
<pdfrwt beam="1">  1        1 0.32485680E-01 0.83010933E+02</pdfrwt>
<pdfrwt beam="2">  1       -1 0.94358749E-02 0.83010933E+02</pdfrwt>
<totfact> 0.83001935E+03</totfact>
</mgrwt>
</event>
<event>
 4    1  0.4862093E-001  0.8669107E+02  0.7546771E-02  0.1311069E+00
         -4   -1    0    0    0  501 -0.00000000000E+00  0.00000000000E+00  0.10168116742E+03  0.10168116742E+03  0.00000000000E+00 0.  1.
          4   -1    0    0  501    0  0.00000000000E+00 -0.00000000000E+00 -0.92914795149E+02  0.92914795149E+02  0.00000000000E+00 0. -1.
         24    1    1    2    0    0 -0.23249855806E+02 -0.22529300707E+02 -0.39619918474E+02  0.95315681184E+02  0.80419002446E+02 0. -1.
        -24    1    1    2    0    0  0.23249855806E+02  0.22529300707E+02  0.48386290745E+02  0.99280281385E+02  0.80419002446E+02 0.  1.
<mgrwt>
<rscale>  0 0.86691067E+02</rscale>
<asrwt>0</asrwt>
<pdfrwt beam="1">  1        4 0.14294584E-01 0.86691067E+02</pdfrwt>
<pdfrwt beam="2">  1       -4 0.15643256E-01 0.86691067E+02</pdfrwt>
<totfact> 0.21085483E+03</totfact>
</mgrwt>
</event>
<event>
 4    1  0.4862093E-001  0.8833919E+02  0.7546771E-02  0.1306924E+00
          2   -1    0    0  501    0  0.00000000000E+00  0.00000000000E+00  0.17731111041E+04  0.17731111041E+04  0.00000000000E+00 0. -1.
         -2   -1    0    0    0  501 -0.00000000000E+00 -0.00000000000E+00 -0.53936453573E+01  0.53936453573E+01  0.00000000000E+00 0.  1.
         24    1    1    2    0    0 -0.52823524847E+01 -0.36175875188E+02  0.12653086836E+04  0.12683886936E+04  0.80419002446E+02 0.  0.
        -24    1    1    2    0    0  0.52823524847E+01  0.36175875188E+02  0.50240877515E+03  0.51011605590E+03  0.80419002446E+02 0.  0.
<mgrwt>
<rscale>  0 0.88339194E+02</rscale>
<asrwt>0</asrwt>
<pdfrwt beam="1">  1        2 0.27278586E+00 0.88339194E+02</pdfrwt>
<pdfrwt beam="2">  1       -2 0.82979301E-03 0.88339194E+02</pdfrwt>
<totfact> 0.25606921E+04</totfact>
</mgrwt>
</event>
<event>
 4    1  0.4862093E-001  0.8360453E+02  0.7546771E-02  0.1319123E+00
          2   -1    0    0  501    0  0.00000000000E+00  0.00000000000E+00  0.30022420396E+03  0.30022420396E+03  0.00000000000E+00 0. -1.
         -2   -1    0    0    0  501 -0.00000000000E+00 -0.00000000000E+00 -0.30851391921E+02  0.30851391921E+02  0.00000000000E+00 0.  1.
         24    1    1    2    0    0  0.62847576046E+01  0.21977334464E+02  0.21668380711E+03  0.23225328766E+03  0.80419002446E+02 0. -1.
        -24    1    1    2    0    0 -0.62847576046E+01 -0.21977334464E+02  0.52689004926E+02  0.98822308224E+02  0.80419002446E+02 0.  1.
<mgrwt>
<rscale>  0 0.83604530E+02</rscale>
<asrwt>0</asrwt>
<pdfrwt beam="1">  1        2 0.46188337E-01 0.83604530E+02</pdfrwt>
<pdfrwt beam="2">  1       -2 0.47463682E-02 0.83604530E+02</pdfrwt>
<totfact> 0.20579031E+04</totfact>
</mgrwt>
</event>
<event>
 4    1  0.4862093E-001  0.8467348E+02  0.7546771E-02  0.1316289E+00
          2   -1    0    0  501    0  0.00000000000E+00  0.00000000000E+00  0.31213012843E+03  0.31213012843E+03  0.00000000000E+00 0. -1.
         -2   -1    0    0    0  501 -0.00000000000E+00 -0.00000000000E+00 -0.32209761719E+02  0.32209761719E+02  0.00000000000E+00 0.  1.
         24    1    1    2    0    0  0.99728655783E+01  0.24554512348E+02  0.23217406479E+03  0.24713234195E+03  0.80419002446E+02 0.  0.
        -24    1    1    2    0    0 -0.99728655783E+01 -0.24554512348E+02  0.47746301922E+02  0.97207548195E+02  0.80419002446E+02 0.  0.
<mgrwt>
<rscale>  0 0.84673479E+02</rscale>
<asrwt>0</asrwt>
<pdfrwt beam="1">  1        2 0.48020018E-01 0.84673479E+02</pdfrwt>
<pdfrwt beam="2">  1       -2 0.49553482E-02 0.84673479E+02</pdfrwt>
<totfact> 0.18566276E+04</totfact>
</mgrwt>
</event>
<event>
 4    1  0.4862093E-001  0.1199262E+03  0.7546771E-02  0.1243219E+00
         -2   -1    0    0    0  501 -0.00000000000E+00  0.00000000000E+00  0.10966809498E+03  0.10966809498E+03  0.00000000000E+00 0.  1.
          2   -1    0    0  501    0  0.00000000000E+00 -0.00000000000E+00 -0.13922007574E+03  0.13922007574E+03  0.00000000000E+00 0. -1.
         24    1    1    2    0    0  0.77960377572E+02  0.42863135542E+02 -0.44748999294E+02  0.12800295993E+03  0.80419002446E+02 0. -1.
        -24    1    1    2    0    0 -0.77960377572E+02 -0.42863135542E+02  0.15197018534E+02  0.12088521078E+03  0.80419002446E+02 0.  0.
<mgrwt>
<rscale>  0 0.11992616E+03</rscale>
<asrwt>0</asrwt>
<pdfrwt beam="1">  1        2 0.21418473E-01 0.11992616E+03</pdfrwt>
<pdfrwt beam="2">  1       -2 0.16872015E-01 0.11992616E+03</pdfrwt>
<totfact> 0.67754988E+03</totfact>
</mgrwt>
</event>
<event>
 4    1  0.4862093E-001  0.8651318E+02  0.7546771E-02  0.1311522E+00
          1   -1    0    0  501    0  0.00000000000E+00  0.00000000000E+00  0.24494073196E+03  0.24494073196E+03  0.00000000000E+00 0. -1.
         -1   -1    0    0    0  501 -0.00000000000E+00 -0.00000000000E+00 -0.13167531939E+03  0.13167531939E+03  0.00000000000E+00 0.  1.
         24    1    1    2    0    0  0.86432461452E+00 -0.31883642512E+02 -0.10838579968E+03  0.13867952712E+03  0.80419002446E+02 0.  1.
        -24    1    1    2    0    0 -0.86432461452E+00  0.31883642512E+02  0.22165121225E+03  0.23793652423E+03  0.80419002446E+02 0. -1.
<mgrwt>
<rscale>  0 0.86513176E+02</rscale>
<asrwt>0</asrwt>
<pdfrwt beam="1">  1        1 0.37683190E-01 0.86513176E+02</pdfrwt>
<pdfrwt beam="2">  1       -1 0.20257741E-01 0.86513176E+02</pdfrwt>
<totfact> 0.21411187E+03</totfact>
</mgrwt>
</event>
<event>
 4    1  0.4862093E-001  0.9097624E+02  0.7546771E-02  0.1300505E+00
         -2   -1    0    0    0  501 -0.00000000000E+00  0.00000000000E+00  0.61533203374E+01  0.61533203374E+01  0.00000000000E+00 0.  1.
          2   -1    0    0  501    0  0.00000000000E+00 -0.00000000000E+00 -0.13850759315E+04  0.13850759315E+04  0.00000000000E+00 0. -1.
         24    1    1    2    0    0 -0.33843131314E+02  0.25770175897E+02 -0.80767523080E+03  0.81278284547E+03  0.80419002446E+02 0. -1.
        -24    1    1    2    0    0  0.33843131314E+02 -0.25770175897E+02 -0.57124738033E+03  0.57844640633E+03  0.80419002446E+02 0.  1.
<mgrwt>
<rscale>  0 0.90976236E+02</rscale>
<asrwt>0</asrwt>
<pdfrwt beam="1">  1        2 0.21308877E+00 0.90976236E+02</pdfrwt>
<pdfrwt beam="2">  1       -2 0.94666392E-03 0.90976236E+02</pdfrwt>
<totfact> 0.33542891E+04</totfact>
</mgrwt>
</event>
<event>
 4    1  0.4862093E-001  0.9611120E+02  0.7546771E-02  0.1288693E+00
         -1   -1    0    0    0  501 -0.00000000000E+00  0.00000000000E+00  0.51503080711E+02  0.51503080711E+02  0.00000000000E+00 0.  1.
          1   -1    0    0  501    0  0.00000000000E+00 -0.00000000000E+00 -0.21371880075E+03  0.21371880075E+03  0.00000000000E+00 0. -1.
         24    1    1    2    0    0 -0.20917034252E+02 -0.48297247436E+02 -0.27933137458E+02  0.10008807399E+03  0.80419002446E+02 0.  1.
        -24    1    1    2    0    0  0.20917034252E+02  0.48297247436E+02 -0.13428258258E+03  0.16513380747E+03  0.80419002446E+02 0. -1.
<mgrwt>
<rscale>  0 0.96111198E+02</rscale>
<asrwt>0</asrwt>
<pdfrwt beam="1">  1        1 0.32879816E-01 0.96111198E+02</pdfrwt>
<pdfrwt beam="2">  1       -1 0.79235508E-02 0.96111198E+02</pdfrwt>
<totfact> 0.10762809E+04</totfact>
</mgrwt>
</event>
<event>
 4    1  0.4862093E-001  0.8643096E+02  0.7546771E-02  0.1311732E+00
          2   -1    0    0  501    0  0.00000000000E+00  0.00000000000E+00  0.29204906153E+03  0.29204906153E+03  0.00000000000E+00 0. -1.
         -2   -1    0    0    0  501 -0.00000000000E+00 -0.00000000000E+00 -0.32272836079E+02  0.32272836079E+02  0.00000000000E+00 0.  1.
         24    1    1    2    0    0  0.22155379871E+02 -0.22632585558E+02  0.20374085105E+03  0.22131571370E+03  0.80419002446E+02 0. -1.
        -24    1    1    2    0    0 -0.22155379871E+02  0.22632585558E+02  0.56035374399E+02  0.10300618391E+03  0.80419002446E+02 0.  1.
<mgrwt>
<rscale>  0 0.86430959E+02</rscale>
<asrwt>0</asrwt>
<pdfrwt beam="1">  1        2 0.44930623E-01 0.86430959E+02</pdfrwt>
<pdfrwt beam="2">  1       -2 0.49650519E-02 0.86430959E+02</pdfrwt>
<totfact> 0.19884822E+04</totfact>
</mgrwt>
</event>
<event>
 4    1  0.4862093E-001  0.8686750E+02  0.7546771E-02  0.1310620E+00
         -2   -1    0    0    0  501 -0.00000000000E+00  0.00000000000E+00  0.32874416901E+01  0.32874416901E+01  0.00000000000E+00 0.  1.
          2   -1    0    0  501    0  0.00000000000E+00 -0.00000000000E+00 -0.25953046347E+04  0.25953046347E+04  0.00000000000E+00 0. -1.
         24    1    1    2    0    0  0.53689707275E+01  0.32402487366E+02 -0.17376932258E+04  0.17398631297E+04  0.80419002446E+02 0. -1.
        -24    1    1    2    0    0 -0.53689707275E+01 -0.32402487366E+02 -0.85432396722E+03  0.85872894673E+03  0.80419002446E+02 0.  1.
<mgrwt>
<rscale>  0 0.86867502E+02</rscale>
<asrwt>0</asrwt>
<pdfrwt beam="1">  1        2 0.39928056E+00 0.86867502E+02</pdfrwt>
<pdfrwt beam="2">  1       -2 0.50575656E-03 0.86867502E+02</pdfrwt>
<totfact> 0.19526577E+04</totfact>
</mgrwt>
</event>
<event>
 4    1  0.4862093E-001  0.9972505E+02  0.7546771E-02  0.1280875E+00
          2   -1    0    0  501    0  0.00000000000E+00  0.00000000000E+00  0.17683439232E+04  0.17683439232E+04  0.00000000000E+00 0. -1.
         -2   -1    0    0    0  501 -0.00000000000E+00 -0.00000000000E+00 -0.11175614739E+02  0.11175614739E+02  0.00000000000E+00 0.  1.
         24    1    1    2    0    0  0.27998355986E+02 -0.51903383084E+02  0.15057010609E+04  0.15089999237E+04  0.80419002446E+02 0. -1.
        -24    1    1    2    0    0 -0.27998355986E+02  0.51903383084E+02  0.25146724758E+03  0.27051961421E+03  0.80419002446E+02 0.  1.
<mgrwt>
<rscale>  0 0.99725047E+02</rscale>
<asrwt>0</asrwt>
<pdfrwt beam="1">  1        2 0.27205269E+00 0.99725047E+02</pdfrwt>
<pdfrwt beam="2">  1       -2 0.17193267E-02 0.99725047E+02</pdfrwt>
<totfact> 0.92037729E+03</totfact>
</mgrwt>
</event>
<event>
 4    1  0.4862093E-001  0.9429012E+02  0.7546771E-02  0.1292783E+00
          4   -1    0    0  501    0  0.00000000000E+00  0.00000000000E+00  0.54081963284E+01  0.54081963284E+01  0.00000000000E+00 0. -1.
         -4   -1    0    0    0  501 -0.00000000000E+00 -0.00000000000E+00 -0.17273977498E+04  0.17273977498E+04  0.00000000000E+00 0.  1.
         24    1    1    2    0    0 -0.47223322478E+02 -0.13905509898E+02 -0.10514615008E+04  0.10556807799E+04  0.80419002446E+02 0.  1.
        -24    1    1    2    0    0  0.47223322478E+02  0.13905509898E+02 -0.67052805268E+03  0.67712516625E+03  0.80419002446E+02 0. -1.
<mgrwt>
<rscale>  0 0.94290103E+02</rscale>
<asrwt>0</asrwt>
<pdfrwt beam="1">  1        4 0.83202976E-03 0.94290115E+02</pdfrwt>
<pdfrwt beam="2">  1       -4 0.26575364E+00 0.94290115E+02</pdfrwt>
<totfact> 0.36296632E+02</totfact>
</mgrwt>
</event>
<event>
 4    1  0.4862093E-001  0.8966939E+02  0.7546771E-02  0.1303654E+00
          2   -1    0    0  501    0  0.00000000000E+00  0.00000000000E+00  0.10288661349E+04  0.10288661349E+04  0.00000000000E+00 0. -1.
         -2   -1    0    0    0  501 -0.00000000000E+00 -0.00000000000E+00 -0.13629025781E+02  0.13629025781E+02  0.00000000000E+00 0.  1.
         24    1    1    2    0    0 -0.18651593030E+01 -0.39622027524E+02  0.84806572030E+03  0.85279309670E+03  0.80419002446E+02 0.  0.
        -24    1    1    2    0    0  0.18651593030E+01  0.39622027524E+02  0.16717138884E+03  0.18970206400E+03  0.80419002446E+02 0.  0.
<mgrwt>
<rscale>  0 0.89669392E+02</rscale>
<asrwt>0</asrwt>
<pdfrwt beam="1">  1        2 0.15828704E+00 0.89669392E+02</pdfrwt>
<pdfrwt beam="2">  1       -2 0.20967740E-02 0.89669392E+02</pdfrwt>
<totfact> 0.16857871E+04</totfact>
</mgrwt>
</event>
<event>
 4    1  0.4862093E-001  0.8575401E+02  0.7546771E-02  0.1313472E+00
          1   -1    0    0  501    0  0.00000000000E+00  0.00000000000E+00  0.50769454227E+03  0.50769454227E+03  0.00000000000E+00 0. -1.
         -1   -1    0    0    0  501 -0.00000000000E+00 -0.00000000000E+00 -0.16290185742E+02  0.16290185742E+02  0.00000000000E+00 0.  1.
         24    1    1    2    0    0  0.29741354456E+02 -0.14092070892E+01  0.15847833104E+03  0.18019192932E+03  0.80419002446E+02 0. -1.
        -24    1    1    2    0    0 -0.29741354456E+02  0.14092070892E+01  0.33292602549E+03  0.34379279869E+03  0.80419002446E+02 0.  0.
<mgrwt>
<rscale>  0 0.85754009E+02</rscale>
<asrwt>0</asrwt>
<pdfrwt beam="1">  1        1 0.78106841E-01 0.85754009E+02</pdfrwt>
<pdfrwt beam="2">  1       -1 0.25061828E-02 0.85754009E+02</pdfrwt>
<totfact> 0.19604910E+04</totfact>
</mgrwt>
</event>
<event>
 4    1  0.4862093E-001  0.9160196E+02  0.7546771E-02  0.1299018E+00
          2   -1    0    0  501    0  0.00000000000E+00  0.00000000000E+00  0.27317385400E+03  0.27317385400E+03  0.00000000000E+00 0. -1.
         -2   -1    0    0    0  501 -0.00000000000E+00 -0.00000000000E+00 -0.42427231990E+02  0.42427231990E+02  0.00000000000E+00 0.  1.
         24    1    1    2    0    0  0.41672107235E+02 -0.13679840195E+02  0.19827816182E+03  0.21841508180E+03  0.80419002446E+02 0. -1.
        -24    1    1    2    0    0 -0.41672107235E+02  0.13679840195E+02  0.32468460193E+02  0.97186004192E+02  0.80419002446E+02 0.  1.
<mgrwt>
<rscale>  0 0.91601957E+02</rscale>
<asrwt>0</asrwt>
<pdfrwt beam="1">  1        2 0.42026746E-01 0.91601957E+02</pdfrwt>
<pdfrwt beam="2">  1       -2 0.65272666E-02 0.91601957E+02</pdfrwt>
<totfact> 0.14249257E+04</totfact>
</mgrwt>
</event>
<event>
 4    1  0.4862093E-001  0.8247258E+02  0.7546771E-02  0.1322178E+00
         -2   -1    0    0    0  501 -0.00000000000E+00  0.00000000000E+00  0.12989286698E+02  0.12989286698E+02  0.00000000000E+00 0.  1.
          2   -1    0    0  501    0  0.00000000000E+00 -0.00000000000E+00 -0.56981417108E+03  0.56981417108E+03  0.00000000000E+00 0. -1.
         24    1    1    2    0    0 -0.73780694172E+01  0.16735436924E+02 -0.36136294748E+03  0.37065469985E+03  0.80419002446E+02 0. -1.
        -24    1    1    2    0    0  0.73780694172E+01 -0.16735436924E+02 -0.19546193690E+03  0.21214875793E+03  0.80419002446E+02 0.  1.
<mgrwt>
<rscale>  0 0.82472582E+02</rscale>
<asrwt>0</asrwt>
<pdfrwt beam="1">  1        2 0.87663720E-01 0.82472582E+02</pdfrwt>
<pdfrwt beam="2">  1       -2 0.19983518E-02 0.82472582E+02</pdfrwt>
<totfact> 0.36634623E+04</totfact>
</mgrwt>
</event>
<event>
 4    1  0.4862093E-001  0.8524287E+02  0.7546771E-02  0.1314799E+00
         -2   -1    0    0    0  501 -0.00000000000E+00  0.00000000000E+00  0.36920270491E+01  0.36920270491E+01  0.00000000000E+00 0.  1.
          2   -1    0    0  501    0  0.00000000000E+00 -0.00000000000E+00 -0.19821958595E+04  0.19821958595E+04  0.00000000000E+00 0. -1.
         24    1    1    2    0    0  0.91132319167E+01 -0.26759663389E+02 -0.10729302255E+04  0.10763111146E+04  0.80419002446E+02 0. -1.
        -24    1    1    2    0    0 -0.91132319167E+01  0.26759663389E+02 -0.90557360692E+03  0.90957677196E+03  0.80419002446E+02 0.  1.
<mgrwt>
<rscale>  0 0.85242868E+02</rscale>
<asrwt>0</asrwt>
<pdfrwt beam="1">  1        2 0.30495395E+00 0.85242868E+02</pdfrwt>
<pdfrwt beam="2">  1       -2 0.56800278E-03 0.85242868E+02</pdfrwt>
<totfact> 0.34194345E+04</totfact>
</mgrwt>
</event>
<event>
 4    1  0.4862093E-001  0.8332708E+02  0.7546771E-02  0.1319866E+00
         -1   -1    0    0    0  501 -0.00000000000E+00  0.00000000000E+00  0.22064550547E+03  0.22064550547E+03  0.00000000000E+00 0.  1.
          1   -1    0    0  501    0  0.00000000000E+00 -0.00000000000E+00 -0.32739038751E+02  0.32739038751E+02  0.00000000000E+00 0. -1.
         24    1    1    2    0    0  0.17906336785E+01  0.21748113198E+02  0.11891043514E+03  0.14520018710E+03  0.80419002446E+02 0. -1.
        -24    1    1    2    0    0 -0.17906336785E+01 -0.21748113198E+02  0.68996031588E+02  0.10818435712E+03  0.80419002446E+02 0.  0.
<mgrwt>
<rscale>  0 0.83327083E+02</rscale>
<asrwt>0</asrwt>
<pdfrwt beam="1">  1        1 0.50367753E-02 0.83327083E+02</pdfrwt>
<pdfrwt beam="2">  1       -1 0.33945461E-01 0.83327083E+02</pdfrwt>
<totfact> 0.12114311E+04</totfact>
</mgrwt>
</event>
<event>
 4    1  0.4862093E-001  0.8698565E+02  0.7546771E-02  0.1310320E+00
          2   -1    0    0  501    0  0.00000000000E+00  0.00000000000E+00  0.10512185647E+03  0.10512185647E+03  0.00000000000E+00 0. -1.
         -2   -1    0    0    0  501 -0.00000000000E+00 -0.00000000000E+00 -0.13569296717E+03  0.13569296717E+03  0.00000000000E+00 0.  1.
         24    1    1    2    0    0  0.30067224720E+02  0.13973186644E+02  0.67222032804E+02  0.10993318696E+03  0.80419002446E+02 0. -1.
        -24    1    1    2    0    0 -0.30067224720E+02 -0.13973186644E+02 -0.97793143510E+02  0.13088163668E+03  0.80419002446E+02 0.  1.
<mgrwt>
<rscale>  0 0.86985653E+02</rscale>
<asrwt>0</asrwt>
<pdfrwt beam="1">  1        2 0.16172593E-01 0.86985653E+02</pdfrwt>
<pdfrwt beam="2">  1       -2 0.20875841E-01 0.86985653E+02</pdfrwt>
<totfact> 0.63643938E+03</totfact>
</mgrwt>
</event>
<event>
 4    1  0.4862093E-001  0.1017814E+03  0.7546771E-02  0.1276594E+00
          2   -1    0    0  501    0  0.00000000000E+00  0.00000000000E+00  0.28795470418E+04  0.28795470418E+04  0.00000000000E+00 0. -1.
         -2   -1    0    0    0  501 -0.00000000000E+00 -0.00000000000E+00 -0.76446101802E+01  0.76446101802E+01  0.00000000000E+00 0.  1.
         24    1    1    2    0    0 -0.60074673985E+02 -0.16830643619E+02  0.24863040114E+04  0.24883864431E+04  0.80419002446E+02 0. -1.
        -24    1    1    2    0    0  0.60074673985E+02  0.16830643619E+02  0.38559842019E+03  0.39880520888E+03  0.80419002446E+02 0.  1.
<mgrwt>
<rscale>  0 0.10178140E+03</rscale>
<asrwt>0</asrwt>
<pdfrwt beam="1">  1        2 0.44300637E+00 0.10178140E+03</pdfrwt>
<pdfrwt beam="2">  1       -2 0.11760962E-02 0.10178140E+03</pdfrwt>
<totfact> 0.41706036E+03</totfact>
</mgrwt>
</event>
<event>
 4    1  0.4862093E-001  0.8609932E+02  0.7546771E-02  0.1312582E+00
          1   -1    0    0  501    0  0.00000000000E+00  0.00000000000E+00  0.60949964243E+02  0.60949964243E+02  0.00000000000E+00 0. -1.
         -1   -1    0    0    0  501 -0.00000000000E+00 -0.00000000000E+00 -0.13854494116E+03  0.13854494116E+03  0.00000000000E+00 0.  1.
         24    1    1    2    0    0 -0.25619479810E+02  0.17015174471E+02 -0.39400655071E+01  0.86189407578E+02  0.80419002446E+02 0. -1.
        -24    1    1    2    0    0  0.25619479810E+02 -0.17015174471E+02 -0.73654911408E+02  0.11330549782E+03  0.80419002446E+02 0.  1.
<mgrwt>
<rscale>  0 0.86099313E+02</rscale>
<asrwt>0</asrwt>
<pdfrwt beam="1">  1        1 0.93769176E-02 0.86099324E+02</pdfrwt>
<pdfrwt beam="2">  1       -1 0.21314606E-01 0.86099324E+02</pdfrwt>
<totfact> 0.11394184E+04</totfact>
</mgrwt>
</event>
<event>
 4    1  0.4862093E-001  0.9987588E+02  0.7546771E-02  0.1280557E+00
         -2   -1    0    0    0  501 -0.00000000000E+00  0.00000000000E+00  0.56978793069E+03  0.56978793069E+03  0.00000000000E+00 0.  1.
          2   -1    0    0  501    0  0.00000000000E+00 -0.00000000000E+00 -0.10129004964E+04  0.10129004964E+04  0.00000000000E+00 0. -1.
         24    1    1    2    0    0  0.57726344053E+02 -0.13253132189E+02 -0.10060319389E+04  0.10109774747E+04  0.80419002446E+02 0. -1.
        -24    1    1    2    0    0 -0.57726344053E+02  0.13253132189E+02  0.56291937324E+03  0.57171095235E+03  0.80419002446E+02 0.  1.
<mgrwt>
<rscale>  0 0.99875884E+02</rscale>
<asrwt>0</asrwt>
<pdfrwt beam="1">  1        2 0.15583084E+00 0.99875884E+02</pdfrwt>
<pdfrwt beam="2">  1       -2 0.87659683E-01 0.99875884E+02</pdfrwt>
<totfact> 0.32725191E+01</totfact>
</mgrwt>
</event>
<event>
 4    1  0.4862093E-001  0.8098321E+02  0.7546771E-02  0.1326284E+00
          2   -1    0    0  501    0  0.00000000000E+00  0.00000000000E+00  0.92605132192E+03  0.92605132192E+03  0.00000000000E+00 0. -1.
         -2   -1    0    0    0  501 -0.00000000000E+00 -0.00000000000E+00 -0.28635905441E+02  0.28635905441E+02  0.00000000000E+00 0.  1.
         24    1    1    2    0    0 -0.69279112462E+01  0.65626153305E+01  0.86283973081E+03  0.86663180238E+03  0.80419002446E+02 0. -1.
        -24    1    1    2    0    0  0.69279112462E+01 -0.65626153305E+01  0.34575685659E+02  0.88055424974E+02  0.80419002446E+02 0.  1.
<mgrwt>
<rscale>  0 0.80983207E+02</rscale>
<asrwt>0</asrwt>
<pdfrwt beam="1">  1        2 0.14246941E+00 0.80983207E+02</pdfrwt>
<pdfrwt beam="2">  1       -2 0.44055246E-02 0.80983207E+02</pdfrwt>
<totfact> 0.65467986E+03</totfact>
</mgrwt>
</event>
<event>
 4    1  0.4862093E-001  0.8144462E+02  0.7546771E-02  0.1325001E+00
          1   -1    0    0  501    0  0.00000000000E+00  0.00000000000E+00  0.16275563440E+04  0.16275563440E+04  0.00000000000E+00 0. -1.
         -1   -1    0    0    0  501 -0.00000000000E+00 -0.00000000000E+00 -0.64188727319E+02  0.64188727319E+02  0.00000000000E+00 0.  1.
         24    1    1    2    0    0  0.10527173020E+02  0.74289019984E+01 -0.36894623838E+02  0.89411627763E+02  0.80419002446E+02 0.  1.
        -24    1    1    2    0    0 -0.10527173020E+02 -0.74289019984E+01  0.16002622405E+04  0.16023334435E+04  0.80419002446E+02 0. -1.
<mgrwt>
<rscale>  0 0.81444619E+02</rscale>
<asrwt>0</asrwt>
<pdfrwt beam="1">  1        1 0.25039325E+00 0.81444619E+02</pdfrwt>
<pdfrwt beam="2">  1       -1 0.98751900E-02 0.81444619E+02</pdfrwt>
<totfact> 0.38526303E+02</totfact>
</mgrwt>
</event>
<event>
 4    1  0.4862093E-001  0.8120560E+02  0.7546771E-02  0.1325665E+00
         -1   -1    0    0    0  501 -0.00000000000E+00  0.00000000000E+00  0.11867764492E+03  0.11867764492E+03  0.00000000000E+00 0.  1.
          1   -1    0    0  501    0  0.00000000000E+00 -0.00000000000E+00 -0.11577797725E+03  0.11577797725E+03  0.00000000000E+00 0. -1.
         24    1    1    2    0    0 -0.40867369342E+01  0.10508676978E+02  0.85989772363E+02  0.11827337239E+03  0.80419002446E+02 0.  1.
        -24    1    1    2    0    0  0.40867369342E+01 -0.10508676978E+02 -0.83090104693E+02  0.11618224978E+03  0.80419002446E+02 0. -1.
<mgrwt>
<rscale>  0 0.81205601E+02</rscale>
<asrwt>0</asrwt>
<pdfrwt beam="1">  1        1 0.17811997E-01 0.81205601E+02</pdfrwt>
<pdfrwt beam="2">  1       -1 0.18258099E-01 0.81205601E+02</pdfrwt>
<totfact> 0.63411928E+03</totfact>
</mgrwt>
</event>
<event>
 4    1  0.4862093E-001  0.1110757E+03  0.7546771E-02  0.1258591E+00
         -4   -1    0    0    0  501 -0.00000000000E+00  0.00000000000E+00  0.35618198430E+03  0.35618198430E+03  0.00000000000E+00 0.  1.
          4   -1    0    0  501    0  0.00000000000E+00 -0.00000000000E+00 -0.38062952010E+02  0.38062952010E+02  0.00000000000E+00 0. -1.
         24    1    1    2    0    0 -0.64862470770E+02  0.40785611735E+02  0.99938403753E+02  0.14941722370E+03  0.80419002446E+02 0. -1.
        -24    1    1    2    0    0  0.64862470770E+02 -0.40785611735E+02  0.21818062853E+03  0.24482771261E+03  0.80419002446E+02 0.  0.
<mgrwt>
<rscale>  0 0.11107575E+03</rscale>
<asrwt>0</asrwt>
<pdfrwt beam="1">  1        4 0.58558390E-02 0.11107575E+03</pdfrwt>
<pdfrwt beam="2">  1       -4 0.54797226E-01 0.11107575E+03</pdfrwt>
<totfact> 0.93830182E+02</totfact>
</mgrwt>
</event>
<event>
 4    1  0.4862093E-001  0.8342938E+02  0.7546771E-02  0.1319592E+00
          2   -1    0    0  501    0  0.00000000000E+00  0.00000000000E+00  0.56130003948E+02  0.56130003948E+02  0.00000000000E+00 0. -1.
         -2   -1    0    0    0  501 -0.00000000000E+00 -0.00000000000E+00 -0.12636100904E+03  0.12636100904E+03  0.00000000000E+00 0.  1.
         24    1    1    2    0    0  0.20083879882E+01 -0.22118144307E+02 -0.22659070823E+02  0.86451693881E+02  0.80419002446E+02 0. -1.
        -24    1    1    2    0    0 -0.20083879882E+01  0.22118144307E+02 -0.47571934265E+02  0.96039319104E+02  0.80419002446E+02 0.  1.
<mgrwt>
<rscale>  0 0.83429383E+02</rscale>
<asrwt>0</asrwt>
<pdfrwt beam="1">  1        2 0.86353852E-02 0.83429383E+02</pdfrwt>
<pdfrwt beam="2">  1       -2 0.19440155E-01 0.83429383E+02</pdfrwt>
<totfact> 0.15036342E+04</totfact>
</mgrwt>
</event>
<event>
 4    1  0.4862093E-001  0.1044169E+03  0.7546771E-02  0.1271273E+00
          2   -1    0    0  501    0  0.00000000000E+00  0.00000000000E+00  0.11267839177E+04  0.11267839177E+04  0.00000000000E+00 0. -1.
         -2   -1    0    0    0  501 -0.00000000000E+00 -0.00000000000E+00 -0.10590263004E+02  0.10590263004E+02  0.00000000000E+00 0.  1.
         24    1    1    2    0    0 -0.31147202262E+02 -0.58868621655E+02  0.39101439782E+03  0.40471612037E+03  0.80419002446E+02 0.  1.
        -24    1    1    2    0    0  0.31147202262E+02  0.58868621655E+02  0.72517925682E+03  0.73265806029E+03  0.80419002446E+02 0. -1.
<mgrwt>
<rscale>  0 0.10441686E+03</rscale>
<asrwt>0</asrwt>
<pdfrwt beam="1">  1        2 0.17335128E+00 0.10441688E+03</pdfrwt>
<pdfrwt beam="2">  1       -2 0.16292721E-02 0.10441688E+03</pdfrwt>
<totfact> 0.21562729E+04</totfact>
</mgrwt>
</event>
<event>
 4    1  0.4862093E-001  0.1141649E+03  0.7546771E-02  0.1253046E+00
         -2   -1    0    0    0  501 -0.00000000000E+00  0.00000000000E+00  0.98960543320E+01  0.98960543320E+01  0.00000000000E+00 0.  1.
          2   -1    0    0  501    0  0.00000000000E+00 -0.00000000000E+00 -0.20606270693E+04  0.20606270693E+04  0.00000000000E+00 0. -1.
         24    1    1    2    0    0  0.81014623475E+02  0.17401300379E+01 -0.16472546071E+04  0.16512060301E+04  0.80419002446E+02 0. -1.
        -24    1    1    2    0    0 -0.81014623475E+02 -0.17401300379E+01 -0.40347640790E+03  0.41931709357E+03  0.80419002446E+02 0.  1.
<mgrwt>
<rscale>  0 0.11416485E+03</rscale>
<asrwt>0</asrwt>
<pdfrwt beam="1">  1        2 0.31701958E+00 0.11416485E+03</pdfrwt>
<pdfrwt beam="2">  1       -2 0.15224697E-02 0.11416485E+03</pdfrwt>
<totfact> 0.78333503E+03</totfact>
</mgrwt>
</event>
<event>
 4    1  0.4862093E-001  0.1070332E+03  0.7546771E-02  0.1266165E+00
          1   -1    0    0  501    0  0.00000000000E+00  0.00000000000E+00  0.30831475933E+03  0.30831475933E+03  0.00000000000E+00 0. -1.
         -1   -1    0    0    0  501 -0.00000000000E+00 -0.00000000000E+00 -0.52146047782E+02  0.52146047782E+02  0.00000000000E+00 0.  1.
         24    1    1    2    0    0  0.33371494076E+02 -0.62251291166E+02  0.31456510334E+02  0.11155988466E+03  0.80419002446E+02 0.  1.
        -24    1    1    2    0    0 -0.33371494076E+02  0.62251291166E+02  0.22471220122E+03  0.24890092245E+03  0.80419002446E+02 0. -1.
<mgrwt>
<rscale>  0 0.10703315E+03</rscale>
<asrwt>0</asrwt>
<pdfrwt beam="1">  1        1 0.47433039E-01 0.10703315E+03</pdfrwt>
<pdfrwt beam="2">  1       -1 0.80224691E-02 0.10703315E+03</pdfrwt>
<totfact> 0.68015941E+03</totfact>
</mgrwt>
</event>
<event>
 4    1  0.4862093E-001  0.8158436E+02  0.7546771E-02  0.1324614E+00
          1   -1    0    0  501    0  0.00000000000E+00  0.00000000000E+00  0.14319552206E+02  0.14319552206E+02  0.00000000000E+00 0. -1.
         -1   -1    0    0    0  501 -0.00000000000E+00 -0.00000000000E+00 -0.54813502893E+03  0.54813502893E+03  0.00000000000E+00 0.  1.
         24    1    1    2    0    0  0.11685311843E+02 -0.72281191115E+01 -0.37654961650E+03  0.38528641536E+03  0.80419002446E+02 0.  1.
        -24    1    1    2    0    0 -0.11685311843E+02  0.72281191115E+01 -0.15726586022E+03  0.17716816577E+03  0.80419002446E+02 0. -1.
<mgrwt>
<rscale>  0 0.81584362E+02</rscale>
<asrwt>0</asrwt>
<pdfrwt beam="1">  1        1 0.22030086E-02 0.81584362E+02</pdfrwt>
<pdfrwt beam="2">  1       -1 0.84328446E-01 0.81584362E+02</pdfrwt>
<totfact> 0.69749141E+03</totfact>
</mgrwt>
</event>
<event>
 4    1  0.4862093E-001  0.1082663E+03  0.7546771E-02  0.1263815E+00
          2   -1    0    0  501    0  0.00000000000E+00  0.00000000000E+00  0.12907428157E+04  0.12907428157E+04  0.00000000000E+00 0. -1.
         -2   -1    0    0    0  501 -0.00000000000E+00 -0.00000000000E+00 -0.16664499591E+02  0.16664499591E+02  0.00000000000E+00 0.  1.
         24    1    1    2    0    0 -0.30839551683E+02 -0.65599466498E+02  0.10780120383E+04  0.10834350643E+04  0.80419002446E+02 0. -1.
        -24    1    1    2    0    0  0.30839551683E+02  0.65599466498E+02  0.19606627784E+03  0.22397225099E+03  0.80419002446E+02 0.  1.
<mgrwt>
<rscale>  0 0.10826626E+03</rscale>
<asrwt>0</asrwt>
<pdfrwt beam="1">  1        2 0.19857574E+00 0.10826626E+03</pdfrwt>
<pdfrwt beam="2">  1       -2 0.25637702E-02 0.10826626E+03</pdfrwt>
<totfact> 0.91400124E+03</totfact>
</mgrwt>
</event>
<event>
 4    1  0.4862093E-001  0.8678000E+02  0.7546771E-02  0.1310842E+00
          1   -1    0    0  501    0  0.00000000000E+00  0.00000000000E+00  0.19248460830E+04  0.19248460830E+04  0.00000000000E+00 0. -1.
         -1   -1    0    0    0  501 -0.00000000000E+00 -0.00000000000E+00 -0.53085761850E+01  0.53085761850E+01  0.00000000000E+00 0.  1.
         24    1    1    2    0    0 -0.24311080333E+02 -0.21737608094E+02  0.46483944826E+03  0.47287046942E+03  0.80419002446E+02 0.  0.
        -24    1    1    2    0    0  0.24311080333E+02  0.21737608094E+02  0.14546980585E+04  0.14572841897E+04  0.80419002446E+02 0.  0.
<mgrwt>
<rscale>  0 0.86779999E+02</rscale>
<asrwt>0</asrwt>
<pdfrwt beam="1">  1        1 0.29612961E+00 0.86779999E+02</pdfrwt>
<pdfrwt beam="2">  1       -1 0.81670557E-03 0.86779999E+02</pdfrwt>
<totfact> 0.91256716E+03</totfact>
</mgrwt>
</event>
<event>
 4    1  0.4862093E-001  0.1333928E+03  0.7546771E-02  0.1222507E+00
         -1   -1    0    0    0  501 -0.00000000000E+00  0.00000000000E+00  0.61830017182E+03  0.61830017182E+03  0.00000000000E+00 0.  1.
          1   -1    0    0  501    0  0.00000000000E+00 -0.00000000000E+00 -0.63924921474E+02  0.63924921474E+02  0.00000000000E+00 0. -1.
         24    1    1    2    0    0 -0.28564732096E+02 -0.10252064600E+03  0.53011989144E+03  0.54664498720E+03  0.80419002446E+02 0.  1.
        -24    1    1    2    0    0  0.28564732096E+02  0.10252064600E+03  0.24255358899E+02  0.13558010609E+03  0.80419002446E+02 0. -1.
<mgrwt>
<rscale>  0 0.13339281E+03</rscale>
<asrwt>0</asrwt>
<pdfrwt beam="1">  1        1 0.98346037E-02 0.13339281E+03</pdfrwt>
<pdfrwt beam="2">  1       -1 0.95123099E-01 0.13339281E+03</pdfrwt>
<totfact> 0.73219365E+02</totfact>
</mgrwt>
</event>
<event>
 4    1  0.4862093E-001  0.8168229E+02  0.7546771E-02  0.1324344E+00
          2   -1    0    0  501    0  0.00000000000E+00  0.00000000000E+00  0.22146437935E+03  0.22146437935E+03  0.00000000000E+00 0. -1.
         -2   -1    0    0    0  501 -0.00000000000E+00 -0.00000000000E+00 -0.31389674423E+02  0.31389674423E+02  0.00000000000E+00 0.  1.
         24    1    1    2    0    0 -0.10918010598E+02  0.92508056271E+01  0.12039678943E+03  0.14549014818E+03  0.80419002446E+02 0.  0.
        -24    1    1    2    0    0  0.10918010598E+02 -0.92508056271E+01  0.69677915499E+02  0.10736390559E+03  0.80419002446E+02 0.  1.
<mgrwt>
<rscale>  0 0.81682289E+02</rscale>
<asrwt>0</asrwt>
<pdfrwt beam="1">  1        2 0.34071442E-01 0.81682289E+02</pdfrwt>
<pdfrwt beam="2">  1       -2 0.48291808E-02 0.81682289E+02</pdfrwt>
<totfact> 0.27507450E+04</totfact>
</mgrwt>
</event>
<event>
 4    1  0.4862093E-001  0.8793633E+02  0.7546771E-02  0.1307928E+00
          2   -1    0    0  501    0  0.00000000000E+00  0.00000000000E+00  0.39260434369E+03  0.39260434369E+03  0.00000000000E+00 0. -1.
         -2   -1    0    0    0  501 -0.00000000000E+00 -0.00000000000E+00 -0.38854537290E+02  0.38854537290E+02  0.00000000000E+00 0.  1.
         24    1    1    2    0    0  0.45355680265E+01  0.35284719913E+02  0.32835929358E+03  0.33993032297E+03  0.80419002446E+02 0. -1.
        -24    1    1    2    0    0 -0.45355680265E+01 -0.35284719913E+02  0.25390512822E+02  0.91528558015E+02  0.80419002446E+02 0.  1.
<mgrwt>
<rscale>  0 0.87936334E+02</rscale>
<asrwt>0</asrwt>
<pdfrwt beam="1">  1        2 0.60400666E-01 0.87936334E+02</pdfrwt>
<pdfrwt beam="2">  1       -2 0.59776214E-02 0.87936334E+02</pdfrwt>
<totfact> 0.11086958E+04</totfact>
</mgrwt>
</event>
<event>
 4    1  0.4862093E-001  0.8924589E+02  0.7546771E-02  0.1304688E+00
         -2   -1    0    0    0  501 -0.00000000000E+00  0.00000000000E+00  0.54687676768E+01  0.54687676768E+01  0.00000000000E+00 0.  1.
          2   -1    0    0  501    0  0.00000000000E+00 -0.00000000000E+00 -0.17067796887E+04  0.17067796887E+04  0.00000000000E+00 0. -1.
         24    1    1    2    0    0 -0.35661137065E+02  0.15029831472E+02 -0.11785463320E+04  0.11819205917E+04  0.80419002446E+02 0. -1.
        -24    1    1    2    0    0  0.35661137065E+02 -0.15029831472E+02 -0.52276458910E+03  0.53032786473E+03  0.80419002446E+02 0.  1.
<mgrwt>
<rscale>  0 0.89245888E+02</rscale>
<asrwt>0</asrwt>
<pdfrwt beam="1">  1        2 0.26258162E+00 0.89245888E+02</pdfrwt>
<pdfrwt beam="2">  1       -2 0.84134846E-03 0.89245888E+02</pdfrwt>
<totfact> 0.27131468E+04</totfact>
</mgrwt>
</event>
<event>
 4    1  0.4862093E-001  0.8122021E+02  0.7546771E-02  0.1325624E+00
          2   -1    0    0  501    0  0.00000000000E+00  0.00000000000E+00  0.10887742950E+04  0.10887742950E+04  0.00000000000E+00 0. -1.
         -2   -1    0    0    0  501 -0.00000000000E+00 -0.00000000000E+00 -0.63901565777E+01  0.63901565777E+01  0.00000000000E+00 0.  1.
         24    1    1    2    0    0  0.99278217796E+01 -0.55628617719E+01  0.66587496502E+03  0.67081010134E+03  0.80419002446E+02 0.  0.
        -24    1    1    2    0    0 -0.99278217796E+01  0.55628617719E+01  0.41650917344E+03  0.42435435027E+03  0.80419002446E+02 0.  0.
<mgrwt>
<rscale>  0 0.81220213E+02</rscale>
<asrwt>0</asrwt>
<pdfrwt beam="1">  1        2 0.16750359E+00 0.81220213E+02</pdfrwt>
<pdfrwt beam="2">  1       -2 0.98310187E-03 0.81220213E+02</pdfrwt>
<totfact> 0.45369763E+04</totfact>
</mgrwt>
</event>
<event>
 4    1  0.4862093E-001  0.8737865E+02  0.7546771E-02  0.1309327E+00
          1   -1    0    0  501    0  0.00000000000E+00  0.00000000000E+00  0.10215011326E+04  0.10215011326E+04  0.00000000000E+00 0. -1.
         -1   -1    0    0    0  501 -0.00000000000E+00 -0.00000000000E+00 -0.26446023750E+02  0.26446023750E+02  0.00000000000E+00 0.  1.
         24    1    1    2    0    0  0.33139288090E+02 -0.83426456949E+01  0.53732617236E+02  0.10257788388E+03  0.80419002446E+02 0.  1.
        -24    1    1    2    0    0 -0.33139288090E+02  0.83426456949E+01  0.94132249157E+03  0.94536927242E+03  0.80419002446E+02 0. -1.
<mgrwt>
<rscale>  0 0.87378648E+02</rscale>
<asrwt>0</asrwt>
<pdfrwt beam="1">  1        1 0.15715399E+00 0.87378648E+02</pdfrwt>
<pdfrwt beam="2">  1       -1 0.40686198E-02 0.87378648E+02</pdfrwt>
<totfact> 0.35716963E+03</totfact>
</mgrwt>
</event>
<event>
 4    1  0.4862093E-001  0.8560869E+02  0.7546771E-02  0.1313848E+00
         -1   -1    0    0    0  501 -0.00000000000E+00  0.00000000000E+00  0.21181122445E+02  0.21181122445E+02  0.00000000000E+00 0.  1.
          1   -1    0    0  501    0  0.00000000000E+00 -0.00000000000E+00 -0.20435534662E+04  0.20435534662E+04  0.00000000000E+00 0. -1.
         24    1    1    2    0    0  0.88286332860E+01 -0.27994408428E+02 -0.70267940857E+02  0.11075392154E+03  0.80419002446E+02 0.  0.
        -24    1    1    2    0    0 -0.88286332860E+01  0.27994408428E+02 -0.19521044029E+04  0.19539806671E+04  0.80419002446E+02 0. -1.
<mgrwt>
<rscale>  0 0.85608689E+02</rscale>
<asrwt>0</asrwt>
<pdfrwt beam="1">  1        1 0.31439298E+00 0.85608689E+02</pdfrwt>
<pdfrwt beam="2">  1       -1 0.32586327E-02 0.85608689E+02</pdfrwt>
<totfact> 0.10771266E+03</totfact>
</mgrwt>
</event>
<event>
 4    1  0.4862093E-001  0.9333872E+02  0.7546771E-02  0.1294962E+00
         -2   -1    0    0    0  501 -0.00000000000E+00  0.00000000000E+00  0.12413409806E+03  0.12413409806E+03  0.00000000000E+00 0.  1.
          2   -1    0    0  501    0  0.00000000000E+00 -0.00000000000E+00 -0.87941566469E+02  0.87941566469E+02  0.00000000000E+00 0. -1.
         24    1    1    2    0    0 -0.17069925802E+02  0.44198631248E+02 -0.29554109278E+02  0.97905886956E+02  0.80419002446E+02 0. -1.
        -24    1    1    2    0    0  0.17069925802E+02 -0.44198631248E+02  0.65746640872E+02  0.11416977757E+03  0.80419002446E+02 0.  1.
<mgrwt>
<rscale>  0 0.93338724E+02</rscale>
<asrwt>0</asrwt>
<pdfrwt beam="1">  1        2 0.13529472E-01 0.93338724E+02</pdfrwt>
<pdfrwt beam="2">  1       -2 0.19097554E-01 0.93338724E+02</pdfrwt>
<totfact> 0.91411142E+03</totfact>
</mgrwt>
</event>
<event>
 4    1  0.4862093E-001  0.8860498E+02  0.7546771E-02  0.1306266E+00
          1   -1    0    0  501    0  0.00000000000E+00  0.00000000000E+00  0.39960276048E+03  0.39960276048E+03  0.00000000000E+00 0. -1.
         -1   -1    0    0    0  501 -0.00000000000E+00 -0.00000000000E+00 -0.14798815760E+03  0.14798815760E+03  0.00000000000E+00 0.  1.
         24    1    1    2    0    0 -0.88833155298E+01 -0.36120814334E+02 -0.12916698380E+03  0.15663636928E+03  0.80419002446E+02 0.  1.
        -24    1    1    2    0    0  0.88833155298E+01  0.36120814334E+02  0.38078158668E+03  0.39095454880E+03  0.80419002446E+02 0. -1.
<mgrwt>
<rscale>  0 0.88604980E+02</rscale>
<asrwt>0</asrwt>
<pdfrwt beam="1">  1        1 0.61477348E-01 0.88604980E+02</pdfrwt>
<pdfrwt beam="2">  1       -1 0.22767409E-01 0.88604980E+02</pdfrwt>
<totfact> 0.97666446E+02</totfact>
</mgrwt>
</event>
<event>
 4    1  0.4862093E-001  0.9129582E+02  0.7546771E-02  0.1299744E+00
          2   -1    0    0  501    0  0.00000000000E+00  0.00000000000E+00  0.17321120018E+03  0.17321120018E+03  0.00000000000E+00 0. -1.
         -2   -1    0    0    0  501 -0.00000000000E+00 -0.00000000000E+00 -0.67786880667E+02  0.67786880667E+02  0.00000000000E+00 0.  1.
         24    1    1    2    0    0 -0.41970766645E+02  0.10303626915E+02  0.11761718377E+03  0.14889166482E+03  0.80419002446E+02 0. -1.
        -24    1    1    2    0    0  0.41970766645E+02 -0.10303626915E+02 -0.12192864257E+02  0.92106416028E+02  0.80419002446E+02 0.  1.
<mgrwt>
<rscale>  0 0.91295816E+02</rscale>
<asrwt>0</asrwt>
<pdfrwt beam="1">  1        2 0.26647877E-01 0.91295816E+02</pdfrwt>
<pdfrwt beam="2">  1       -2 0.10428751E-01 0.91295816E+02</pdfrwt>
<totfact> 0.11266293E+04</totfact>
</mgrwt>
</event>
<event>
 4    1  0.4862093E-001  0.8071139E+02  0.7546771E-02  0.1327045E+00
         -2   -1    0    0    0  501 -0.00000000000E+00  0.00000000000E+00  0.59421250562E+01  0.59421250562E+01  0.00000000000E+00 0.  1.
          2   -1    0    0  501    0  0.00000000000E+00 -0.00000000000E+00 -0.15326340280E+04  0.15326340280E+04  0.00000000000E+00 0. -1.
         24    1    1    2    0    0  0.61366431956E+01  0.30747576225E+01 -0.11738157950E+04  0.11765873741E+04  0.80419002446E+02 0.  0.
        -24    1    1    2    0    0 -0.61366431956E+01 -0.30747576225E+01 -0.35287610799E+03  0.36198877893E+03  0.80419002446E+02 0.  1.
<mgrwt>
<rscale>  0 0.80711390E+02</rscale>
<asrwt>0</asrwt>
<pdfrwt beam="1">  1        2 0.23579020E+00 0.80711390E+02</pdfrwt>
<pdfrwt beam="2">  1       -2 0.91417172E-03 0.80711390E+02</pdfrwt>
<totfact> 0.29299107E+04</totfact>
</mgrwt>
</event>
<event>
 4    1  0.4862093E-001  0.8112623E+02  0.7546771E-02  0.1325885E+00
         -1   -1    0    0    0  501 -0.00000000000E+00  0.00000000000E+00  0.89983787532E+02  0.89983787532E+02  0.00000000000E+00 0.  1.
          1   -1    0    0  501    0  0.00000000000E+00 -0.00000000000E+00 -0.16142423288E+03  0.16142423288E+03  0.00000000000E+00 0. -1.
         24    1    1    2    0    0 -0.15487952994E+01 -0.10575944751E+02  0.57241667163E+02  0.99287833032E+02  0.80419002446E+02 0.  1.
        -24    1    1    2    0    0  0.15487952994E+01  0.10575944751E+02 -0.12868211251E+03  0.15212018738E+03  0.80419002446E+02 0. -1.
<mgrwt>
<rscale>  0 0.81126231E+02</rscale>
<asrwt>0</asrwt>
<pdfrwt beam="1">  1        1 0.24834497E-01 0.81126231E+02</pdfrwt>
<pdfrwt beam="2">  1       -1 0.13843660E-01 0.81126231E+02</pdfrwt>
<totfact> 0.64376787E+03</totfact>
</mgrwt>
</event>
<event>
 4    1  0.4862093E-001  0.8465266E+02  0.7546771E-02  0.1316343E+00
          1   -1    0    0  501    0  0.00000000000E+00  0.00000000000E+00  0.30966646090E+03  0.30966646090E+03  0.00000000000E+00 0. -1.
         -1   -1    0    0    0  501 -0.00000000000E+00 -0.00000000000E+00 -0.53830417074E+02  0.53830417074E+02  0.00000000000E+00 0.  1.
         24    1    1    2    0    0  0.26207844956E+02 -0.34648416098E+01 -0.93120509843E+01  0.85163293223E+02  0.80419002446E+02 0.  1.
        -24    1    1    2    0    0 -0.26207844956E+02  0.34648416098E+01  0.26514809481E+03  0.27833358475E+03  0.80419002446E+02 0. -1.
<mgrwt>
<rscale>  0 0.84652656E+02</rscale>
<asrwt>0</asrwt>
<pdfrwt beam="1">  1        1 0.47640993E-01 0.84652656E+02</pdfrwt>
<pdfrwt beam="2">  1       -1 0.82816028E-02 0.84652656E+02</pdfrwt>
<totfact> 0.63403818E+03</totfact>
</mgrwt>
</event>
<event>
 4    1  0.4862093E-001  0.1028484E+03  0.7546771E-02  0.1274418E+00
         -2   -1    0    0    0  501 -0.00000000000E+00  0.00000000000E+00  0.87872078526E+01  0.87872078526E+01  0.00000000000E+00 0.  1.
          2   -1    0    0  501    0  0.00000000000E+00 -0.00000000000E+00 -0.17098191588E+04  0.17098191588E+04  0.00000000000E+00 0. -1.
         24    1    1    2    0    0  0.32340294025E+02  0.55359578023E+02 -0.38303182520E+03  0.39659951156E+03  0.80419002446E+02 0.  0.
        -24    1    1    2    0    0 -0.32340294025E+02 -0.55359578023E+02 -0.13180001258E+04  0.13220068551E+04  0.80419002446E+02 0.  0.
<mgrwt>
<rscale>  0 0.10284841E+03</rscale>
<asrwt>0</asrwt>
<pdfrwt beam="1">  1        2 0.26304912E+00 0.10284843E+03</pdfrwt>
<pdfrwt beam="2">  1       -2 0.13518780E-02 0.10284843E+03</pdfrwt>
<totfact> 0.13918527E+04</totfact>
</mgrwt>
</event>
<event>
 4    1  0.4862093E-001  0.8788833E+02  0.7546771E-02  0.1308047E+00
          1   -1    0    0  501    0  0.00000000000E+00  0.00000000000E+00  0.16203321832E+03  0.16203321832E+03  0.00000000000E+00 0. -1.
         -1   -1    0    0    0  501 -0.00000000000E+00 -0.00000000000E+00 -0.52901231077E+02  0.52901231077E+02  0.00000000000E+00 0.  1.
         24    1    1    2    0    0 -0.28272412086E+02 -0.21396571487E+02  0.20776250731E+02  0.90310636724E+02  0.80419002446E+02 0.  1.
        -24    1    1    2    0    0  0.28272412086E+02  0.21396571487E+02  0.88355736513E+02  0.12462381268E+03  0.80419002446E+02 0. -1.
<mgrwt>
<rscale>  0 0.87888330E+02</rscale>
<asrwt>0</asrwt>
<pdfrwt beam="1">  1        1 0.24928187E-01 0.87888330E+02</pdfrwt>
<pdfrwt beam="2">  1       -1 0.81386510E-02 0.87888330E+02</pdfrwt>
<totfact> 0.14417974E+04</totfact>
</mgrwt>
</event>
<event>
 4    1  0.4862093E-001  0.8238587E+02  0.7546771E-02  0.1322414E+00
         -4   -1    0    0    0  501 -0.00000000000E+00  0.00000000000E+00  0.51066313860E+02  0.51066313860E+02  0.00000000000E+00 0.  1.
          4   -1    0    0  501    0  0.00000000000E+00 -0.00000000000E+00 -0.18937764587E+03  0.18937764587E+03  0.00000000000E+00 0. -1.
         24    1    1    2    0    0 -0.17455762233E+02 -0.39386250748E+01 -0.13480096830E+03  0.15798333270E+03  0.80419002446E+02 0. -1.
        -24    1    1    2    0    0  0.17455762233E+02  0.39386250748E+01 -0.35103637128E+01  0.82460627031E+02  0.80419002446E+02 0.  1.
<mgrwt>
<rscale>  0 0.82385875E+02</rscale>
<asrwt>0</asrwt>
<pdfrwt beam="1">  1        4 0.29135023E-01 0.82385875E+02</pdfrwt>
<pdfrwt beam="2">  1       -4 0.78563559E-02 0.82385875E+02</pdfrwt>
<totfact> 0.18572503E+03</totfact>
</mgrwt>
</event>
<event>
 4    1  0.4862093E-001  0.8125135E+02  0.7546771E-02  0.1325537E+00
          2   -1    0    0  501    0  0.00000000000E+00  0.00000000000E+00  0.30159316680E+02  0.30159316680E+02  0.00000000000E+00 0. -1.
         -2   -1    0    0    0  501 -0.00000000000E+00 -0.00000000000E+00 -0.57257058968E+03  0.57257058968E+03  0.00000000000E+00 0.  1.
         24    1    1    2    0    0  0.11478777738E+02 -0.16744307070E+01 -0.34352259323E+02  0.88214849836E+02  0.80419002446E+02 0. -1.
        -24    1    1    2    0    0 -0.11478777738E+02  0.16744307070E+01 -0.50805901368E+03  0.51451505652E+03  0.80419002446E+02 0.  1.
<mgrwt>
<rscale>  0 0.81251351E+02</rscale>
<asrwt>0</asrwt>
<pdfrwt beam="1">  1        2 0.46398956E-02 0.81251351E+02</pdfrwt>
<pdfrwt beam="2">  1       -2 0.88087769E-01 0.81251351E+02</pdfrwt>
<totfact> 0.18499689E+03</totfact>
</mgrwt>
</event>
<event>
 4    1  0.4862093E-001  0.1081304E+03  0.7546771E-02  0.1264072E+00
          2   -1    0    0  501    0  0.00000000000E+00  0.00000000000E+00  0.48841194664E+03  0.48841194664E+03  0.00000000000E+00 0. -1.
         -2   -1    0    0    0  501 -0.00000000000E+00 -0.00000000000E+00 -0.33872650988E+02  0.33872650988E+02  0.00000000000E+00 0.  1.
         24    1    1    2    0    0  0.49912365129E+02  0.52285021803E+02  0.36868711249E+03  0.38421656728E+03  0.80419002446E+02 0. -1.
        -24    1    1    2    0    0 -0.49912365129E+02 -0.52285021803E+02  0.85852183161E+02  0.13806803035E+03  0.80419002446E+02 0.  1.
<mgrwt>
<rscale>  0 0.10813040E+03</rscale>
<asrwt>0</asrwt>
<pdfrwt beam="1">  1        2 0.75140294E-01 0.10813040E+03</pdfrwt>
<pdfrwt beam="2">  1       -2 0.52111774E-02 0.10813040E+03</pdfrwt>
<totfact> 0.10974397E+04</totfact>
</mgrwt>
</event>
<event>
 4    1  0.4862093E-001  0.1223298E+03  0.7546771E-02  0.1239302E+00
          1   -1    0    0  501    0  0.00000000000E+00  0.00000000000E+00  0.16334097317E+04  0.16334097317E+04  0.00000000000E+00 0. -1.
         -1   -1    0    0    0  501 -0.00000000000E+00 -0.00000000000E+00 -0.29250134700E+02  0.29250134700E+02  0.00000000000E+00 0.  1.
         24    1    1    2    0    0 -0.91879085030E+02 -0.74568562787E+01  0.11313566301E+03  0.16662612391E+03  0.80419002446E+02 0.  1.
        -24    1    1    2    0    0  0.91879085030E+02  0.74568562787E+01  0.14910239340E+04  0.14960337425E+04  0.80419002446E+02 0. -1.
<mgrwt>
<rscale>  0 0.12232983E+03</rscale>
<asrwt>0</asrwt>
<pdfrwt beam="1">  1        1 0.25129373E+00 0.12232983E+03</pdfrwt>
<pdfrwt beam="2">  1       -1 0.45000220E-02 0.12232983E+03</pdfrwt>
<totfact> 0.12165540E+03</totfact>
</mgrwt>
</event>
<event>
 4    1  0.4862093E-001  0.8068365E+02  0.7546771E-02  0.1327122E+00
         -1   -1    0    0    0  501 -0.00000000000E+00  0.00000000000E+00  0.69809148036E+02  0.69809148036E+02  0.00000000000E+00 0.  1.
          1   -1    0    0  501    0  0.00000000000E+00 -0.00000000000E+00 -0.11992185731E+03  0.11992185731E+03  0.00000000000E+00 0. -1.
         24    1    1    2    0    0 -0.23301862052E+01  0.60995929451E+01  0.19680818930E+02  0.83049294940E+02  0.80419002446E+02 0.  1.
        -24    1    1    2    0    0  0.23301862052E+01 -0.60995929451E+01 -0.69793528206E+02  0.10668171041E+03  0.80419002446E+02 0.  0.
<mgrwt>
<rscale>  0 0.80683646E+02</rscale>
<asrwt>0</asrwt>
<pdfrwt beam="1">  1        1 0.18449516E-01 0.80683646E+02</pdfrwt>
<pdfrwt beam="2">  1       -1 0.10739869E-01 0.80683646E+02</pdfrwt>
<totfact> 0.13715797E+04</totfact>
</mgrwt>
</event>
<event>
 4    1  0.4862093E-001  0.8703328E+02  0.7546771E-02  0.1310199E+00
         -1   -1    0    0    0  501 -0.00000000000E+00  0.00000000000E+00  0.87514029903E+02  0.87514029903E+02  0.00000000000E+00 0.  1.
          1   -1    0    0  501    0  0.00000000000E+00 -0.00000000000E+00 -0.86572832974E+02  0.86572832974E+02  0.00000000000E+00 0. -1.
         24    1    1    2    0    0 -0.29934529038E+02  0.14542898596E+02 -0.77425345644E+00  0.87036701173E+02  0.80419002446E+02 0.  1.
        -24    1    1    2    0    0  0.29934529038E+02 -0.14542898596E+02  0.17154503856E+01  0.87050161704E+02  0.80419002446E+02 0. -1.
<mgrwt>
<rscale>  0 0.87033268E+02</rscale>
<asrwt>0</asrwt>
<pdfrwt beam="1">  1        1 0.13318897E-01 0.87033279E+02</pdfrwt>
<pdfrwt beam="2">  1       -1 0.13463697E-01 0.87033279E+02</pdfrwt>
<totfact> 0.14831598E+04</totfact>
</mgrwt>
</event>
<event>
 4    1  0.4862093E-001  0.8268488E+02  0.7546771E-02  0.1321600E+00
         -1   -1    0    0    0  501 -0.00000000000E+00  0.00000000000E+00  0.93304665132E+03  0.93304665132E+03  0.00000000000E+00 0.  1.
          1   -1    0    0  501    0  0.00000000000E+00 -0.00000000000E+00 -0.73476846700E+01  0.73476846700E+01  0.00000000000E+00 0. -1.
         24    1    1    2    0    0 -0.19186419281E+02  0.12062287675E+01  0.48756540852E+03  0.49452686197E+03  0.80419002446E+02 0. -1.
        -24    1    1    2    0    0  0.19186419281E+02 -0.12062287675E+01  0.43813355812E+03  0.44586747401E+03  0.80419002446E+02 0.  0.
<mgrwt>
<rscale>  0 0.82684881E+02</rscale>
<asrwt>0</asrwt>
<pdfrwt beam="1">  1        1 0.11304138E-02 0.82684881E+02</pdfrwt>
<pdfrwt beam="2">  1       -1 0.14354554E+00 0.82684881E+02</pdfrwt>
<totfact> 0.52706056E+03</totfact>
</mgrwt>
</event>
<event>
 4    1  0.4862093E-001  0.8159585E+02  0.7546771E-02  0.1324583E+00
         -1   -1    0    0    0  501 -0.00000000000E+00  0.00000000000E+00  0.49686270929E+01  0.49686270929E+01  0.00000000000E+00 0.  1.
          1   -1    0    0  501    0  0.00000000000E+00 -0.00000000000E+00 -0.26999594760E+04  0.26999594760E+04  0.00000000000E+00 0. -1.
         24    1    1    2    0    0 -0.13567225898E+02 -0.25684823825E+01 -0.38762505409E+03  0.39612001367E+03  0.80419002446E+02 0.  1.
        -24    1    1    2    0    0  0.13567225898E+02  0.25684823825E+01 -0.23073657948E+04  0.23088080894E+04  0.80419002446E+02 0. -1.
<mgrwt>
<rscale>  0 0.81595850E+02</rscale>
<asrwt>0</asrwt>
<pdfrwt beam="1">  1        1 0.41537880E+00 0.81595850E+02</pdfrwt>
<pdfrwt beam="2">  1       -1 0.76440340E-03 0.81595850E+02</pdfrwt>
<totfact> 0.32158468E+03</totfact>
</mgrwt>
</event>
<event>
 4    1  0.4862093E-001  0.8707947E+02  0.7546771E-02  0.1310082E+00
          1   -1    0    0  501    0  0.00000000000E+00  0.00000000000E+00  0.95798683739E+03  0.95798683739E+03  0.00000000000E+00 0. -1.
         -1   -1    0    0    0  501 -0.00000000000E+00 -0.00000000000E+00 -0.13093496828E+02  0.13093496828E+02  0.00000000000E+00 0.  1.
         24    1    1    2    0    0 -0.98314615893E+01 -0.31921147609E+02  0.16710708374E+03  0.18843463241E+03  0.80419002446E+02 0.  1.
        -24    1    1    2    0    0  0.98314615893E+01  0.31921147609E+02  0.77778625682E+03  0.78264570181E+03  0.80419002446E+02 0. -1.
<mgrwt>
<rscale>  0 0.87079465E+02</rscale>
<asrwt>0</asrwt>
<pdfrwt beam="1">  1        1 0.14738254E+00 0.87079465E+02</pdfrwt>
<pdfrwt beam="2">  1       -1 0.20143849E-02 0.87079465E+02</pdfrwt>
<totfact> 0.10901680E+04</totfact>
</mgrwt>
</event>
<event>
 4    1  0.4862093E-001  0.8205811E+02  0.7546771E-02  0.1323310E+00
         -1   -1    0    0    0  501 -0.00000000000E+00  0.00000000000E+00  0.12900193692E+03  0.12900193692E+03  0.00000000000E+00 0.  1.
          1   -1    0    0  501    0  0.00000000000E+00 -0.00000000000E+00 -0.57824883026E+02  0.57824883026E+02  0.00000000000E+00 0. -1.
         24    1    1    2    0    0  0.11775923740E+02  0.11298002053E+02  0.64730480900E+02  0.10451587603E+03  0.80419002446E+02 0.  0.
        -24    1    1    2    0    0 -0.11775923740E+02 -0.11298002053E+02  0.64465729909E+01  0.82310943914E+02  0.80419002446E+02 0. -1.
<mgrwt>
<rscale>  0 0.82058109E+02</rscale>
<asrwt>0</asrwt>
<pdfrwt beam="1">  1        1 0.88961359E-02 0.82058109E+02</pdfrwt>
<pdfrwt beam="2">  1       -1 0.19846452E-01 0.82058109E+02</pdfrwt>
<totfact> 0.13606257E+04</totfact>
</mgrwt>
</event>
<event>
 4    1  0.4862093E-001  0.9441462E+02  0.7546771E-02  0.1292500E+00
          1   -1    0    0  501    0  0.00000000000E+00  0.00000000000E+00  0.12418443189E+03  0.12418443189E+03  0.00000000000E+00 0. -1.
         -1   -1    0    0    0  501 -0.00000000000E+00 -0.00000000000E+00 -0.72644126972E+02  0.72644126972E+02  0.00000000000E+00 0.  1.
         24    1    1    2    0    0  0.46508243855E+02 -0.16848849367E+02  0.36495883038E+02  0.10122285268E+03  0.80419002446E+02 0.  0.
        -24    1    1    2    0    0 -0.46508243855E+02  0.16848849367E+02  0.15044421885E+02  0.95605706188E+02  0.80419002446E+02 0. -1.
<mgrwt>
<rscale>  0 0.94414610E+02</rscale>
<asrwt>0</asrwt>
<pdfrwt beam="1">  1        1 0.19105297E-01 0.94414622E+02</pdfrwt>
<pdfrwt beam="2">  1       -1 0.11176020E-01 0.94414622E+02</pdfrwt>
<totfact> 0.12557115E+04</totfact>
</mgrwt>
</event>
<event>
 4    1  0.4862093E-001  0.8042956E+02  0.7546771E-02  0.1327837E+00
         -1   -1    0    0    0  501 -0.00000000000E+00  0.00000000000E+00  0.37420378076E+02  0.37420378076E+02  0.00000000000E+00 0.  1.
          1   -1    0    0  501    0  0.00000000000E+00 -0.00000000000E+00 -0.24674769002E+03  0.24674769002E+03  0.00000000000E+00 0. -1.
         24    1    1    2    0    0  0.51848812421E+00 -0.11954365255E+01 -0.26918880333E+02  0.84814739115E+02  0.80419002446E+02 0.  0.
        -24    1    1    2    0    0 -0.51848812421E+00  0.11954365255E+01 -0.18240843161E+03  0.19935332898E+03  0.80419002446E+02 0. -1.
<mgrwt>
<rscale>  0 0.80429558E+02</rscale>
<asrwt>0</asrwt>
<pdfrwt beam="1">  1        1 0.37961182E-01 0.80429558E+02</pdfrwt>
<pdfrwt beam="2">  1       -1 0.57569814E-02 0.80429558E+02</pdfrwt>
<totfact> 0.14240503E+04</totfact>
</mgrwt>
</event>
<event>
 4    1  0.4862093E-001  0.8817860E+02  0.7546771E-02  0.1307323E+00
         -2   -1    0    0    0  501 -0.00000000000E+00  0.00000000000E+00  0.31327384117E+02  0.31327384117E+02  0.00000000000E+00 0.  1.
          2   -1    0    0  501    0  0.00000000000E+00 -0.00000000000E+00 -0.65815611321E+03  0.65815611321E+03  0.00000000000E+00 0. -1.
         24    1    1    2    0    0 -0.33707575047E+02  0.13116715515E+02 -0.58549520951E+03  0.59209805367E+03  0.80419002446E+02 0. -1.
        -24    1    1    2    0    0  0.33707575047E+02 -0.13116715515E+02 -0.41333519582E+02  0.97385443660E+02  0.80419002446E+02 0.  1.
<mgrwt>
<rscale>  0 0.88178596E+02</rscale>
<asrwt>0</asrwt>
<pdfrwt beam="1">  1        2 0.10125478E+00 0.88178596E+02</pdfrwt>
<pdfrwt beam="2">  1       -2 0.48195977E-02 0.88178596E+02</pdfrwt>
<totfact> 0.87168595E+03</totfact>
</mgrwt>
</event>
<event>
 4    1  0.4862093E-001  0.2328250E+03  0.7546771E-02  0.1124667E+00
         -1   -1    0    0    0  501 -0.00000000000E+00  0.00000000000E+00  0.27242304427E+03  0.27242304427E+03  0.00000000000E+00 0.  1.
          1   -1    0    0  501    0  0.00000000000E+00 -0.00000000000E+00 -0.20048651404E+03  0.20048651404E+03  0.00000000000E+00 0. -1.
         24    1    1    2    0    0  0.21170220959E+03  0.54059406475E+02  0.56447273515E+02  0.23956993888E+03  0.80419002446E+02 0.  0.
        -24    1    1    2    0    0 -0.21170220959E+03 -0.54059406475E+02  0.15489256715E+02  0.23333961944E+03  0.80419002446E+02 0. -1.
<mgrwt>
<rscale>  0 0.23282496E+03</rscale>
<asrwt>0</asrwt>
<pdfrwt beam="1">  1        1 0.30844079E-01 0.23282496E+03</pdfrwt>
<pdfrwt beam="2">  1       -1 0.41911237E-01 0.23282496E+03</pdfrwt>
<totfact> 0.83067882E+02</totfact>
</mgrwt>
</event>
<event>
 4    1  0.4862093E-001  0.1078961E+03  0.7546771E-02  0.1264516E+00
          2   -1    0    0  501    0  0.00000000000E+00  0.00000000000E+00  0.92556391037E+03  0.92556391037E+03  0.00000000000E+00 0. -1.
         -2   -1    0    0    0  501 -0.00000000000E+00 -0.00000000000E+00 -0.98338370157E+02  0.98338370157E+02  0.00000000000E+00 0.  1.
         24    1    1    2    0    0  0.64688629861E+02  0.31459914589E+02  0.89170406102E+03  0.89820804575E+03  0.80419002446E+02 0. -1.
        -24    1    1    2    0    0 -0.64688629861E+02 -0.31459914589E+02 -0.64478520798E+02  0.12569423478E+03  0.80419002446E+02 0.  1.
<mgrwt>
<rscale>  0 0.10789607E+03</rscale>
<asrwt>0</asrwt>
<pdfrwt beam="1">  1        2 0.14239444E+00 0.10789607E+03</pdfrwt>
<pdfrwt beam="2">  1       -2 0.15128981E-01 0.10789607E+03</pdfrwt>
<totfact> 0.99151149E+02</totfact>
</mgrwt>
</event>
<event>
 4    1  0.4862093E-001  0.9712194E+02  0.7546771E-02  0.1286467E+00
         -2   -1    0    0    0  501 -0.00000000000E+00  0.00000000000E+00  0.84085468335E+01  0.84085468335E+01  0.00000000000E+00 0.  1.
          2   -1    0    0  501    0  0.00000000000E+00 -0.00000000000E+00 -0.24260020043E+04  0.24260020043E+04  0.00000000000E+00 0. -1.
         24    1    1    2    0    0 -0.27280212231E+02  0.47130081568E+02 -0.21012621923E+04  0.21035055196E+04  0.80419002446E+02 0. -1.
        -24    1    1    2    0    0  0.27280212231E+02 -0.47130081568E+02 -0.31633126520E+03  0.33090503149E+03  0.80419002446E+02 0.  1.
<mgrwt>
<rscale>  0 0.97121936E+02</rscale>
<asrwt>0</asrwt>
<pdfrwt beam="1">  1        2 0.37323133E+00 0.97121936E+02</pdfrwt>
<pdfrwt beam="2">  1       -2 0.12936217E-02 0.97121936E+02</pdfrwt>
<totfact> 0.63913746E+03</totfact>
</mgrwt>
</event>
<event>
 4    1  0.4862093E-001  0.8663518E+02  0.7546771E-02  0.1311211E+00
         -2   -1    0    0    0  501 -0.00000000000E+00  0.00000000000E+00  0.26633233506E+02  0.26633233506E+02  0.00000000000E+00 0.  1.
          2   -1    0    0  501    0  0.00000000000E+00 -0.00000000000E+00 -0.34535517430E+03  0.34535517430E+03  0.00000000000E+00 0. -1.
         24    1    1    2    0    0 -0.32020296823E+02 -0.36246652374E+01 -0.23914013621E+03  0.25434948065E+03  0.80419002446E+02 0.  1.
        -24    1    1    2    0    0  0.32020296823E+02  0.36246652374E+01 -0.79581804585E+02  0.11763892715E+03  0.80419002446E+02 0.  1.
<mgrwt>
<rscale>  0 0.86635175E+02</rscale>
<asrwt>0</asrwt>
<pdfrwt beam="1">  1        2 0.53131562E-01 0.86635175E+02</pdfrwt>
<pdfrwt beam="2">  1       -2 0.40974208E-02 0.86635175E+02</pdfrwt>
<totfact> 0.22172428E+04</totfact>
</mgrwt>
</event>
<event>
 4    1  0.4862093E-001  0.8782340E+02  0.7546771E-02  0.1308210E+00
         -1   -1    0    0    0  501 -0.00000000000E+00  0.00000000000E+00  0.20471447245E+03  0.20471447245E+03  0.00000000000E+00 0.  1.
          1   -1    0    0  501    0  0.00000000000E+00 -0.00000000000E+00 -0.58157920828E+02  0.58157920828E+02  0.00000000000E+00 0. -1.
         24    1    1    2    0    0  0.27350667301E+02  0.22308632702E+02  0.15127732011E+03  0.17492220451E+03  0.80419002446E+02 0.  1.
        -24    1    1    2    0    0 -0.27350667301E+02 -0.22308632702E+02 -0.47207684926E+01  0.87950188768E+02  0.80419002446E+02 0. -1.
<mgrwt>
<rscale>  0 0.87823403E+02</rscale>
<asrwt>0</asrwt>
<pdfrwt beam="1">  1        1 0.89473725E-02 0.87823403E+02</pdfrwt>
<pdfrwt beam="2">  1       -1 0.31494534E-01 0.87823403E+02</pdfrwt>
<totfact> 0.64221907E+03</totfact>
</mgrwt>
</event>
<event>
 4    1  0.4862093E-001  0.1837889E+03  0.7546771E-02  0.1164186E+00
          2   -1    0    0  501    0  0.00000000000E+00  0.00000000000E+00  0.10018826692E+04  0.10018826692E+04  0.00000000000E+00 0. -1.
         -2   -1    0    0    0  501 -0.00000000000E+00 -0.00000000000E+00 -0.55919548716E+02  0.55919548716E+02  0.00000000000E+00 0.  1.
         24    1    1    2    0    0 -0.16281737145E+03 -0.28313388713E+02  0.80626576753E+03  0.82694791146E+03  0.80419002446E+02 0. -1.
        -24    1    1    2    0    0  0.16281737145E+03  0.28313388713E+02  0.13969735292E+03  0.23085430642E+03  0.80419002446E+02 0.  1.
<mgrwt>
<rscale>  0 0.18378890E+03</rscale>
<asrwt>0</asrwt>
<pdfrwt beam="1">  1        2 0.15413578E+00 0.18378890E+03</pdfrwt>
<pdfrwt beam="2">  1       -2 0.86030083E-02 0.18378890E+03</pdfrwt>
<totfact> 0.21973014E+03</totfact>
</mgrwt>
</event>
<event>
 4    1  0.4862093E-001  0.9342436E+02  0.7546771E-02  0.1294765E+00
         -1   -1    0    0    0  501 -0.00000000000E+00  0.00000000000E+00  0.18144270639E+02  0.18144270639E+02  0.00000000000E+00 0.  1.
          1   -1    0    0  501    0  0.00000000000E+00 -0.00000000000E+00 -0.58870685566E+03  0.58870685566E+03  0.00000000000E+00 0. -1.
         24    1    1    2    0    0 -0.47458132797E+02 -0.29362317140E+01 -0.15552018518E+03  0.18142392284E+03  0.80419002446E+02 0.  0.
        -24    1    1    2    0    0  0.47458132797E+02  0.29362317140E+01 -0.41504239984E+03  0.42542720346E+03  0.80419002446E+02 0.  0.
<mgrwt>
<rscale>  0 0.93424364E+02</rscale>
<asrwt>0</asrwt>
<pdfrwt beam="1">  1        1 0.90570281E-01 0.93424364E+02</pdfrwt>
<pdfrwt beam="2">  1       -1 0.27914264E-02 0.93424364E+02</pdfrwt>
<totfact> 0.13950217E+04</totfact>
</mgrwt>
</event>
<event>
 4    1  0.4862093E-001  0.8281406E+02  0.7546771E-02  0.1321250E+00
         -4   -1    0    0    0  501 -0.00000000000E+00  0.00000000000E+00  0.25526784091E+03  0.25526784091E+03  0.00000000000E+00 0.  1.
          4   -1    0    0  501    0  0.00000000000E+00 -0.00000000000E+00 -0.27309069460E+02  0.27309069460E+02  0.00000000000E+00 0. -1.
         24    1    1    2    0    0  0.10577529201E+02  0.16705350173E+02  0.95994220541E+02  0.12677956925E+03  0.80419002446E+02 0. -1.
        -24    1    1    2    0    0 -0.10577529201E+02 -0.16705350173E+02  0.13196455091E+03  0.15579734112E+03  0.80419002446E+02 0.  1.
<mgrwt>
<rscale>  0 0.82814062E+02</rscale>
<asrwt>0</asrwt>
<pdfrwt beam="1">  1        4 0.42013955E-02 0.82814062E+02</pdfrwt>
<pdfrwt beam="2">  1       -4 0.39271974E-01 0.82814062E+02</pdfrwt>
<totfact> 0.28779351E+03</totfact>
</mgrwt>
</event>
<event>
 4    1  0.4862093E-001  0.8600301E+02  0.7546771E-02  0.1312830E+00
          2   -1    0    0  501    0  0.00000000000E+00  0.00000000000E+00  0.59005213546E+03  0.59005213546E+03  0.00000000000E+00 0. -1.
         -2   -1    0    0    0  501 -0.00000000000E+00 -0.00000000000E+00 -0.61400684546E+02  0.61400684546E+02  0.00000000000E+00 0.  1.
         24    1    1    2    0    0  0.28985570896E+02 -0.94413419632E+01  0.55490641021E+03  0.56153151497E+03  0.80419002446E+02 0. -1.
        -24    1    1    2    0    0 -0.28985570896E+02  0.94413419632E+01 -0.26254959293E+02  0.89921305040E+02  0.80419002446E+02 0.  1.
<mgrwt>
<rscale>  0 0.86003013E+02</rscale>
<asrwt>0</asrwt>
<pdfrwt beam="1">  1        2 0.90777248E-01 0.86003013E+02</pdfrwt>
<pdfrwt beam="2">  1       -2 0.94462596E-02 0.86003013E+02</pdfrwt>
<totfact> 0.35619400E+03</totfact>
</mgrwt>
</event>
<event>
 4    1  0.4862093E-001  0.8335837E+02  0.7546771E-02  0.1319782E+00
          2   -1    0    0  501    0  0.00000000000E+00  0.00000000000E+00  0.18979653392E+03  0.18979653392E+03  0.00000000000E+00 0. -1.
         -2   -1    0    0    0  501 -0.00000000000E+00 -0.00000000000E+00 -0.37874747704E+02  0.37874747704E+02  0.00000000000E+00 0.  1.
         24    1    1    2    0    0  0.44042019375E+01 -0.21494300890E+02  0.96755675446E+02  0.12771170131E+03  0.80419002446E+02 0.  0.
        -24    1    1    2    0    0 -0.44042019375E+01  0.21494300890E+02  0.55166110772E+02  0.99959580319E+02  0.80419002446E+02 0.  0.
<mgrwt>
<rscale>  0 0.83358370E+02</rscale>
<asrwt>0</asrwt>
<pdfrwt beam="1">  1        2 0.29199466E-01 0.83358370E+02</pdfrwt>
<pdfrwt beam="2">  1       -2 0.58268844E-02 0.83358370E+02</pdfrwt>
<totfact> 0.24570626E+04</totfact>
</mgrwt>
</event>
<event>
 4    1  0.4862093E-001  0.8421950E+02  0.7546771E-02  0.1317486E+00
         -2   -1    0    0    0  501 -0.00000000000E+00  0.00000000000E+00  0.12601796387E+02  0.12601796387E+02  0.00000000000E+00 0.  1.
          2   -1    0    0  501    0  0.00000000000E+00 -0.00000000000E+00 -0.61408049079E+03  0.61408049079E+03  0.00000000000E+00 0. -1.
         24    1    1    2    0    0 -0.16986325634E+02 -0.18362287988E+02 -0.39124334748E+03  0.40020529954E+03  0.80419002446E+02 0. -1.
        -24    1    1    2    0    0  0.16986325634E+02  0.18362287988E+02 -0.21023534693E+03  0.22647698764E+03  0.80419002446E+02 0.  1.
<mgrwt>
<rscale>  0 0.84219504E+02</rscale>
<asrwt>0</asrwt>
<pdfrwt beam="1">  1        2 0.94473897E-01 0.84219504E+02</pdfrwt>
<pdfrwt beam="2">  1       -2 0.19387384E-02 0.84219504E+02</pdfrwt>
<totfact> 0.35292791E+04</totfact>
</mgrwt>
</event>
<event>
 4    1  0.4862093E-001  0.1232626E+03  0.7546771E-02  0.1237810E+00
         -2   -1    0    0    0  501 -0.00000000000E+00  0.00000000000E+00  0.26392668455E+02  0.26392668455E+02  0.00000000000E+00 0.  1.
          2   -1    0    0  501    0  0.00000000000E+00 -0.00000000000E+00 -0.72884188209E+03  0.72884188209E+03  0.00000000000E+00 0. -1.
         24    1    1    2    0    0 -0.43766598310E+02 -0.82528352478E+02 -0.52433150428E+03  0.53862527459E+03  0.80419002446E+02 0. -1.
        -24    1    1    2    0    0  0.43766598310E+02  0.82528352478E+02 -0.17811770935E+03  0.21660927596E+03  0.80419002446E+02 0.  1.
<mgrwt>
<rscale>  0 0.12326257E+03</rscale>
<asrwt>0</asrwt>
<pdfrwt beam="1">  1        2 0.11212950E+00 0.12326257E+03</pdfrwt>
<pdfrwt beam="2">  1       -2 0.40604111E-02 0.12326257E+03</pdfrwt>
<totfact> 0.10206248E+04</totfact>
</mgrwt>
</event>
<event>
 4    1  0.4862093E-001  0.8825853E+02  0.7546771E-02  0.1307125E+00
          2   -1    0    0  501    0  0.00000000000E+00  0.00000000000E+00  0.66904142069E+03  0.66904142069E+03  0.00000000000E+00 0. -1.
         -2   -1    0    0    0  501 -0.00000000000E+00 -0.00000000000E+00 -0.14388402086E+02  0.14388402086E+02  0.00000000000E+00 0.  1.
         24    1    1    2    0    0 -0.30884345076E+02  0.19196588173E+02  0.47659573041E+03  0.48469893539E+03  0.80419002446E+02 0. -1.
        -24    1    1    2    0    0  0.30884345076E+02 -0.19196588173E+02  0.17805728820E+03  0.19873088739E+03  0.80419002446E+02 0.  1.
<mgrwt>
<rscale>  0 0.88258528E+02</rscale>
<asrwt>0</asrwt>
<pdfrwt beam="1">  1        2 0.10292943E+00 0.88258528E+02</pdfrwt>
<pdfrwt beam="2">  1       -2 0.22136008E-02 0.88258528E+02</pdfrwt>
<totfact> 0.26607030E+04</totfact>
</mgrwt>
</event>
<event>
 4    1  0.4862093E-001  0.8449329E+02  0.7546771E-02  0.1316763E+00
          1   -1    0    0  501    0  0.00000000000E+00  0.00000000000E+00  0.94273285597E+02  0.94273285597E+02  0.00000000000E+00 0. -1.
         -1   -1    0    0    0  501 -0.00000000000E+00 -0.00000000000E+00 -0.75807012656E+02  0.75807012656E+02  0.00000000000E+00 0.  1.
         24    1    1    2    0    0 -0.28690954455E+01  0.25761777117E+02  0.64857171803E+01  0.84741851234E+02  0.80419002446E+02 0.  0.
        -24    1    1    2    0    0  0.28690954455E+01 -0.25761777117E+02  0.11980555762E+02  0.85338447019E+02  0.80419002446E+02 0. -1.
<mgrwt>
<rscale>  0 0.84493295E+02</rscale>
<asrwt>0</asrwt>
<pdfrwt beam="1">  1        1 0.14503582E-01 0.84493295E+02</pdfrwt>
<pdfrwt beam="2">  1       -1 0.11662617E-01 0.84493295E+02</pdfrwt>
<totfact> 0.16505698E+04</totfact>
</mgrwt>
</event>
<event>
 4    1  0.4862093E-001  0.1230953E+03  0.7546771E-02  0.1238076E+00
          3   -1    0    0  501    0  0.00000000000E+00  0.00000000000E+00  0.55437863816E+03  0.55437863816E+03  0.00000000000E+00 0. -1.
         -3   -1    0    0    0  501 -0.00000000000E+00 -0.00000000000E+00 -0.63028162411E+02  0.63028162411E+02  0.00000000000E+00 0.  1.
         24    1    1    2    0    0  0.17949245655E+02 -0.91449788692E+02  0.13357217400E+02  0.12381789242E+03  0.80419002446E+02 0. -1.
        -24    1    1    2    0    0 -0.17949245655E+02  0.91449788692E+02  0.47799325835E+03  0.49358890815E+03  0.80419002446E+02 0.  0.
<mgrwt>
<rscale>  0 0.12309531E+03</rscale>
<asrwt>0</asrwt>
<pdfrwt beam="1">  1        3 0.85289018E-01 0.12309531E+03</pdfrwt>
<pdfrwt beam="2">  1       -3 0.96966407E-02 0.12309531E+03</pdfrwt>
<totfact> 0.23210713E+02</totfact>
</mgrwt>
</event>
<event>
 4    1  0.4862093E-001  0.9275584E+02  0.7546771E-02  0.1296312E+00
          1   -1    0    0  501    0  0.00000000000E+00  0.00000000000E+00  0.17520138245E+04  0.17520138245E+04  0.00000000000E+00 0. -1.
         -1   -1    0    0    0  501 -0.00000000000E+00 -0.00000000000E+00 -0.53956003560E+01  0.53956003560E+01  0.00000000000E+00 0.  1.
         24    1    1    2    0    0 -0.46132743562E+02  0.28635546467E+01  0.60989366915E+03  0.61690674628E+03  0.80419002446E+02 0.  1.
        -24    1    1    2    0    0  0.46132743562E+02 -0.28635546467E+01  0.11367245550E+04  0.11405026785E+04  0.80419002446E+02 0. -1.
<mgrwt>
<rscale>  0 0.92755840E+02</rscale>
<asrwt>0</asrwt>
<pdfrwt beam="1">  1        1 0.26954014E+00 0.92755840E+02</pdfrwt>
<pdfrwt beam="2">  1       -1 0.83009376E-03 0.92755840E+02</pdfrwt>
<totfact> 0.11484221E+04</totfact>
</mgrwt>
</event>
<event>
 4    1  0.4862093E-001  0.8363936E+02  0.7546771E-02  0.1319030E+00
          2   -1    0    0  501    0  0.00000000000E+00  0.00000000000E+00  0.84590156600E+03  0.84590156600E+03  0.00000000000E+00 0. -1.
         -2   -1    0    0    0  501 -0.00000000000E+00 -0.00000000000E+00 -0.85322657707E+01  0.85322657707E+01  0.00000000000E+00 0.  1.
         24    1    1    2    0    0  0.63704270205E+01 -0.22084868705E+02  0.34377256665E+03  0.35380095718E+03  0.80419002446E+02 0. -1.
        -24    1    1    2    0    0 -0.63704270205E+01  0.22084868705E+02  0.49359673359E+03  0.50063287460E+03  0.80419002446E+02 0.  0.
<mgrwt>
<rscale>  0 0.83639354E+02</rscale>
<asrwt>0</asrwt>
<pdfrwt beam="1">  1        2 0.13013864E+00 0.83639364E+02</pdfrwt>
<pdfrwt beam="2">  1       -2 0.13126569E-02 0.83639364E+02</pdfrwt>
<totfact> 0.42182915E+04</totfact>
</mgrwt>
</event>
<event>
 4    1  0.4862093E-001  0.8878769E+02  0.7546771E-02  0.1305814E+00
          1   -1    0    0  501    0  0.00000000000E+00  0.00000000000E+00  0.13922208732E+04  0.13922208732E+04  0.00000000000E+00 0. -1.
         -1   -1    0    0    0  501 -0.00000000000E+00 -0.00000000000E+00 -0.58102329972E+01  0.58102329972E+01  0.00000000000E+00 0.  1.
         24    1    1    2    0    0  0.20727105408E+02  0.31407409018E+02  0.58168957796E+03  0.58842673231E+03  0.80419002446E+02 0.  1.
        -24    1    1    2    0    0 -0.20727105408E+02 -0.31407409018E+02  0.80472106225E+03  0.80960437389E+03  0.80419002446E+02 0. -1.
<mgrwt>
<rscale>  0 0.88787692E+02</rscale>
<asrwt>0</asrwt>
<pdfrwt beam="1">  1        1 0.21418756E+00 0.88787692E+02</pdfrwt>
<pdfrwt beam="2">  1       -1 0.89388311E-03 0.88787692E+02</pdfrwt>
<totfact> 0.17459581E+04</totfact>
</mgrwt>
</event>
<event>
 4    1  0.4862093E-001  0.9302465E+02  0.7546771E-02  0.1295688E+00
          1   -1    0    0  501    0  0.00000000000E+00  0.00000000000E+00  0.56897635882E+03  0.56897635882E+03  0.00000000000E+00 0. -1.
         -1   -1    0    0    0  501 -0.00000000000E+00 -0.00000000000E+00 -0.40493678530E+02  0.40493678530E+02  0.00000000000E+00 0.  1.
         24    1    1    2    0    0 -0.44723998891E+02  0.13643054310E+02  0.23440991219E+02  0.95932606716E+02  0.80419002446E+02 0.  1.
        -24    1    1    2    0    0  0.44723998891E+02 -0.13643054310E+02  0.50504168907E+03  0.51353743064E+03  0.80419002446E+02 0. -1.
<mgrwt>
<rscale>  0 0.93024647E+02</rscale>
<asrwt>0</asrwt>
<pdfrwt beam="1">  1        1 0.87534819E-01 0.93024647E+02</pdfrwt>
<pdfrwt beam="2">  1       -1 0.62297971E-02 0.93024647E+02</pdfrwt>
<totfact> 0.45336611E+03</totfact>
</mgrwt>
</event>
<event>
 4    1  0.4862093E-001  0.9522570E+02  0.7546771E-02  0.1290669E+00
          1   -1    0    0  501    0  0.00000000000E+00  0.00000000000E+00  0.42573382095E+03  0.42573382095E+03  0.00000000000E+00 0. -1.
         -1   -1    0    0    0  501 -0.00000000000E+00 -0.00000000000E+00 -0.24431347017E+02  0.24431347017E+02  0.00000000000E+00 0.  1.
         24    1    1    2    0    0 -0.46011521879E+02 -0.21992101584E+02  0.28123854452E+03  0.29692262891E+03  0.80419002446E+02 0. -1.
        -24    1    1    2    0    0  0.46011521879E+02  0.21992101584E+02  0.12006392941E+03  0.15324253906E+03  0.80419002446E+02 0. -1.
<mgrwt>
<rscale>  0 0.95225684E+02</rscale>
<asrwt>0</asrwt>
<pdfrwt beam="1">  1        1 0.65497505E-01 0.95225696E+02</pdfrwt>
<pdfrwt beam="2">  1       -1 0.37586691E-02 0.95225696E+02</pdfrwt>
<totfact> 0.13806869E+04</totfact>
</mgrwt>
</event>
<event>
 4    1  0.4862093E-001  0.8581229E+02  0.7546771E-02  0.1313322E+00
          1   -1    0    0  501    0  0.00000000000E+00  0.00000000000E+00  0.46815439502E+03  0.46815439502E+03  0.00000000000E+00 0. -1.
         -1   -1    0    0    0  501 -0.00000000000E+00 -0.00000000000E+00 -0.19365898784E+02  0.19365898784E+02  0.00000000000E+00 0.  1.
         24    1    1    2    0    0  0.18925463341E+02 -0.23202593568E+02  0.11876346988E+03  0.14652136787E+03  0.80419002446E+02 0.  1.
        -24    1    1    2    0    0 -0.18925463341E+02  0.23202593568E+02  0.33002502635E+03  0.34099892593E+03  0.80419002446E+02 0. -1.
<mgrwt>
<rscale>  0 0.85812292E+02</rscale>
<asrwt>0</asrwt>
<pdfrwt beam="1">  1        1 0.72023745E-01 0.85812292E+02</pdfrwt>
<pdfrwt beam="2">  1       -1 0.29793694E-02 0.85812292E+02</pdfrwt>
<totfact> 0.16965700E+04</totfact>
</mgrwt>
</event>
<event>
 4    1  0.4862093E-001  0.8720216E+02  0.7546771E-02  0.1309772E+00
          3   -1    0    0  501    0  0.00000000000E+00  0.00000000000E+00  0.27559907402E+02  0.27559907402E+02  0.00000000000E+00 0. -1.
         -3   -1    0    0    0  501 -0.00000000000E+00 -0.00000000000E+00 -0.66816926745E+03  0.66816926745E+03  0.00000000000E+00 0.  1.
         24    1    1    2    0    0 -0.29741499496E+02 -0.15888492226E+02 -0.58683726201E+03  0.59328086857E+03  0.80419002446E+02 0.  1.
        -24    1    1    2    0    0  0.29741499496E+02  0.15888492226E+02 -0.53772098036E+02  0.10244830628E+03  0.80419002446E+02 0.  1.
<mgrwt>
<rscale>  0 0.87202161E+02</rscale>
<asrwt>0</asrwt>
<pdfrwt beam="1">  1        3 0.42399858E-02 0.87202161E+02</pdfrwt>
<pdfrwt beam="2">  1       -3 0.10279527E+00 0.87202161E+02</pdfrwt>
<totfact> 0.54324549E+02</totfact>
</mgrwt>
</event>
<event>
 4    1  0.4862093E-001  0.9603610E+02  0.7546771E-02  0.1288859E+00
          3   -1    0    0  501    0  0.00000000000E+00  0.00000000000E+00  0.27748212733E+02  0.27748212733E+02  0.00000000000E+00 0. -1.
         -3   -1    0    0    0  501 -0.00000000000E+00 -0.00000000000E+00 -0.51891004114E+03  0.51891004114E+03  0.00000000000E+00 0.  1.
         24    1    1    2    0    0 -0.94908138420E+01  0.51629854979E+02 -0.40945678217E+03  0.42056841286E+03  0.80419002446E+02 0.  1.
        -24    1    1    2    0    0  0.94908138420E+01 -0.51629854979E+02 -0.81705046232E+02  0.12608984101E+03  0.80419002446E+02 0. -1.
<mgrwt>
<rscale>  0 0.96036105E+02</rscale>
<asrwt>0</asrwt>
<pdfrwt beam="1">  1        3 0.42689558E-02 0.96036105E+02</pdfrwt>
<pdfrwt beam="2">  1       -3 0.79832314E-01 0.96036105E+02</pdfrwt>
<totfact> 0.95464940E+02</totfact>
</mgrwt>
</event>
<event>
 4    1  0.4862093E-001  0.9113242E+02  0.7546771E-02  0.1300132E+00
          1   -1    0    0  501    0  0.00000000000E+00  0.00000000000E+00  0.12050122171E+03  0.12050122171E+03  0.00000000000E+00 0. -1.
         -1   -1    0    0    0  501 -0.00000000000E+00 -0.00000000000E+00 -0.31251991529E+03  0.31251991529E+03  0.00000000000E+00 0.  1.
         24    1    1    2    0    0  0.42462790529E+02 -0.59003390907E+01 -0.28716076663E+03  0.30127466609E+03  0.80419002446E+02 0.  1.
        -24    1    1    2    0    0 -0.42462790529E+02  0.59003390907E+01  0.95142073044E+02  0.13174647091E+03  0.80419002446E+02 0. -1.
<mgrwt>
<rscale>  0 0.91132423E+02</rscale>
<asrwt>0</asrwt>
<pdfrwt beam="1">  1        1 0.18538650E-01 0.91132423E+02</pdfrwt>
<pdfrwt beam="2">  1       -1 0.48079986E-01 0.91132423E+02</pdfrwt>
<totfact> 0.12111555E+03</totfact>
</mgrwt>
</event>
<event>
 4    1  0.4862093E-001  0.1129765E+03  0.7546771E-02  0.1255155E+00
          2   -1    0    0  501    0  0.00000000000E+00  0.00000000000E+00  0.12740956575E+04  0.12740956575E+04  0.00000000000E+00 0. -1.
         -2   -1    0    0    0  501 -0.00000000000E+00 -0.00000000000E+00 -0.14838612591E+02  0.14838612591E+02  0.00000000000E+00 0.  1.
         24    1    1    2    0    0 -0.22509560524E+02 -0.76090732806E+02  0.99696335778E+03  0.10033442244E+04  0.80419002446E+02 0. -1.
        -24    1    1    2    0    0  0.22509560524E+02  0.76090732806E+02  0.26229368715E+03  0.28559004571E+03  0.80419002446E+02 0.  1.
<mgrwt>
<rscale>  0 0.11297653E+03</rscale>
<asrwt>0</asrwt>
<pdfrwt beam="1">  1        2 0.19601463E+00 0.11297653E+03</pdfrwt>
<pdfrwt beam="2">  1       -2 0.22828645E-02 0.11297653E+03</pdfrwt>
<totfact> 0.11066688E+04</totfact>
</mgrwt>
</event>
<event>
 4    1  0.4862093E-001  0.8223483E+02  0.7546771E-02  0.1322826E+00
          2   -1    0    0  501    0  0.00000000000E+00  0.00000000000E+00  0.12295367381E+04  0.12295367381E+04  0.00000000000E+00 0. -1.
         -2   -1    0    0    0  501 -0.00000000000E+00 -0.00000000000E+00 -0.55320438043E+01  0.55320438043E+01  0.00000000000E+00 0.  1.
         24    1    1    2    0    0 -0.16856253764E+02  0.33488055154E+01  0.56506981790E+03  0.57102229627E+03  0.80419002446E+02 0.  1.
        -24    1    1    2    0    0  0.16856253764E+02 -0.33488055154E+01  0.65893487640E+03  0.66404648563E+03  0.80419002446E+02 0. -1.
<mgrwt>
<rscale>  0 0.82234819E+02</rscale>
<asrwt>0</asrwt>
<pdfrwt beam="1">  1        2 0.18915928E+00 0.82234829E+02</pdfrwt>
<pdfrwt beam="2">  1       -2 0.85108464E-03 0.82234829E+02</pdfrwt>
<totfact> 0.46615736E+04</totfact>
</mgrwt>
</event>
<event>
 4    1  0.4862093E-001  0.1174641E+03  0.7546771E-02  0.1247340E+00
          2   -1    0    0  501    0  0.00000000000E+00  0.00000000000E+00  0.29662040580E+03  0.29662040580E+03  0.00000000000E+00 0. -1.
         -2   -1    0    0    0  501 -0.00000000000E+00 -0.00000000000E+00 -0.10619903671E+03  0.10619903671E+03  0.00000000000E+00 0.  1.
         24    1    1    2    0    0  0.82093586814E+02  0.24315487375E+02  0.24619884153E+03  0.27278505356E+03  0.80419002446E+02 0. -1.
        -24    1    1    2    0    0 -0.82093586814E+02 -0.24315487375E+02 -0.55777472441E+02  0.13003438895E+03  0.80419002446E+02 0.  1.
<mgrwt>
<rscale>  0 0.11746410E+03</rscale>
<asrwt>0</asrwt>
<pdfrwt beam="1">  1        2 0.45633908E-01 0.11746410E+03</pdfrwt>
<pdfrwt beam="2">  1       -2 0.16338313E-01 0.11746410E+03</pdfrwt>
<totfact> 0.31551649E+03</totfact>
</mgrwt>
</event>
<event>
 4    1  0.4862093E-001  0.8959673E+02  0.7546771E-02  0.1303831E+00
          1   -1    0    0  501    0  0.00000000000E+00  0.00000000000E+00  0.21223613860E+03  0.21223613860E+03  0.00000000000E+00 0. -1.
         -1   -1    0    0    0  501 -0.00000000000E+00 -0.00000000000E+00 -0.42709294124E+02  0.42709294124E+02  0.00000000000E+00 0.  1.
         24    1    1    2    0    0  0.44677050740E+01 -0.39247905584E+02  0.41650160318E+02  0.98804404205E+02  0.80419002446E+02 0.  1.
        -24    1    1    2    0    0 -0.44677050740E+01  0.39247905584E+02  0.12787668415E+03  0.15614102852E+03  0.80419002446E+02 0. -1.
<mgrwt>
<rscale>  0 0.89596732E+02</rscale>
<asrwt>0</asrwt>
<pdfrwt beam="1">  1        1 0.32651713E-01 0.89596732E+02</pdfrwt>
<pdfrwt beam="2">  1       -1 0.65706607E-02 0.89596732E+02</pdfrwt>
<totfact> 0.14242710E+04</totfact>
</mgrwt>
</event>
<event>
 4    1  0.4862093E-001  0.8122861E+02  0.7546771E-02  0.1325601E+00
         -2   -1    0    0    0  501 -0.00000000000E+00  0.00000000000E+00  0.40854121571E+01  0.40854121571E+01  0.00000000000E+00 0.  1.
          2   -1    0    0  501    0  0.00000000000E+00 -0.00000000000E+00 -0.17718817766E+04  0.17718817766E+04  0.00000000000E+00 0. -1.
         24    1    1    2    0    0 -0.10066165300E+02  0.54353318059E+01 -0.11480930675E+04  0.11509629786E+04  0.80419002446E+02 0. -1.
        -24    1    1    2    0    0  0.10066165300E+02 -0.54353318059E+01 -0.61970329695E+03  0.62500421016E+03  0.80419002446E+02 0.  0.
<mgrwt>
<rscale>  0 0.81228606E+02</rscale>
<asrwt>0</asrwt>
<pdfrwt beam="1">  1        2 0.27259798E+00 0.81228606E+02</pdfrwt>
<pdfrwt beam="2">  1       -2 0.62852315E-03 0.81228606E+02</pdfrwt>
<totfact> 0.37640584E+04</totfact>
</mgrwt>
</event>
<event>
 4    1  0.4862093E-001  0.8532483E+02  0.7546771E-02  0.1314585E+00
          1   -1    0    0  501    0  0.00000000000E+00  0.00000000000E+00  0.16701773222E+03  0.16701773222E+03  0.00000000000E+00 0. -1.
         -1   -1    0    0    0  501 -0.00000000000E+00 -0.00000000000E+00 -0.44107598355E+02  0.44107598355E+02  0.00000000000E+00 0.  1.
         24    1    1    2    0    0 -0.10248464222E+02 -0.26609780478E+02  0.50021317281E+02  0.98906317154E+02  0.80419002446E+02 0.  1.
        -24    1    1    2    0    0  0.10248464222E+02  0.26609780478E+02  0.72888816584E+02  0.11221901342E+03  0.80419002446E+02 0. -1.
<mgrwt>
<rscale>  0 0.85324835E+02</rscale>
<asrwt>0</asrwt>
<pdfrwt beam="1">  1        1 0.25695035E-01 0.85324835E+02</pdfrwt>
<pdfrwt beam="2">  1       -1 0.67857845E-02 0.85324835E+02</pdfrwt>
<totfact> 0.18134377E+04</totfact>
</mgrwt>
</event>
<event>
 4    1  0.4862093E-001  0.8327090E+02  0.7546771E-02  0.1320017E+00
          1   -1    0    0  501    0  0.00000000000E+00  0.00000000000E+00  0.42946303347E+02  0.42946303347E+02  0.00000000000E+00 0. -1.
         -1   -1    0    0    0  501 -0.00000000000E+00 -0.00000000000E+00 -0.23111965659E+03  0.23111965659E+03  0.00000000000E+00 0.  1.
         24    1    1    2    0    0  0.11182340526E+02  0.18487360840E+02 -0.16931860314E+03  0.18868712880E+03  0.80419002446E+02 0.  1.
        -24    1    1    2    0    0 -0.11182340526E+02 -0.18487360840E+02 -0.18854750099E+02  0.85378831136E+02  0.80419002446E+02 0. -1.
<mgrwt>
<rscale>  0 0.83270903E+02</rscale>
<asrwt>0</asrwt>
<pdfrwt beam="1">  1        1 0.66071236E-02 0.83270903E+02</pdfrwt>
<pdfrwt beam="2">  1       -1 0.35556870E-01 0.83270903E+02</pdfrwt>
<totfact> 0.77854988E+03</totfact>
</mgrwt>
</event>
<event>
 4    1  0.4862093E-001  0.1027438E+03  0.7546771E-02  0.1274630E+00
         -4   -1    0    0    0  501 -0.00000000000E+00  0.00000000000E+00  0.10065467330E+02  0.10065467330E+02  0.00000000000E+00 0.  1.
          4   -1    0    0  501    0  0.00000000000E+00 -0.00000000000E+00 -0.14213800074E+04  0.14213800074E+04  0.00000000000E+00 0. -1.
         24    1    1    2    0    0  0.63097315750E+02 -0.10382758662E+02 -0.10721126464E+04  0.10770245194E+04  0.80419002446E+02 0. -1.
        -24    1    1    2    0    0 -0.63097315750E+02  0.10382758662E+02 -0.33920189373E+03  0.35442095535E+03  0.80419002446E+02 0.  1.
<mgrwt>
<rscale>  0 0.10274380E+03</rscale>
<asrwt>0</asrwt>
<pdfrwt beam="1">  1        4 0.21867379E+00 0.10274380E+03</pdfrwt>
<pdfrwt beam="2">  1       -4 0.15485339E-02 0.10274380E+03</pdfrwt>
<totfact> 0.27020389E+02</totfact>
</mgrwt>
</event>
<event>
 4    1  0.4862093E-001  0.8680481E+02  0.7546771E-02  0.1310779E+00
          2   -1    0    0  501    0  0.00000000000E+00  0.00000000000E+00  0.69858882092E+01  0.69858882092E+01  0.00000000000E+00 0. -1.
         -2   -1    0    0    0  501 -0.00000000000E+00 -0.00000000000E+00 -0.15034230327E+04  0.15034230327E+04  0.00000000000E+00 0.  1.
         24    1    1    2    0    0  0.16187506119E+02 -0.28387024293E+02 -0.34677825129E+03  0.35747759373E+03  0.80419002446E+02 0.  1.
        -24    1    1    2    0    0 -0.16187506119E+02  0.28387024293E+02 -0.11496588932E+04  0.11529313272E+04  0.80419002446E+02 0.  0.
<mgrwt>
<rscale>  0 0.86804807E+02</rscale>
<asrwt>0</asrwt>
<pdfrwt beam="1">  1        2 0.10747505E-02 0.86804807E+02</pdfrwt>
<pdfrwt beam="2">  1       -2 0.23129617E+00 0.86804807E+02</pdfrwt>
<totfact> 0.11333047E+03</totfact>
</mgrwt>
</event>
<event>
 4    1  0.4862093E-001  0.8267009E+02  0.7546771E-02  0.1321640E+00
         -1   -1    0    0    0  501 -0.00000000000E+00  0.00000000000E+00  0.74398845131E+01  0.74398845131E+01  0.00000000000E+00 0.  1.
          1   -1    0    0  501    0  0.00000000000E+00 -0.00000000000E+00 -0.91946125752E+03  0.91946125752E+03  0.00000000000E+00 0. -1.
         24    1    1    2    0    0 -0.14669621029E+02  0.12325879801E+02 -0.47012478214E+03  0.47733808965E+03  0.80419002446E+02 0.  1.
        -24    1    1    2    0    0  0.14669621029E+02 -0.12325879801E+02 -0.44189659087E+03  0.44956305239E+03  0.80419002446E+02 0.  0.
<mgrwt>
<rscale>  0 0.82670084E+02</rscale>
<asrwt>0</asrwt>
<pdfrwt beam="1">  1        1 0.14145553E+00 0.82670094E+02</pdfrwt>
<pdfrwt beam="2">  1       -1 0.11445980E-02 0.82670094E+02</pdfrwt>
<totfact> 0.25812320E+04</totfact>
</mgrwt>
</event>
<event>
 4    1  0.4862093E-001  0.9149743E+02  0.7546771E-02  0.1299265E+00
          2   -1    0    0  501    0  0.00000000000E+00  0.00000000000E+00  0.73122152919E+03  0.73122152919E+03  0.00000000000E+00 0. -1.
         -2   -1    0    0    0  501 -0.00000000000E+00 -0.00000000000E+00 -0.35552174431E+02  0.35552174431E+02  0.00000000000E+00 0.  1.
         24    1    1    2    0    0 -0.30412307069E+01 -0.43535203898E+02  0.66351023784E+03  0.66978923158E+03  0.80419002446E+02 0. -1.
        -24    1    1    2    0    0  0.30412307069E+01  0.43535203898E+02  0.32159116920E+02  0.96984472046E+02  0.80419002446E+02 0.  1.
<mgrwt>
<rscale>  0 0.91497426E+02</rscale>
<asrwt>0</asrwt>
<pdfrwt beam="1">  1        2 0.11249561E+00 0.91497426E+02</pdfrwt>
<pdfrwt beam="2">  1       -2 0.54695658E-02 0.91497426E+02</pdfrwt>
<totfact> 0.64054957E+03</totfact>
</mgrwt>
</event>
<event>
 4    1  0.4862093E-001  0.9123848E+02  0.7546771E-02  0.1299880E+00
         -2   -1    0    0    0  501 -0.00000000000E+00  0.00000000000E+00  0.52365879569E+03  0.52365879569E+03  0.00000000000E+00 0.  1.
          2   -1    0    0  501    0  0.00000000000E+00 -0.00000000000E+00 -0.43173569889E+02  0.43173569889E+02  0.00000000000E+00 0. -1.
         24    1    1    2    0    0 -0.30327941165E+02 -0.30617964255E+02  0.14967750215E+02  0.92458062122E+02  0.80419002446E+02 0. -1.
        -24    1    1    2    0    0  0.30327941165E+02  0.30617964255E+02  0.46551747558E+03  0.47437430345E+03  0.80419002446E+02 0.  1.
<mgrwt>
<rscale>  0 0.91238477E+02</rscale>
<asrwt>0</asrwt>
<pdfrwt beam="1">  1        2 0.66420880E-02 0.91238477E+02</pdfrwt>
<pdfrwt beam="2">  1       -2 0.80562887E-01 0.91238477E+02</pdfrwt>
<totfact> 0.14346909E+03</totfact>
</mgrwt>
</event>
<event>
 4    1  0.4862093E-001  0.8626663E+02  0.7546771E-02  0.1312153E+00
         -2   -1    0    0    0  501 -0.00000000000E+00  0.00000000000E+00  0.17608863260E+02  0.17608863260E+02  0.00000000000E+00 0.  1.
          2   -1    0    0  501    0  0.00000000000E+00 -0.00000000000E+00 -0.10175287974E+04  0.10175287974E+04  0.00000000000E+00 0. -1.
         24    1    1    2    0    0  0.21544919905E+02  0.22594948584E+02 -0.89570769715E+03  0.89985232676E+03  0.80419002446E+02 0. -1.
        -24    1    1    2    0    0 -0.21544919905E+02 -0.22594948584E+02 -0.10421223695E+03  0.13528533387E+03  0.80419002446E+02 0.  0.
<mgrwt>
<rscale>  0 0.86266629E+02</rscale>
<asrwt>0</asrwt>
<pdfrwt beam="1">  1        2 0.15654290E+00 0.86266629E+02</pdfrwt>
<pdfrwt beam="2">  1       -2 0.27090557E-02 0.86266629E+02</pdfrwt>
<totfact> 0.11793195E+04</totfact>
</mgrwt>
</event>
<event>
 4    1  0.4862093E-001  0.8717103E+02  0.7546771E-02  0.1309851E+00
          1   -1    0    0  501    0  0.00000000000E+00  0.00000000000E+00  0.32415447713E+03  0.32415447713E+03  0.00000000000E+00 0. -1.
         -1   -1    0    0    0  501 -0.00000000000E+00 -0.00000000000E+00 -0.40098003401E+02  0.40098003401E+02  0.00000000000E+00 0.  1.
         24    1    1    2    0    0  0.31370082722E+02 -0.12144594768E+02  0.24647141372E+02  0.90588469488E+02  0.80419002446E+02 0.  1.
        -24    1    1    2    0    0 -0.31370082722E+02  0.12144594768E+02  0.25940933236E+03  0.27366401104E+03  0.80419002446E+02 0. -1.
<mgrwt>
<rscale>  0 0.87171034E+02</rscale>
<asrwt>0</asrwt>
<pdfrwt beam="1">  1        1 0.49869918E-01 0.87171034E+02</pdfrwt>
<pdfrwt beam="2">  1       -1 0.61689238E-02 0.87171034E+02</pdfrwt>
<totfact> 0.93004248E+03</totfact>
</mgrwt>
</event>
<event>
 4    1  0.4862093E-001  0.8360530E+02  0.7546771E-02  0.1319121E+00
         -1   -1    0    0    0  501 -0.00000000000E+00  0.00000000000E+00  0.54075305468E+02  0.54075305468E+02  0.00000000000E+00 0.  1.
          1   -1    0    0  501    0  0.00000000000E+00 -0.00000000000E+00 -0.31496775180E+03  0.31496775180E+03  0.00000000000E+00 0. -1.
         24    1    1    2    0    0  0.12115456267E+02 -0.19386744041E+02  0.11239945201E+02  0.84357468238E+02  0.80419002446E+02 0.  1.
        -24    1    1    2    0    0 -0.12115456267E+02  0.19386744041E+02 -0.27213239154E+03  0.28468558903E+03  0.80419002446E+02 0. -1.
<mgrwt>
<rscale>  0 0.83605299E+02</rscale>
<asrwt>0</asrwt>
<pdfrwt beam="1">  1        1 0.48456578E-01 0.83605299E+02</pdfrwt>
<pdfrwt beam="2">  1       -1 0.83192776E-02 0.83605299E+02</pdfrwt>
<totfact> 0.61627485E+03</totfact>
</mgrwt>
</event>
<event>
 4    1  0.4862093E-001  0.8666034E+02  0.7546771E-02  0.1311147E+00
          3   -1    0    0  501    0  0.00000000000E+00  0.00000000000E+00  0.23631201488E+03  0.23631201488E+03  0.00000000000E+00 0. -1.
         -3   -1    0    0    0  501 -0.00000000000E+00 -0.00000000000E+00 -0.35193737499E+02  0.35193737499E+02  0.00000000000E+00 0.  1.
         24    1    1    2    0    0  0.32191237942E+02 -0.25538287749E+01  0.58279957232E+02  0.10443451159E+03  0.80419002446E+02 0.  0.
        -24    1    1    2    0    0 -0.32191237942E+02  0.25538287749E+01  0.14283832015E+03  0.16707124079E+03  0.80419002446E+02 0.  0.
<mgrwt>
<rscale>  0 0.86660336E+02</rscale>
<asrwt>0</asrwt>
<pdfrwt beam="1">  1        3 0.36355694E-01 0.86660336E+02</pdfrwt>
<pdfrwt beam="2">  1       -3 0.54144213E-02 0.86660336E+02</pdfrwt>
<totfact> 0.31281243E+03</totfact>
</mgrwt>
</event>
<event>
 4    1  0.4862093E-001  0.8745946E+02  0.7546771E-02  0.1309123E+00
         -1   -1    0    0    0  501 -0.00000000000E+00  0.00000000000E+00  0.27226251592E+02  0.27226251592E+02  0.00000000000E+00 0.  1.
          1   -1    0    0  501    0  0.00000000000E+00 -0.00000000000E+00 -0.30219675373E+03  0.30219675373E+03  0.00000000000E+00 0. -1.
         24    1    1    2    0    0  0.31777985204E+02  0.13118555514E+02 -0.18116185043E+03  0.20116850859E+03  0.80419002446E+02 0.  0.
        -24    1    1    2    0    0 -0.31777985204E+02 -0.13118555514E+02 -0.93808651707E+02  0.12825449673E+03  0.80419002446E+02 0.  1.
<mgrwt>
<rscale>  0 0.87459446E+02</rscale>
<asrwt>0</asrwt>
<pdfrwt beam="1">  1        1 0.46491807E-01 0.87459457E+02</pdfrwt>
<pdfrwt beam="2">  1       -1 0.41886542E-02 0.87459457E+02</pdfrwt>
<totfact> 0.17855620E+04</totfact>
</mgrwt>
</event>
<event>
 4    1  0.4862093E-001  0.9854103E+02  0.7546771E-02  0.1283394E+00
         -2   -1    0    0    0  501 -0.00000000000E+00  0.00000000000E+00  0.93207934867E+01  0.93207934867E+01  0.00000000000E+00 0.  1.
          2   -1    0    0  501    0  0.00000000000E+00 -0.00000000000E+00 -0.13197450340E+04  0.13197450340E+04  0.00000000000E+00 0. -1.
         24    1    1    2    0    0 -0.48547939633E+02  0.29769369099E+02 -0.96018183542E+03  0.96522509852E+03  0.80419002446E+02 0. -1.
        -24    1    1    2    0    0  0.48547939633E+02 -0.29769369099E+02 -0.35024240512E+03  0.36384072900E+03  0.80419002446E+02 0.  1.
<mgrwt>
<rscale>  0 0.98541026E+02</rscale>
<asrwt>0</asrwt>
<pdfrwt beam="1">  1        2 0.20303766E+00 0.98541026E+02</pdfrwt>
<pdfrwt beam="2">  1       -2 0.14339685E-02 0.98541026E+02</pdfrwt>
<totfact> 0.20248643E+04</totfact>
</mgrwt>
</event>
<event>
 4    1  0.4862093E-001  0.3637344E+03  0.7546771E-02  0.1057115E+00
         -2   -1    0    0    0  501 -0.00000000000E+00  0.00000000000E+00  0.65382859029E+02  0.65382859029E+02  0.00000000000E+00 0.  1.
          2   -1    0    0  501    0  0.00000000000E+00 -0.00000000000E+00 -0.20909747946E+04  0.20909747946E+04  0.00000000000E+00 0. -1.
         24    1    1    2    0    0 -0.31541124228E+03 -0.16233043328E+03 -0.81912415764E+03  0.89625165155E+03  0.80419002446E+02 0.  0.
        -24    1    1    2    0    0  0.31541124228E+03  0.16233043328E+03 -0.12064677780E+04  0.12601060021E+04  0.80419002446E+02 0.  1.
<mgrwt>
<rscale>  0 0.36373434E+03</rscale>
<asrwt>0</asrwt>
<pdfrwt beam="1">  1        2 0.32168841E+00 0.36373439E+03</pdfrwt>
<pdfrwt beam="2">  1       -2 0.10058902E-01 0.36373439E+03</pdfrwt>
<totfact> 0.43138466E+02</totfact>
</mgrwt>
</event>
<event>
 4    1  0.4862093E-001  0.8904726E+02  0.7546771E-02  0.1305175E+00
         -2   -1    0    0    0  501 -0.00000000000E+00  0.00000000000E+00  0.10316104809E+03  0.10316104809E+03  0.00000000000E+00 0.  1.
          2   -1    0    0  501    0  0.00000000000E+00 -0.00000000000E+00 -0.82227408451E+03  0.82227408451E+03  0.00000000000E+00 0. -1.
         24    1    1    2    0    0  0.73269007249E+00 -0.38231675588E+02 -0.80011665281E+03  0.80505656442E+03  0.80419002446E+02 0. -1.
        -24    1    1    2    0    0 -0.73269007249E+00  0.38231675588E+02  0.81003616393E+02  0.12037856818E+03  0.80419002446E+02 0.  1.
<mgrwt>
<rscale>  0 0.89047256E+02</rscale>
<asrwt>0</asrwt>
<pdfrwt beam="1">  1        2 0.12650370E+00 0.89047256E+02</pdfrwt>
<pdfrwt beam="2">  1       -2 0.15870931E-01 0.89047256E+02</pdfrwt>
<totfact> 0.10646860E+03</totfact>
</mgrwt>
</event>
<event>
 4    1  0.4862093E-001  0.8204029E+02  0.7546771E-02  0.1323359E+00
         -2   -1    0    0    0  501 -0.00000000000E+00  0.00000000000E+00  0.24658759869E+01  0.24658759869E+01  0.00000000000E+00 0.  1.
          2   -1    0    0  501    0  0.00000000000E+00 -0.00000000000E+00 -0.29163062470E+04  0.29163062470E+04  0.00000000000E+00 0. -1.
         24    1    1    2    0    0 -0.15230698796E+02  0.56052295167E+01 -0.18262796384E+04  0.18281214201E+04  0.80419002446E+02 0.  0.
        -24    1    1    2    0    0  0.15230698796E+02 -0.56052295167E+01 -0.10875607326E+04  0.10906507029E+04  0.80419002446E+02 0. -1.
<mgrwt>
<rscale>  0 0.82040287E+02</rscale>
<asrwt>0</asrwt>
<pdfrwt beam="1">  1        2 0.44866406E+00 0.82040287E+02</pdfrwt>
<pdfrwt beam="2">  1       -2 0.37936422E-03 0.82040287E+02</pdfrwt>
<totfact> 0.19470187E+04</totfact>
</mgrwt>
</event>
<event>
 4    1  0.4862093E-001  0.3085176E+03  0.7546771E-02  0.1081059E+00
          2   -1    0    0  501    0  0.00000000000E+00  0.00000000000E+00  0.15665528337E+03  0.15665528337E+03  0.00000000000E+00 0. -1.
         -2   -1    0    0    0  501 -0.00000000000E+00 -0.00000000000E+00 -0.72032366756E+03  0.72032366756E+03  0.00000000000E+00 0.  1.
         24    1    1    2    0    0  0.84665176871E+01  0.29773175032E+03 -0.10836954870E+03  0.32699702156E+03  0.80419002446E+02 0. -1.
        -24    1    1    2    0    0 -0.84665176871E+01 -0.29773175032E+03 -0.45529883549E+03  0.54998192936E+03  0.80419002446E+02 0.  1.
<mgrwt>
<rscale>  0 0.30851757E+03</rscale>
<asrwt>0</asrwt>
<pdfrwt beam="1">  1        2 0.24100813E-01 0.30851757E+03</pdfrwt>
<pdfrwt beam="2">  1       -2 0.11081903E+00 0.30851757E+03</pdfrwt>
<totfact> 0.15132909E+02</totfact>
</mgrwt>
</event>
<event>
 4    1  0.4862093E-001  0.9870606E+02  0.7546771E-02  0.1283041E+00
          2   -1    0    0  501    0  0.00000000000E+00  0.00000000000E+00  0.14553628523E+04  0.14553628523E+04  0.00000000000E+00 0. -1.
         -2   -1    0    0    0  501 -0.00000000000E+00 -0.00000000000E+00 -0.28355707683E+02  0.28355707683E+02  0.00000000000E+00 0.  1.
         24    1    1    2    0    0 -0.50194823142E+02 -0.27498178579E+02  0.13619034152E+04  0.13654756674E+04  0.80419002446E+02 0. -1.
        -24    1    1    2    0    0  0.50194823142E+02  0.27498178579E+02  0.65103729398E+02  0.11824289252E+03  0.80419002446E+02 0.  1.
<mgrwt>
<rscale>  0 0.98706059E+02</rscale>
<asrwt>0</asrwt>
<pdfrwt beam="1">  1        2 0.22390192E+00 0.98706059E+02</pdfrwt>
<pdfrwt beam="2">  1       -2 0.43624177E-02 0.98706059E+02</pdfrwt>
<totfact> 0.34263497E+03</totfact>
</mgrwt>
</event>
<event>
 4    1  0.4862093E-001  0.9273947E+02  0.7546771E-02  0.1296350E+00
         -2   -1    0    0    0  501 -0.00000000000E+00  0.00000000000E+00  0.16424109540E+02  0.16424109540E+02  0.00000000000E+00 0.  1.
          2   -1    0    0  501    0  0.00000000000E+00 -0.00000000000E+00 -0.15787498016E+04  0.15787498016E+04  0.00000000000E+00 0. -1.
         24    1    1    2    0    0  0.30225327648E+02  0.34925965379E+02 -0.14331913757E+04  0.14361887512E+04  0.80419002446E+02 0. -1.
        -24    1    1    2    0    0 -0.30225327648E+02 -0.34925965379E+02 -0.12913431630E+03  0.15898515997E+03  0.80419002446E+02 0.  1.
<mgrwt>
<rscale>  0 0.92739471E+02</rscale>
<asrwt>0</asrwt>
<pdfrwt beam="1">  1        2 0.24288462E+00 0.92739471E+02</pdfrwt>
<pdfrwt beam="2">  1       -2 0.25267858E-02 0.92739471E+02</pdfrwt>
<totfact> 0.65709994E+03</totfact>
</mgrwt>
</event>
<event>
 4    1  0.4862093E-001  0.1133758E+03  0.7546771E-02  0.1254443E+00
          2   -1    0    0  501    0  0.00000000000E+00  0.00000000000E+00  0.25659108720E+04  0.25659108720E+04  0.00000000000E+00 0. -1.
         -2   -1    0    0    0  501 -0.00000000000E+00 -0.00000000000E+00 -0.51072677569E+01  0.51072677569E+01  0.00000000000E+00 0.  1.
         24    1    1    2    0    0 -0.78776401593E+02  0.13458264204E+02  0.14582152373E+04  0.14626160605E+04  0.80419002446E+02 0. -1.
        -24    1    1    2    0    0  0.78776401593E+02 -0.13458264204E+02  0.11025883670E+04  0.11084020793E+04  0.80419002446E+02 0.  1.
<mgrwt>
<rscale>  0 0.11337576E+03</rscale>
<asrwt>0</asrwt>
<pdfrwt beam="1">  1        2 0.39475449E+00 0.11337576E+03</pdfrwt>
<pdfrwt beam="2">  1       -2 0.78573555E-03 0.11337576E+03</pdfrwt>
<totfact> 0.10988762E+04</totfact>
</mgrwt>
</event>
<event>
 4    1  0.4862093E-001  0.8527883E+02  0.7546771E-02  0.1314705E+00
          2   -1    0    0  501    0  0.00000000000E+00  0.00000000000E+00  0.10439391022E+04  0.10439391022E+04  0.00000000000E+00 0. -1.
         -2   -1    0    0    0  501 -0.00000000000E+00 -0.00000000000E+00 -0.70675412928E+01  0.70675412928E+01  0.00000000000E+00 0.  1.
         24    1    1    2    0    0  0.63360681563E+01 -0.27660690465E+02  0.45556476544E+03  0.46347786465E+03  0.80419002446E+02 0.  1.
        -24    1    1    2    0    0 -0.63360681563E+01  0.27660690465E+02  0.58130679547E+03  0.58752877885E+03  0.80419002446E+02 0. -1.
<mgrwt>
<rscale>  0 0.85278821E+02</rscale>
<asrwt>0</asrwt>
<pdfrwt beam="1">  1        2 0.16060589E+00 0.85278832E+02</pdfrwt>
<pdfrwt beam="2">  1       -2 0.10873149E-02 0.85278832E+02</pdfrwt>
<totfact> 0.41941827E+04</totfact>
</mgrwt>
</event>
<event>
 4    1  0.4862093E-001  0.1049594E+03  0.7546771E-02  0.1270200E+00
          2   -1    0    0  501    0  0.00000000000E+00  0.00000000000E+00  0.30218377911E+04  0.30218377911E+04  0.00000000000E+00 0. -1.
         -2   -1    0    0    0  501 -0.00000000000E+00 -0.00000000000E+00 -0.67946869493E+01  0.67946869493E+01  0.00000000000E+00 0.  1.
         24    1    1    2    0    0 -0.65321207417E+02 -0.16804831072E+02  0.25384360803E+04  0.25406050878E+04  0.80419002446E+02 0. -1.
        -24    1    1    2    0    0  0.65321207417E+02  0.16804831072E+02  0.47660702389E+03  0.48802739027E+03  0.80419002446E+02 0.  1.
<mgrwt>
<rscale>  0 0.10495941E+03</rscale>
<asrwt>0</asrwt>
<pdfrwt beam="1">  1        2 0.46489705E+00 0.10495941E+03</pdfrwt>
<pdfrwt beam="2">  1       -2 0.10453389E-02 0.10495941E+03</pdfrwt>
<totfact> 0.40951960E+03</totfact>
</mgrwt>
</event>
<event>
 4    1  0.4862093E-001  0.1058411E+03  0.7546771E-02  0.1268471E+00
          2   -1    0    0  501    0  0.00000000000E+00  0.00000000000E+00  0.12407396832E+03  0.12407396832E+03  0.00000000000E+00 0. -1.
         -2   -1    0    0    0  501 -0.00000000000E+00 -0.00000000000E+00 -0.21155263838E+03  0.21155263838E+03  0.00000000000E+00 0.  1.
         24    1    1    2    0    0 -0.30455588993E+02  0.61705540811E+02  0.83313712330E+02  0.13469783697E+03  0.80419002446E+02 0. -1.
        -24    1    1    2    0    0  0.30455588993E+02 -0.61705540811E+02 -0.17079238239E+03  0.20092876973E+03  0.80419002446E+02 0.  1.
<mgrwt>
<rscale>  0 0.10584107E+03</rscale>
<asrwt>0</asrwt>
<pdfrwt beam="1">  1        2 0.19088303E-01 0.10584107E+03</pdfrwt>
<pdfrwt beam="2">  1       -2 0.32546559E-01 0.10584107E+03</pdfrwt>
<totfact> 0.24615596E+03</totfact>
</mgrwt>
</event>
<event>
 4    1  0.4862093E-001  0.8673459E+02  0.7546771E-02  0.1310958E+00
          2   -1    0    0  501    0  0.00000000000E+00  0.00000000000E+00  0.16314618418E+04  0.16314618418E+04  0.00000000000E+00 0. -1.
         -2   -1    0    0    0  501 -0.00000000000E+00 -0.00000000000E+00 -0.57969084906E+01  0.57969084906E+01  0.00000000000E+00 0.  1.
         24    1    1    2    0    0  0.15606093532E+02 -0.28497760495E+02  0.11830783454E+04  0.11862534551E+04  0.80419002446E+02 0. -1.
        -24    1    1    2    0    0 -0.15606093532E+02  0.28497760495E+02  0.44258658797E+03  0.45100529522E+03  0.80419002446E+02 0.  1.
<mgrwt>
<rscale>  0 0.86734586E+02</rscale>
<asrwt>0</asrwt>
<pdfrwt beam="1">  1        2 0.25099376E+00 0.86734586E+02</pdfrwt>
<pdfrwt beam="2">  1       -2 0.89183338E-03 0.86734586E+02</pdfrwt>
<totfact> 0.27207530E+04</totfact>
</mgrwt>
</event>
<event>
 4    1  0.4862093E-001  0.9298498E+02  0.7546771E-02  0.1295780E+00
         -2   -1    0    0    0  501 -0.00000000000E+00  0.00000000000E+00  0.17370432336E+02  0.17370432336E+02  0.00000000000E+00 0.  1.
          2   -1    0    0  501    0  0.00000000000E+00 -0.00000000000E+00 -0.49984839856E+03  0.49984839856E+03  0.00000000000E+00 0. -1.
         24    1    1    2    0    0  0.46078639763E+02  0.74666182765E+01 -0.25797776139E+03  0.27422387342E+03  0.80419002446E+02 0.  0.
        -24    1    1    2    0    0 -0.46078639763E+02 -0.74666182765E+01 -0.22450020484E+03  0.24299495748E+03  0.80419002446E+02 0.  1.
<mgrwt>
<rscale>  0 0.92984985E+02</rscale>
<asrwt>0</asrwt>
<pdfrwt beam="1">  1        2 0.76899767E-01 0.92984985E+02</pdfrwt>
<pdfrwt beam="2">  1       -2 0.26723737E-02 0.92984985E+02</pdfrwt>
<totfact> 0.28184978E+04</totfact>
</mgrwt>
</event>
<event>
 4    1  0.4862093E-001  0.8107121E+02  0.7546771E-02  0.1326039E+00
         -3   -1    0    0    0  501 -0.00000000000E+00  0.00000000000E+00  0.15766334961E+03  0.15766334961E+03  0.00000000000E+00 0.  1.
          3   -1    0    0  501    0  0.00000000000E+00 -0.00000000000E+00 -0.43534370119E+02  0.43534370119E+02  0.00000000000E+00 0. -1.
         24    1    1    2    0    0 -0.34489508593E+00  0.10257025867E+02  0.77786502674E+02  0.11235337772E+03  0.80419002446E+02 0.  1.
        -24    1    1    2    0    0  0.34489508593E+00 -0.10257025867E+02  0.36342476821E+02  0.88844342015E+02  0.80419002446E+02 0. -1.
<mgrwt>
<rscale>  0 0.81071212E+02</rscale>
<asrwt>0</asrwt>
<pdfrwt beam="1">  1        3 0.66975955E-02 0.81071212E+02</pdfrwt>
<pdfrwt beam="2">  1       -3 0.24255900E-01 0.81071212E+02</pdfrwt>
<totfact> 0.46112826E+03</totfact>
</mgrwt>
</event>
<event>
 4    1  0.4862093E-001  0.9754347E+02  0.7546771E-02  0.1285548E+00
         -2   -1    0    0    0  501 -0.00000000000E+00  0.00000000000E+00  0.12275801384E+02  0.12275801384E+02  0.00000000000E+00 0.  1.
          2   -1    0    0  501    0  0.00000000000E+00 -0.00000000000E+00 -0.14617729704E+04  0.14617729704E+04  0.00000000000E+00 0. -1.
         24    1    1    2    0    0 -0.53957753979E+02 -0.11665086809E+02 -0.12299018465E+04  0.12337638678E+04  0.80419002446E+02 0.  0.
        -24    1    1    2    0    0  0.53957753979E+02  0.11665086809E+02 -0.21959532247E+03  0.24028490396E+03  0.80419002446E+02 0.  0.
<mgrwt>
<rscale>  0 0.97543475E+02</rscale>
<asrwt>0</asrwt>
<pdfrwt beam="1">  1        2 0.22488795E+00 0.97543475E+02</pdfrwt>
<pdfrwt beam="2">  1       -2 0.18885865E-02 0.97543475E+02</pdfrwt>
<totfact> 0.11500359E+04</totfact>
</mgrwt>
</event>
