<event>
 4    1  0.3945814E+000  0.1739539E+03  0.7546771E-02  0.1173786E+00
         21   -1    0    0  501  502  0.00000000000E+00  0.00000000000E+00  0.38568289342E+02  0.38568289342E+02  0.00000000000E+00 0. -1.
         21   -1    0    0  502  503 -0.00000000000E+00 -0.00000000000E+00 -0.14377123950E+04  0.14377123950E+04  0.00000000000E+00 0. -1.
          6    1    1    2  501    0  0.84731225325E+00  0.18172952319E+02 -0.20206071810E+03  0.26662428234E+03  0.17300000000E+03 0. -1.
         -6    1    1    2    0  503 -0.84731225325E+00 -0.18172952319E+02 -0.11970833876E+04  0.12096564020E+04  0.17300000000E+03 0. -1.
<mgrwt>
<rscale>  2 0.17395394E+03</rscale>
<asrwt>0</asrwt>
<pdfrwt beam="1">  1       21 0.59335831E-02 0.17395394E+03</pdfrwt>
<pdfrwt beam="2">  1       21 0.22118652E+00 0.17395394E+03</pdfrwt>
<totfact> 0.20192654E+04</totfact>
</mgrwt>
</event>
<event>
 4    1  0.3945814E+000  0.2060880E+03  0.7546771E-02  0.1144702E+00
         21   -1    0    0  503  502  0.00000000000E+00  0.00000000000E+00  0.19362156114E+03  0.19362156114E+03  0.00000000000E+00 0.  1.
         21   -1    0    0  501  503 -0.00000000000E+00 -0.00000000000E+00 -0.22703330281E+03  0.22703330281E+03  0.00000000000E+00 0. -1.
          6    1    1    2  501    0 -0.42708945973E+02  0.10353368752E+03 -0.55380152584E+02  0.21339924981E+03  0.17300000000E+03 0. -1.
         -6    1    1    2    0  502  0.42708945973E+02 -0.10353368752E+03  0.21968410910E+02  0.20725561415E+03  0.17300000000E+03 0.  1.
<mgrwt>
<rscale>  2 0.20608804E+03</rscale>
<asrwt>0</asrwt>
<pdfrwt beam="1">  1       21 0.29787932E-01 0.20608804E+03</pdfrwt>
<pdfrwt beam="2">  1       21 0.34928201E-01 0.20608804E+03</pdfrwt>
<totfact> 0.84890140E+04</totfact>
</mgrwt>
</event>
<event>
 4    1  0.3945814E+000  0.2058263E+03  0.7546771E-02  0.1144914E+00
         21   -1    0    0  501  502  0.00000000000E+00  0.00000000000E+00  0.16358643237E+03  0.16358643237E+03  0.00000000000E+00 0.  1.
         21   -1    0    0  502  503 -0.00000000000E+00 -0.00000000000E+00 -0.47792050230E+03  0.47792050230E+03  0.00000000000E+00 0.  1.
          6    1    1    2  501    0 -0.10580461707E+03  0.35225857872E+02  0.59934789194E+02  0.21437503822E+03  0.17300000000E+03 0.  1.
         -6    1    1    2    0  503  0.10580461707E+03 -0.35225857872E+02 -0.37426885912E+03  0.42713189645E+03  0.17300000000E+03 0.  1.
<mgrwt>
<rscale>  2 0.20582633E+03</rscale>
<asrwt>0</asrwt>
<pdfrwt beam="1">  1       21 0.25167143E-01 0.20582633E+03</pdfrwt>
<pdfrwt beam="2">  1       21 0.73526232E-01 0.20582633E+03</pdfrwt>
<totfact> 0.24664045E+04</totfact>
</mgrwt>
</event>
<event>
 4    1  0.3945814E+000  0.1788169E+03  0.7546771E-02  0.1168953E+00
         21   -1    0    0  503  502  0.00000000000E+00  0.00000000000E+00  0.10577981743E+04  0.10577981743E+04  0.00000000000E+00 0. -1.
         21   -1    0    0  501  503 -0.00000000000E+00 -0.00000000000E+00 -0.32413490265E+02  0.32413490265E+02  0.00000000000E+00 0. -1.
          6    1    1    2  501    0  0.43749444347E+02 -0.11509995284E+02  0.65422528893E+03  0.67822284137E+03  0.17300000000E+03 0.  1.
         -6    1    1    2    0  502 -0.43749444347E+02  0.11509995284E+02  0.37115939515E+03  0.41198882325E+03  0.17300000000E+03 0.  1.
<mgrwt>
<rscale>  2 0.17881693E+03</rscale>
<asrwt>0</asrwt>
<pdfrwt beam="1">  1       21 0.16273815E+00 0.17881693E+03</pdfrwt>
<pdfrwt beam="2">  1       21 0.49866916E-02 0.17881693E+03</pdfrwt>
<totfact> 0.65457477E+04</totfact>
</mgrwt>
</event>
<event>
 4    1  0.3945814E+000  0.2468621E+03  0.7546771E-02  0.1115304E+00
         21   -1    0    0  503  502  0.00000000000E+00  0.00000000000E+00  0.14906903731E+03  0.14906903731E+03  0.00000000000E+00 0.  1.
         21   -1    0    0  501  503 -0.00000000000E+00 -0.00000000000E+00 -0.44173212541E+03  0.44173212541E+03  0.00000000000E+00 0. -1.
          6    1    1    2  501    0 -0.16894569308E+03  0.49691297009E+02 -0.65686516095E+02  0.25545173831E+03  0.17300000000E+03 0.  1.
         -6    1    1    2    0  502  0.16894569308E+03 -0.49691297009E+02 -0.22697657201E+03  0.33534942441E+03  0.17300000000E+03 0. -1.
<mgrwt>
<rscale>  2 0.24686205E+03</rscale>
<asrwt>0</asrwt>
<pdfrwt beam="1">  1       21 0.22933698E-01 0.24686205E+03</pdfrwt>
<pdfrwt beam="2">  1       21 0.67958788E-01 0.24686205E+03</pdfrwt>
<totfact> 0.34358684E+04</totfact>
</mgrwt>
</event>
<event>
 4    1  0.3945814E+000  0.2315291E+03  0.7546771E-02  0.1125568E+00
         21   -1    0    0  503  502  0.00000000000E+00  0.00000000000E+00  0.31080876374E+03  0.31080876374E+03  0.00000000000E+00 0. -1.
         21   -1    0    0  501  503 -0.00000000000E+00 -0.00000000000E+00 -0.22352173120E+03  0.22352173120E+03  0.00000000000E+00 0.  1.
          6    1    1    2  501    0 -0.10165197342E+03 -0.11551453505E+03 -0.84035015683E+02  0.24630796854E+03  0.17300000000E+03 0. -1.
         -6    1    1    2    0  502  0.10165197342E+03  0.11551453505E+03  0.17132204823E+03  0.28802252640E+03  0.17300000000E+03 0.  1.
<mgrwt>
<rscale>  2 0.23152912E+03</rscale>
<asrwt>0</asrwt>
<pdfrwt beam="1">  1       21 0.47816733E-01 0.23152912E+03</pdfrwt>
<pdfrwt beam="2">  1       21 0.34387959E-01 0.23152912E+03</pdfrwt>
<totfact> 0.33405078E+04</totfact>
</mgrwt>
</event>
<event>
 4    1  0.3945814E+000  0.1889993E+03  0.7546771E-02  0.1159367E+00
         21   -1    0    0  503  502  0.00000000000E+00  0.00000000000E+00  0.34798642681E+03  0.34798642681E+03  0.00000000000E+00 0. -1.
         21   -1    0    0  501  503 -0.00000000000E+00 -0.00000000000E+00 -0.14999505314E+03  0.14999505314E+03  0.00000000000E+00 0. -1.
          6    1    1    2  501    0  0.63867263519E+02  0.41384668944E+02 -0.40893195036E+02  0.19337262364E+03  0.17300000000E+03 0. -1.
         -6    1    1    2    0  502 -0.63867263519E+02 -0.41384668944E+02  0.23888456871E+03  0.30460885630E+03  0.17300000000E+03 0. -1.
<mgrwt>
<rscale>  2 0.18899925E+03</rscale>
<asrwt>0</asrwt>
<pdfrwt beam="1">  1       21 0.53536373E-01 0.18899925E+03</pdfrwt>
<pdfrwt beam="2">  1       21 0.23076162E-01 0.18899925E+03</pdfrwt>
<totfact> 0.58335360E+04</totfact>
</mgrwt>
</event>
<event>
 4    1  0.3945814E+000  0.1788156E+03  0.7546771E-02  0.1168954E+00
         21   -1    0    0  501  502  0.00000000000E+00  0.00000000000E+00  0.18939187925E+03  0.18939187925E+03  0.00000000000E+00 0.  1.
         21   -1    0    0  502  503 -0.00000000000E+00 -0.00000000000E+00 -0.20431019020E+03  0.20431019020E+03  0.00000000000E+00 0.  1.
          6    1    1    2  501    0  0.38025750481E+02  0.24496473106E+02  0.74573265888E+02  0.19374263052E+03  0.17300000000E+03 0.  1.
         -6    1    1    2    0  503 -0.38025750481E+02 -0.24496473106E+02 -0.89491576839E+02  0.19995943894E+03  0.17300000000E+03 0.  1.
<mgrwt>
<rscale>  2 0.17881564E+03</rscale>
<asrwt>0</asrwt>
<pdfrwt beam="1">  1       21 0.29137212E-01 0.17881564E+03</pdfrwt>
<pdfrwt beam="2">  1       21 0.31432337E-01 0.17881564E+03</pdfrwt>
<totfact> 0.11027071E+05</totfact>
</mgrwt>
</event>
<event>
 4    1  0.3945814E+000  0.1989032E+03  0.7546771E-02  0.1150668E+00
         21   -1    0    0  501  502  0.00000000000E+00  0.00000000000E+00  0.72557345764E+03  0.72557345764E+03  0.00000000000E+00 0. -1.
         21   -1    0    0  502  503 -0.00000000000E+00 -0.00000000000E+00 -0.17281998747E+03  0.17281998747E+03  0.00000000000E+00 0. -1.
          6    1    1    2  501    0  0.92851973191E+02 -0.31811817750E+02  0.64801573113E+03  0.67785460718E+03  0.17300000000E+03 0. -1.
         -6    1    1    2    0  503 -0.92851973191E+02  0.31811817750E+02 -0.95262260965E+02  0.22053883794E+03  0.17300000000E+03 0. -1.
<mgrwt>
<rscale>  2 0.19890319E+03</rscale>
<asrwt>0</asrwt>
<pdfrwt beam="1">  1       21 0.11162668E+00 0.19890319E+03</pdfrwt>
<pdfrwt beam="2">  1       21 0.26587691E-01 0.19890319E+03</pdfrwt>
<totfact> 0.84457730E+03</totfact>
</mgrwt>
</event>
<event>
 4    1  0.3945814E+000  0.2122954E+03  0.7546771E-02  0.1139761E+00
         21   -1    0    0  503  502  0.00000000000E+00  0.00000000000E+00  0.45770766462E+03  0.45770766462E+03  0.00000000000E+00 0. -1.
         21   -1    0    0  501  503 -0.00000000000E+00 -0.00000000000E+00 -0.10339172575E+03  0.10339172575E+03  0.00000000000E+00 0.  1.
          6    1    1    2  501    0 -0.58143008426E+02  0.10844228132E+03  0.23838385608E+03  0.31921184290E+03  0.17300000000E+03 0.  1.
         -6    1    1    2    0  502  0.58143008426E+02 -0.10844228132E+03  0.11593208279E+03  0.24188754748E+03  0.17300000000E+03 0. -1.
<mgrwt>
<rscale>  2 0.21229540E+03</rscale>
<asrwt>0</asrwt>
<pdfrwt beam="1">  1       21 0.70416562E-01 0.21229540E+03</pdfrwt>
<pdfrwt beam="2">  1       21 0.15906420E-01 0.21229540E+03</pdfrwt>
<totfact> 0.63876100E+04</totfact>
</mgrwt>
</event>
<event>
 4    1  0.3945814E+000  0.1747117E+03  0.7546771E-02  0.1173021E+00
         21   -1    0    0  503  502  0.00000000000E+00  0.00000000000E+00  0.81963550370E+03  0.81963550370E+03  0.00000000000E+00 0. -1.
         21   -1    0    0  501  503 -0.00000000000E+00 -0.00000000000E+00 -0.88904188269E+02  0.88904188269E+02  0.00000000000E+00 0. -1.
          6    1    1    2  501    0  0.24093833851E+02  0.38317610876E+01  0.19073517129E+02  0.17574980591E+03  0.17300000000E+03 0. -1.
         -6    1    1    2    0  502 -0.24093833851E+02 -0.38317610876E+01  0.71165779830E+03  0.73278988606E+03  0.17300000000E+03 0. -1.
<mgrwt>
<rscale>  2 0.17471175E+03</rscale>
<asrwt>0</asrwt>
<pdfrwt beam="1">  1       21 0.12609776E+00 0.17471175E+03</pdfrwt>
<pdfrwt beam="2">  1       21 0.13677568E-01 0.17471175E+03</pdfrwt>
<totfact> 0.21894736E+04</totfact>
</mgrwt>
</event>
<event>
 4    1  0.3945814E+000  0.1876706E+03  0.7546771E-02  0.1160579E+00
         21   -1    0    0  503  502  0.00000000000E+00  0.00000000000E+00  0.31724197556E+03  0.31724197556E+03  0.00000000000E+00 0. -1.
         21   -1    0    0  501  503 -0.00000000000E+00 -0.00000000000E+00 -0.13943858156E+03  0.13943858156E+03  0.00000000000E+00 0. -1.
          6    1    1    2  501    0  0.68603375237E+02  0.24183246283E+02 -0.14182260252E+02  0.18820570927E+03  0.17300000000E+03 0. -1.
         -6    1    1    2    0  502 -0.68603375237E+02 -0.24183246283E+02  0.19198565425E+03  0.26847484786E+03  0.17300000000E+03 0. -1.
<mgrwt>
<rscale>  2 0.18767060E+03</rscale>
<asrwt>0</asrwt>
<pdfrwt beam="1">  1       21 0.48806458E-01 0.18767060E+03</pdfrwt>
<pdfrwt beam="2">  1       21 0.21452090E-01 0.18767060E+03</pdfrwt>
<totfact> 0.81271522E+04</totfact>
</mgrwt>
</event>
<event>
 4    1  0.3945814E+000  0.1874844E+03  0.7546771E-02  0.1160750E+00
         21   -1    0    0  501  502  0.00000000000E+00  0.00000000000E+00  0.11776000399E+03  0.11776000399E+03  0.00000000000E+00 0. -1.
         21   -1    0    0  502  503 -0.00000000000E+00 -0.00000000000E+00 -0.31952986580E+03  0.31952986580E+03  0.00000000000E+00 0. -1.
          6    1    1    2  501    0  0.72234864946E+02 -0.18819123186E+01 -0.44782111018E+02  0.19275854008E+03  0.17300000000E+03 0. -1.
         -6    1    1    2    0  503 -0.72234864946E+02  0.18819123186E+01 -0.15698775079E+03  0.24453132970E+03  0.17300000000E+03 0. -1.
<mgrwt>
<rscale>  2 0.18748445E+03</rscale>
<asrwt>0</asrwt>
<pdfrwt beam="1">  1       21 0.18116924E-01 0.18748445E+03</pdfrwt>
<pdfrwt beam="2">  1       21 0.49158440E-01 0.18748445E+03</pdfrwt>
<totfact> 0.10971799E+05</totfact>
</mgrwt>
</event>
<event>
 4    1  0.3945814E+000  0.2048094E+03  0.7546771E-02  0.1145744E+00
         21   -1    0    0  503  502  0.00000000000E+00  0.00000000000E+00  0.53625494100E+03  0.53625494100E+03  0.00000000000E+00 0.  1.
         21   -1    0    0  501  503 -0.00000000000E+00 -0.00000000000E+00 -0.10523346509E+03  0.10523346509E+03  0.00000000000E+00 0. -1.
          6    1    1    2  501    0  0.29859230694E+02  0.10548142597E+03  0.53009607227E+02  0.21155832137E+03  0.17300000000E+03 0.  1.
         -6    1    1    2    0  502 -0.29859230694E+02 -0.10548142597E+03  0.37801186868E+03  0.42993008472E+03  0.17300000000E+03 0.  1.
<mgrwt>
<rscale>  2 0.20480944E+03</rscale>
<asrwt>0</asrwt>
<pdfrwt beam="1">  1       21 0.82500758E-01 0.20480944E+03</pdfrwt>
<pdfrwt beam="2">  1       21 0.16189764E-01 0.20480944E+03</pdfrwt>
<totfact> 0.43494489E+04</totfact>
</mgrwt>
</event>
<event>
 4    1  0.3945814E+000  0.2040059E+03  0.7546771E-02  0.1146403E+00
         21   -1    0    0  503  502  0.00000000000E+00  0.00000000000E+00  0.32380583751E+02  0.32380583751E+02  0.00000000000E+00 0. -1.
         21   -1    0    0  501  503 -0.00000000000E+00 -0.00000000000E+00 -0.15490279942E+04  0.15490279942E+04  0.00000000000E+00 0. -1.
          6    1    1    2  501    0 -0.84943699919E+02  0.66887801402E+02 -0.10845895280E+04  0.11036090134E+04  0.17300000000E+03 0. -1.
         -6    1    1    2    0  502  0.84943699919E+02 -0.66887801402E+02 -0.43205788243E+03  0.47779956457E+03  0.17300000000E+03 0. -1.
<mgrwt>
<rscale>  2 0.20400591E+03</rscale>
<asrwt>0</asrwt>
<pdfrwt beam="1">  1       21 0.49816272E-02 0.20400591E+03</pdfrwt>
<pdfrwt beam="2">  1       21 0.23831205E+00 0.20400591E+03</pdfrwt>
<totfact> 0.20906644E+04</totfact>
</mgrwt>
</event>
<event>
 4    1  0.3945814E+000  0.3493245E+03  0.7546771E-02  0.1062893E+00
         21   -1    0    0  503  502  0.00000000000E+00  0.00000000000E+00  0.13110787463E+04  0.13110787463E+04  0.00000000000E+00 0.  1.
         21   -1    0    0  501  503 -0.00000000000E+00 -0.00000000000E+00 -0.10050195181E+03  0.10050195181E+03  0.00000000000E+00 0. -1.
          6    1    1    2  501    0 -0.99984023927E+02 -0.28653415800E+03  0.79716262294E+03  0.87034239019E+03  0.17300000000E+03 0.  1.
         -6    1    1    2    0  502  0.99984023927E+02  0.28653415800E+03  0.41341417158E+03  0.54123830797E+03  0.17300000000E+03 0. -1.
<mgrwt>
<rscale>  2 0.34932453E+03</rscale>
<asrwt>0</asrwt>
<pdfrwt beam="1">  1       21 0.20170441E+00 0.34932453E+03</pdfrwt>
<pdfrwt beam="2">  1       21 0.15461840E-01 0.34932453E+03</pdfrwt>
<totfact> 0.43570873E+03</totfact>
</mgrwt>
</event>
<event>
 4    1  0.3945814E+000  0.1920753E+03  0.7546771E-02  0.1156603E+00
         21   -1    0    0  501  502  0.00000000000E+00  0.00000000000E+00  0.96921413432E+02  0.96921413432E+02  0.00000000000E+00 0.  1.
         21   -1    0    0  502  503 -0.00000000000E+00 -0.00000000000E+00 -0.39463483272E+03  0.39463483272E+03  0.00000000000E+00 0. -1.
          6    1    1    2  501    0 -0.16385681042E+02 -0.81825715053E+02 -0.10258603354E+03  0.21775406418E+03  0.17300000000E+03 0.  1.
         -6    1    1    2    0  503  0.16385681042E+02  0.81825715053E+02 -0.19512738575E+03  0.27380218198E+03  0.17300000000E+03 0. -1.
<mgrwt>
<rscale>  2 0.19207535E+03</rscale>
<asrwt>0</asrwt>
<pdfrwt beam="1">  1       21 0.14910987E-01 0.19207535E+03</pdfrwt>
<pdfrwt beam="2">  1       21 0.60713051E-01 0.19207535E+03</pdfrwt>
<totfact> 0.10020675E+05</totfact>
</mgrwt>
</event>
<event>
 4    1  0.3945814E+000  0.2216497E+03  0.7546771E-02  0.1132659E+00
         21   -1    0    0  503  502  0.00000000000E+00  0.00000000000E+00  0.16956154545E+03  0.16956154545E+03  0.00000000000E+00 0.  1.
         21   -1    0    0  501  503 -0.00000000000E+00 -0.00000000000E+00 -0.90027097981E+03  0.90027097981E+03  0.00000000000E+00 0. -1.
          6    1    1    2  501    0  0.60645628282E+02  0.12458607220E+03 -0.80586231949E+03  0.83578864528E+03  0.17300000000E+03 0. -1.
         -6    1    1    2    0  502 -0.60645628282E+02 -0.12458607220E+03  0.75152885118E+02  0.23404387998E+03  0.17300000000E+03 0.  1.
<mgrwt>
<rscale>  2 0.22164968E+03</rscale>
<asrwt>0</asrwt>
<pdfrwt beam="1">  1       21 0.26086391E-01 0.22164968E+03</pdfrwt>
<pdfrwt beam="2">  1       21 0.13850323E+00 0.22164968E+03</pdfrwt>
<totfact> 0.50199976E+03</totfact>
</mgrwt>
</event>
<event>
 4    1  0.3945814E+000  0.2375970E+03  0.7546771E-02  0.1121404E+00
         21   -1    0    0  503  502  0.00000000000E+00  0.00000000000E+00  0.46397931661E+02  0.46397931661E+02  0.00000000000E+00 0.  1.
         21   -1    0    0  501  503 -0.00000000000E+00 -0.00000000000E+00 -0.19601089072E+04  0.19601089072E+04  0.00000000000E+00 0.  1.
          6    1    1    2  501    0  0.12618386967E+03 -0.10296087473E+03 -0.15747079189E+04  0.15925317392E+04  0.17300000000E+03 0.  1.
         -6    1    1    2    0  502 -0.12618386967E+03  0.10296087473E+03 -0.33900305669E+03  0.41397509966E+03  0.17300000000E+03 0.  1.
<mgrwt>
<rscale>  2 0.23759695E+03</rscale>
<asrwt>0</asrwt>
<pdfrwt beam="1">  1       21 0.71381443E-02 0.23759695E+03</pdfrwt>
<pdfrwt beam="2">  1       21 0.30155518E+00 0.23759695E+03</pdfrwt>
<totfact> 0.46614461E+03</totfact>
</mgrwt>
</event>
<event>
 4    1  0.3945814E+000  0.1748707E+03  0.7546771E-02  0.1172862E+00
         21   -1    0    0  501  502  0.00000000000E+00  0.00000000000E+00  0.10061984841E+04  0.10061984841E+04  0.00000000000E+00 0. -1.
         21   -1    0    0  502  503 -0.00000000000E+00 -0.00000000000E+00 -0.31117031949E+03  0.31117031949E+03  0.00000000000E+00 0. -1.
          6    1    1    2  501    0  0.25376485804E+02 -0.26044357107E+01  0.97320603541E+03  0.98879205927E+03  0.17300000000E+03 0. -1.
         -6    1    1    2    0  503 -0.25376485804E+02  0.26044357107E+01 -0.27817787079E+03  0.32857674433E+03  0.17300000000E+03 0. -1.
<mgrwt>
<rscale>  2 0.17487066E+03</rscale>
<asrwt>0</asrwt>
<pdfrwt beam="1">  1       21 0.15479976E+00 0.17487066E+03</pdfrwt>
<pdfrwt beam="2">  1       21 0.47872357E-01 0.17487066E+03</pdfrwt>
<totfact> 0.11692685E+03</totfact>
</mgrwt>
</event>
<event>
 4    1  0.3945814E+000  0.2027779E+03  0.7546771E-02  0.1147416E+00
         21   -1    0    0  503  502  0.00000000000E+00  0.00000000000E+00  0.51294120513E+03  0.51294120513E+03  0.00000000000E+00 0.  1.
         21   -1    0    0  501  503 -0.00000000000E+00 -0.00000000000E+00 -0.98972582771E+02  0.98972582771E+02  0.00000000000E+00 0. -1.
          6    1    1    2  501    0  0.93128447137E+02  0.50169365239E+02  0.73603573725E+02  0.21572287533E+03  0.17300000000E+03 0.  1.
         -6    1    1    2    0  502 -0.93128447137E+02 -0.50169365239E+02  0.34036504864E+03  0.39619091258E+03  0.17300000000E+03 0. -1.
<mgrwt>
<rscale>  2 0.20277789E+03</rscale>
<asrwt>0</asrwt>
<pdfrwt beam="1">  1       21 0.78914030E-01 0.20277789E+03</pdfrwt>
<pdfrwt beam="2">  1       21 0.15226552E-01 0.20277789E+03</pdfrwt>
<totfact> 0.53875786E+04</totfact>
</mgrwt>
</event>
<event>
 4    1  0.3945814E+000  0.1985439E+03  0.7546771E-02  0.1150973E+00
         21   -1    0    0  503  502  0.00000000000E+00  0.00000000000E+00  0.91254826477E+03  0.91254826477E+03  0.00000000000E+00 0. -1.
         21   -1    0    0  501  503 -0.00000000000E+00 -0.00000000000E+00 -0.57602402803E+02  0.57602402803E+02  0.00000000000E+00 0. -1.
          6    1    1    2  501    0  0.83528105778E+02  0.50136971885E+02  0.18489771654E+03  0.27130577949E+03  0.17300000000E+03 0. -1.
         -6    1    1    2    0  502 -0.83528105778E+02 -0.50136971885E+02  0.67004814543E+03  0.69884488808E+03  0.17300000000E+03 0. -1.
<mgrwt>
<rscale>  2 0.19854385E+03</rscale>
<asrwt>0</asrwt>
<pdfrwt beam="1">  1       21 0.14039203E+00 0.19854385E+03</pdfrwt>
<pdfrwt beam="2">  1       21 0.88619088E-02 0.19854385E+03</pdfrwt>
<totfact> 0.35530682E+04</totfact>
</mgrwt>
</event>
<event>
 4    1  0.3945814E+000  0.1803891E+03  0.7546771E-02  0.1167427E+00
         21   -1    0    0  503  502  0.00000000000E+00  0.00000000000E+00  0.85073491823E+03  0.85073491823E+03  0.00000000000E+00 0. -1.
         21   -1    0    0  501  503 -0.00000000000E+00 -0.00000000000E+00 -0.46112574214E+02  0.46112574214E+02  0.00000000000E+00 0. -1.
          6    1    1    2  501    0  0.47892692400E+02  0.17819499548E+02  0.21714008267E+03  0.28229427917E+03  0.17300000000E+03 0. -1.
         -6    1    1    2    0  502 -0.47892692400E+02 -0.17819499548E+02  0.58748226134E+03  0.61455321327E+03  0.17300000000E+03 0. -1.
<mgrwt>
<rscale>  2 0.18038915E+03</rscale>
<asrwt>0</asrwt>
<pdfrwt beam="1">  1       21 0.13088228E+00 0.18038915E+03</pdfrwt>
<pdfrwt beam="2">  1       21 0.70942428E-02 0.18038915E+03</pdfrwt>
<totfact> 0.63199085E+04</totfact>
</mgrwt>
</event>
<event>
 4    1  0.3945814E+000  0.1744835E+03  0.7546771E-02  0.1173251E+00
         21   -1    0    0  503  502  0.00000000000E+00  0.00000000000E+00  0.31926857316E+03  0.31926857316E+03  0.00000000000E+00 0.  1.
         21   -1    0    0  501  503 -0.00000000000E+00 -0.00000000000E+00 -0.26211772235E+03  0.26211772235E+03  0.00000000000E+00 0.  1.
          6    1    1    2  501    0  0.64552188049E+01 -0.21767524554E+02 -0.20328865745E+03  0.26790067791E+03  0.17300000000E+03 0.  1.
         -6    1    1    2    0  502 -0.64552188049E+01  0.21767524554E+02  0.26043950826E+03  0.31348561759E+03  0.17300000000E+03 0.  1.
<mgrwt>
<rscale>  2 0.17448351E+03</rscale>
<asrwt>0</asrwt>
<pdfrwt beam="1">  1       21 0.49118242E-01 0.17448351E+03</pdfrwt>
<pdfrwt beam="2">  1       21 0.40325803E-01 0.17448351E+03</pdfrwt>
<totfact> 0.23679279E+04</totfact>
</mgrwt>
</event>
<event>
 4    1  0.3945814E+000  0.1883981E+03  0.7546771E-02  0.1159914E+00
         21   -1    0    0  503  502  0.00000000000E+00  0.00000000000E+00  0.55325178473E+03  0.55325178473E+03  0.00000000000E+00 0.  1.
         21   -1    0    0  501  503 -0.00000000000E+00 -0.00000000000E+00 -0.67163653983E+02  0.67163653983E+02  0.00000000000E+00 0. -1.
          6    1    1    2  501    0  0.34016555167E+02 -0.66390703857E+02  0.30869996234E+03  0.36164833517E+03  0.17300000000E+03 0.  1.
         -6    1    1    2    0  502 -0.34016555167E+02  0.66390703857E+02  0.17738816841E+03  0.25876710354E+03  0.17300000000E+03 0. -1.
<mgrwt>
<rscale>  2 0.18839812E+03</rscale>
<asrwt>0</asrwt>
<pdfrwt beam="1">  1       21 0.85115656E-01 0.18839812E+03</pdfrwt>
<pdfrwt beam="2">  1       21 0.10332870E-01 0.18839812E+03</pdfrwt>
<totfact> 0.91636051E+04</totfact>
</mgrwt>
</event>
<event>
 4    1  0.3945814E+000  0.2235205E+03  0.7546771E-02  0.1131285E+00
         21   -1    0    0  501  502  0.00000000000E+00  0.00000000000E+00  0.26425834348E+02  0.26425834348E+02  0.00000000000E+00 0.  1.
         21   -1    0    0  502  503 -0.00000000000E+00 -0.00000000000E+00 -0.19115355866E+04  0.19115355866E+04  0.00000000000E+00 0.  1.
          6    1    1    2  501    0 -0.11924102986E+03  0.76249547116E+02 -0.84121552205E+03  0.87040506155E+03  0.17300000000E+03 0.  1.
         -6    1    1    2    0  503  0.11924102986E+03 -0.76249547116E+02 -0.10438942302E+04  0.10675563594E+04  0.17300000000E+03 0.  1.
<mgrwt>
<rscale>  2 0.22352051E+03</rscale>
<asrwt>0</asrwt>
<pdfrwt beam="1">  1       21 0.40655139E-02 0.22352051E+03</pdfrwt>
<pdfrwt beam="2">  1       21 0.29408233E+00 0.22352051E+03</pdfrwt>
<totfact> 0.13663419E+04</totfact>
</mgrwt>
</event>
<event>
 4    1  0.3945814E+000  0.2428664E+03  0.7546771E-02  0.1117898E+00
         21   -1    0    0  501  502  0.00000000000E+00  0.00000000000E+00  0.93925894943E+03  0.93925894943E+03  0.00000000000E+00 0. -1.
         21   -1    0    0  502  503 -0.00000000000E+00 -0.00000000000E+00 -0.74902533131E+02  0.74902533131E+02  0.00000000000E+00 0. -1.
          6    1    1    2  501    0  0.13223960759E+03  0.10755365823E+03  0.63601987369E+03  0.68081229641E+03  0.17300000000E+03 0. -1.
         -6    1    1    2    0  503 -0.13223960759E+03 -0.10755365823E+03  0.22833654261E+03  0.33334918615E+03  0.17300000000E+03 0. -1.
<mgrwt>
<rscale>  2 0.24286643E+03</rscale>
<asrwt>0</asrwt>
<pdfrwt beam="1">  1       21 0.14450137E+00 0.24286643E+03</pdfrwt>
<pdfrwt beam="2">  1       21 0.11523467E-01 0.24286643E+03</pdfrwt>
<totfact> 0.20163688E+04</totfact>
</mgrwt>
</event>
<event>
 4    1  0.3945814E+000  0.2227235E+03  0.7546771E-02  0.1131869E+00
         21   -1    0    0  503  502  0.00000000000E+00  0.00000000000E+00  0.62868592466E+03  0.62868592466E+03  0.00000000000E+00 0. -1.
         21   -1    0    0  501  503 -0.00000000000E+00 -0.00000000000E+00 -0.97074669932E+02  0.97074669932E+02  0.00000000000E+00 0. -1.
          6    1    1    2  501    0 -0.10696510351E+03  0.90748117325E+02  0.10880643494E+03  0.24788020182E+03  0.17300000000E+03 0. -1.
         -6    1    1    2    0  502  0.10696510351E+03 -0.90748117325E+02  0.42280481979E+03  0.47788039278E+03  0.17300000000E+03 0. -1.
<mgrwt>
<rscale>  2 0.22272349E+03</rscale>
<asrwt>0</asrwt>
<pdfrwt beam="1">  1       21 0.96720909E-01 0.22272349E+03</pdfrwt>
<pdfrwt beam="2">  1       21 0.14934565E-01 0.22272349E+03</pdfrwt>
<totfact> 0.34558716E+04</totfact>
</mgrwt>
</event>
<event>
 4    1  0.3945814E+000  0.2011027E+03  0.7546771E-02  0.1148812E+00
         21   -1    0    0  503  502  0.00000000000E+00  0.00000000000E+00  0.64725191732E+02  0.64725191732E+02  0.00000000000E+00 0.  1.
         21   -1    0    0  501  503 -0.00000000000E+00 -0.00000000000E+00 -0.70138507238E+03  0.70138507238E+03  0.00000000000E+00 0.  1.
          6    1    1    2  501    0  0.83917354942E+02  0.58916776044E+02 -0.44488137051E+03  0.48822304614E+03  0.17300000000E+03 0.  1.
         -6    1    1    2    0  502 -0.83917354942E+02 -0.58916776044E+02 -0.19177851014E+03  0.27788721797E+03  0.17300000000E+03 0.  1.
<mgrwt>
<rscale>  2 0.20110273E+03</rscale>
<asrwt>0</asrwt>
<pdfrwt beam="1">  1       21 0.99577215E-02 0.20110273E+03</pdfrwt>
<pdfrwt beam="2">  1       21 0.10790540E+00 0.20110273E+03</pdfrwt>
<totfact> 0.55693420E+04</totfact>
</mgrwt>
</event>
<event>
 4    1  0.3945814E+000  0.1955340E+03  0.7546771E-02  0.1153563E+00
         21   -1    0    0  501  502  0.00000000000E+00  0.00000000000E+00  0.31072369900E+03  0.31072369900E+03  0.00000000000E+00 0. -1.
         21   -1    0    0  502  503 -0.00000000000E+00 -0.00000000000E+00 -0.44783681048E+03  0.44783681048E+03  0.00000000000E+00 0. -1.
          6    1    1    2  501    0 -0.76359792019E+02  0.49736731903E+02  0.25444280595E+03  0.32089671522E+03  0.17300000000E+03 0. -1.
         -6    1    1    2    0  503  0.76359792019E+02 -0.49736731903E+02 -0.39155591743E+03  0.43766379427E+03  0.17300000000E+03 0. -1.
<mgrwt>
<rscale>  2 0.19553404E+03</rscale>
<asrwt>0</asrwt>
<pdfrwt beam="1">  1       21 0.47803646E-01 0.19553404E+03</pdfrwt>
<pdfrwt beam="2">  1       21 0.68897971E-01 0.19553404E+03</pdfrwt>
<totfact> 0.80104484E+03</totfact>
</mgrwt>
</event>
<event>
 4    1  0.3945814E+000  0.1809803E+03  0.7546771E-02  0.1166858E+00
         21   -1    0    0  503  502  0.00000000000E+00  0.00000000000E+00  0.60738042408E+02  0.60738042408E+02  0.00000000000E+00 0.  1.
         21   -1    0    0  501  503 -0.00000000000E+00 -0.00000000000E+00 -0.87932088818E+03  0.87932088818E+03  0.00000000000E+00 0.  1.
          6    1    1    2  501    0  0.43255350228E+02 -0.30884597446E+02 -0.70159000908E+03  0.72455670897E+03  0.17300000000E+03 0.  1.
         -6    1    1    2    0  502 -0.43255350228E+02  0.30884597446E+02 -0.11699283670E+03  0.21550222162E+03  0.17300000000E+03 0.  1.
<mgrwt>
<rscale>  2 0.18098034E+03</rscale>
<asrwt>0</asrwt>
<pdfrwt beam="1">  1       21 0.93443147E-02 0.18098034E+03</pdfrwt>
<pdfrwt beam="2">  1       21 0.13528013E+00 0.18098034E+03</pdfrwt>
<totfact> 0.35978074E+04</totfact>
</mgrwt>
</event>
<event>
 4    1  0.3945814E+000  0.2109769E+03  0.7546771E-02  0.1140795E+00
         21   -1    0    0  503  502  0.00000000000E+00  0.00000000000E+00  0.58230738697E+02  0.58230738697E+02  0.00000000000E+00 0.  1.
         21   -1    0    0  501  503 -0.00000000000E+00 -0.00000000000E+00 -0.10545023683E+04  0.10545023683E+04  0.00000000000E+00 0. -1.
          6    1    1    2  501    0 -0.12071632976E+03 -0.31339657770E+01 -0.78995713561E+03  0.81764511257E+03  0.17300000000E+03 0.  1.
         -6    1    1    2    0  502  0.12071632976E+03  0.31339657770E+01 -0.20631449395E+03  0.29508799438E+03  0.17300000000E+03 0. -1.
<mgrwt>
<rscale>  2 0.21097690E+03</rscale>
<asrwt>0</asrwt>
<pdfrwt beam="1">  1       21 0.89585752E-02 0.21097690E+03</pdfrwt>
<pdfrwt beam="2">  1       21 0.16223113E+00 0.21097690E+03</pdfrwt>
<totfact> 0.23586797E+04</totfact>
</mgrwt>
</event>
<event>
 4    1  0.3945814E+000  0.2169372E+03  0.7546771E-02  0.1136187E+00
         21   -1    0    0  503  502  0.00000000000E+00  0.00000000000E+00  0.23838692422E+03  0.23838692422E+03  0.00000000000E+00 0. -1.
         21   -1    0    0  501  503 -0.00000000000E+00 -0.00000000000E+00 -0.19742965559E+03  0.19742965559E+03  0.00000000000E+00 0. -1.
          6    1    1    2  501    0 -0.11953484932E+03  0.53330657556E+02  0.22191827353E+02  0.21806929275E+03  0.17300000000E+03 0. -1.
         -6    1    1    2    0  502  0.11953484932E+03 -0.53330657556E+02  0.18765441284E+02  0.21774728706E+03  0.17300000000E+03 0. -1.
<mgrwt>
<rscale>  2 0.21693718E+03</rscale>
<asrwt>0</asrwt>
<pdfrwt beam="1">  1       21 0.36674911E-01 0.21693718E+03</pdfrwt>
<pdfrwt beam="2">  1       21 0.30373793E-01 0.21693718E+03</pdfrwt>
<totfact> 0.73809010E+04</totfact>
</mgrwt>
</event>
<event>
 4    1  0.3945814E+000  0.2067703E+03  0.7546771E-02  0.1144149E+00
         21   -1    0    0  503  502  0.00000000000E+00  0.00000000000E+00  0.32527131809E+02  0.32527131809E+02  0.00000000000E+00 0.  1.
         21   -1    0    0  501  503 -0.00000000000E+00 -0.00000000000E+00 -0.17334282262E+04  0.17334282262E+04  0.00000000000E+00 0. -1.
          6    1    1    2  501    0  0.11288411835E+03  0.90632021167E+01 -0.12845743442E+04  0.13011092235E+04  0.17300000000E+03 0. -1.
         -6    1    1    2    0  502 -0.11288411835E+03 -0.90632021167E+01 -0.41632675024E+03  0.46484613452E+03  0.17300000000E+03 0.  1.
<mgrwt>
<rscale>  2 0.20677032E+03</rscale>
<asrwt>0</asrwt>
<pdfrwt beam="1">  1       21 0.50041740E-02 0.20677032E+03</pdfrwt>
<pdfrwt beam="2">  1       21 0.26668127E+00 0.20677032E+03</pdfrwt>
<totfact> 0.14086343E+04</totfact>
</mgrwt>
</event>
<event>
 4    1  0.3945814E+000  0.1969853E+03  0.7546771E-02  0.1152308E+00
         21   -1    0    0  503  502  0.00000000000E+00  0.00000000000E+00  0.17255383872E+04  0.17255383872E+04  0.00000000000E+00 0. -1.
         21   -1    0    0  501  503 -0.00000000000E+00 -0.00000000000E+00 -0.27487529304E+02  0.27487529304E+02  0.00000000000E+00 0. -1.
          6    1    1    2  501    0 -0.91951581684E+02 -0.20472622919E+02  0.47519701880E+03  0.51440784241E+03  0.17300000000E+03 0. -1.
         -6    1    1    2    0  502  0.91951581684E+02  0.20472622919E+02  0.12228538391E+04  0.12386180741E+04  0.17300000000E+03 0. -1.
<mgrwt>
<rscale>  2 0.19698533E+03</rscale>
<asrwt>0</asrwt>
<pdfrwt beam="1">  1       21 0.26546736E+00 0.19698533E+03</pdfrwt>
<pdfrwt beam="2">  1       21 0.42288520E-02 0.19698533E+03</pdfrwt>
<totfact> 0.19199605E+04</totfact>
</mgrwt>
</event>
<event>
 4    1  0.3945814E+000  0.1947311E+03  0.7546771E-02  0.1154262E+00
         21   -1    0    0  503  502  0.00000000000E+00  0.00000000000E+00  0.46246836541E+02  0.46246836541E+02  0.00000000000E+00 0. -1.
         21   -1    0    0  501  503 -0.00000000000E+00 -0.00000000000E+00 -0.12680636379E+04  0.12680636379E+04  0.00000000000E+00 0. -1.
          6    1    1    2  501    0 -0.83854710779E+02  0.30977532117E+02 -0.10015605384E+04  0.10203155061E+04  0.17300000000E+03 0. -1.
         -6    1    1    2    0  502  0.83854710779E+02 -0.30977532117E+02 -0.22025626303E+03  0.29399496836E+03  0.17300000000E+03 0. -1.
<mgrwt>
<rscale>  2 0.19473115E+03</rscale>
<asrwt>0</asrwt>
<pdfrwt beam="1">  1       21 0.71148977E-02 0.19473115E+03</pdfrwt>
<pdfrwt beam="2">  1       21 0.19508672E+00 0.19473115E+03</pdfrwt>
<totfact> 0.21212234E+04</totfact>
</mgrwt>
</event>
<event>
 4    1  0.3945814E+000  0.2022415E+03  0.7546771E-02  0.1147862E+00
         21   -1    0    0  501  502  0.00000000000E+00  0.00000000000E+00  0.20638916344E+02  0.20638916344E+02  0.00000000000E+00 0. -1.
         21   -1    0    0  502  503 -0.00000000000E+00 -0.00000000000E+00 -0.20272745589E+04  0.20272745589E+04  0.00000000000E+00 0. -1.
          6    1    1    2  501    0 -0.34910445938E+02  0.98761712023E+02 -0.11567250757E+04  0.11742719088E+04  0.17300000000E+03 0. -1.
         -6    1    1    2    0  503  0.34910445938E+02 -0.98761712023E+02 -0.84991056680E+03  0.87364156641E+03  0.17300000000E+03 0. -1.
<mgrwt>
<rscale>  2 0.20224148E+03</rscale>
<asrwt>0</asrwt>
<pdfrwt beam="1">  1       21 0.31752174E-02 0.20224148E+03</pdfrwt>
<pdfrwt beam="2">  1       21 0.31188844E+00 0.20224148E+03</pdfrwt>
<totfact> 0.16626536E+04</totfact>
</mgrwt>
</event>
<event>
 4    1  0.3945814E+000  0.3613811E+03  0.7546771E-02  0.1058038E+00
         21   -1    0    0  503  502  0.00000000000E+00  0.00000000000E+00  0.89912415863E+03  0.89912415863E+03  0.00000000000E+00 0. -1.
         21   -1    0    0  501  503 -0.00000000000E+00 -0.00000000000E+00 -0.22726627318E+03  0.22726627318E+03  0.00000000000E+00 0.  1.
          6    1    1    2  501    0  0.82964642726E+01  0.31717260314E+03 -0.24052357633E+01  0.36138909317E+03  0.17300000000E+03 0.  1.
         -6    1    1    2    0  502 -0.82964642726E+01 -0.31717260314E+03  0.67426312121E+03  0.76500133865E+03  0.17300000000E+03 0. -1.
<mgrwt>
<rscale>  2 0.36138109E+03</rscale>
<asrwt>0</asrwt>
<pdfrwt beam="1">  1       21 0.13832679E+00 0.36138109E+03</pdfrwt>
<pdfrwt beam="2">  1       21 0.34964042E-01 0.36138109E+03</pdfrwt>
<totfact> 0.26050242E+03</totfact>
</mgrwt>
</event>
<event>
 4    1  0.3945814E+000  0.3573608E+03  0.7546771E-02  0.1059634E+00
         21   -1    0    0  503  502  0.00000000000E+00  0.00000000000E+00  0.20967096366E+03  0.20967096366E+03  0.00000000000E+00 0.  1.
         21   -1    0    0  501  503 -0.00000000000E+00 -0.00000000000E+00 -0.64335943549E+03  0.64335943549E+03  0.00000000000E+00 0.  1.
          6    1    1    2  501    0  0.31144485864E+03 -0.27925431355E+02 -0.11839456712E+03  0.37646248580E+03  0.17300000000E+03 0.  1.
         -6    1    1    2    0  502 -0.31144485864E+03  0.27925431355E+02 -0.31529390471E+03  0.47656791335E+03  0.17300000000E+03 0.  1.
<mgrwt>
<rscale>  2 0.35736078E+03</rscale>
<asrwt>0</asrwt>
<pdfrwt beam="1">  1       21 0.32257072E-01 0.35736078E+03</pdfrwt>
<pdfrwt beam="2">  1       21 0.98978374E-01 0.35736078E+03</pdfrwt>
<totfact> 0.71042744E+03</totfact>
</mgrwt>
</event>
<event>
 4    1  0.3945814E+000  0.1921097E+03  0.7546771E-02  0.1156572E+00
         21   -1    0    0  503  502  0.00000000000E+00  0.00000000000E+00  0.14474312372E+04  0.14474312372E+04  0.00000000000E+00 0.  1.
         21   -1    0    0  501  503 -0.00000000000E+00 -0.00000000000E+00 -0.26408876883E+02  0.26408876883E+02  0.00000000000E+00 0.  1.
          6    1    1    2  501    0  0.40991089387E+02 -0.72779670866E+02  0.57362813811E+03  0.60494246894E+03  0.17300000000E+03 0.  1.
         -6    1    1    2    0  502 -0.40991089387E+02  0.72779670866E+02  0.84739422222E+03  0.86889764515E+03  0.17300000000E+03 0.  1.
<mgrwt>
<rscale>  2 0.19210973E+03</rscale>
<asrwt>0</asrwt>
<pdfrwt beam="1">  1       21 0.22268167E+00 0.19210973E+03</pdfrwt>
<pdfrwt beam="2">  1       21 0.40629053E-02 0.19210973E+03</pdfrwt>
<totfact> 0.36992181E+04</totfact>
</mgrwt>
</event>
<event>
 4    1  0.3945814E+000  0.1962394E+03  0.7546771E-02  0.1152951E+00
         21   -1    0    0  503  502  0.00000000000E+00  0.00000000000E+00  0.17938917257E+03  0.17938917257E+03  0.00000000000E+00 0.  1.
         21   -1    0    0  501  503 -0.00000000000E+00 -0.00000000000E+00 -0.22447600401E+03  0.22447600401E+03  0.00000000000E+00 0. -1.
          6    1    1    2  501    0 -0.41009527116E+02  0.83060834329E+02 -0.64743846700E+02  0.20664377368E+03  0.17300000000E+03 0. -1.
         -6    1    1    2    0  502  0.41009527116E+02 -0.83060834329E+02  0.19657015259E+02  0.19722140290E+03  0.17300000000E+03 0.  1.
<mgrwt>
<rscale>  2 0.19623935E+03</rscale>
<asrwt>0</asrwt>
<pdfrwt beam="1">  1       21 0.27598334E-01 0.19623935E+03</pdfrwt>
<pdfrwt beam="2">  1       21 0.34534770E-01 0.19623935E+03</pdfrwt>
<totfact> 0.10110091E+05</totfact>
</mgrwt>
</event>
<event>
 4    1  0.3945814E+000  0.1903362E+03  0.7546771E-02  0.1158158E+00
         21   -1    0    0  503  502  0.00000000000E+00  0.00000000000E+00  0.18392384101E+02  0.18392384101E+02  0.00000000000E+00 0. -1.
         21   -1    0    0  501  503 -0.00000000000E+00 -0.00000000000E+00 -0.29238305583E+04  0.29238305583E+04  0.00000000000E+00 0.  1.
          6    1    1    2  501    0  0.72056955463E+02 -0.33266359298E+02 -0.22930855745E+04  0.23009713835E+04  0.17300000000E+03 0.  1.
         -6    1    1    2    0  502 -0.72056955463E+02  0.33266359298E+02 -0.61235259966E+03  0.64125155891E+03  0.17300000000E+03 0. -1.
<mgrwt>
<rscale>  2 0.19033616E+03</rscale>
<asrwt>0</asrwt>
<pdfrwt beam="1">  1       21 0.28295992E-02 0.19033616E+03</pdfrwt>
<pdfrwt beam="2">  1       21 0.44981983E+00 0.19033616E+03</pdfrwt>
<totfact> 0.29177758E+03</totfact>
</mgrwt>
</event>
<event>
 4    1  0.3945814E+000  0.2024992E+03  0.7546771E-02  0.1147647E+00
         21   -1    0    0  503  502  0.00000000000E+00  0.00000000000E+00  0.61159472747E+03  0.61159472747E+03  0.00000000000E+00 0. -1.
         21   -1    0    0  501  503 -0.00000000000E+00 -0.00000000000E+00 -0.19467162739E+03  0.19467162739E+03  0.00000000000E+00 0. -1.
          6    1    1    2  501    0  0.60082317032E+02  0.86411937449E+02 -0.11794854067E+03  0.23434539893E+03  0.17300000000E+03 0. -1.
         -6    1    1    2    0  502 -0.60082317032E+02 -0.86411937449E+02  0.53487164074E+03  0.57192095592E+03  0.17300000000E+03 0. -1.
<mgrwt>
<rscale>  2 0.20249915E+03</rscale>
<asrwt>0</asrwt>
<pdfrwt beam="1">  1       21 0.94091496E-01 0.20249915E+03</pdfrwt>
<pdfrwt beam="2">  1       21 0.29949481E-01 0.20249915E+03</pdfrwt>
<totfact> 0.10059243E+04</totfact>
</mgrwt>
</event>
<event>
 4    1  0.3945814E+000  0.1937947E+03  0.7546771E-02  0.1155083E+00
         21   -1    0    0  501  502  0.00000000000E+00  0.00000000000E+00  0.14185494044E+03  0.14185494044E+03  0.00000000000E+00 0. -1.
         21   -1    0    0  502  503 -0.00000000000E+00 -0.00000000000E+00 -0.79254458248E+03  0.79254458248E+03  0.00000000000E+00 0. -1.
          6    1    1    2  501    0  0.22516115438E+02 -0.84382521471E+02  0.55916180857E+02  0.20170028425E+03  0.17300000000E+03 0. -1.
         -6    1    1    2    0  503 -0.22516115438E+02  0.84382521471E+02 -0.70660582290E+03  0.73269923866E+03  0.17300000000E+03 0. -1.
<mgrwt>
<rscale>  2 0.19379470E+03</rscale>
<asrwt>0</asrwt>
<pdfrwt beam="1">  1       21 0.21823837E-01 0.19379470E+03</pdfrwt>
<pdfrwt beam="2">  1       21 0.12192993E+00 0.19379470E+03</pdfrwt>
<totfact> 0.99395242E+03</totfact>
</mgrwt>
</event>
<event>
 4    1  0.3945814E+000  0.2044134E+03  0.7546771E-02  0.1146068E+00
         21   -1    0    0  503  502  0.00000000000E+00  0.00000000000E+00  0.26282455239E+03  0.26282455239E+03  0.00000000000E+00 0.  1.
         21   -1    0    0  501  503 -0.00000000000E+00 -0.00000000000E+00 -0.23061395359E+03  0.23061395359E+03  0.00000000000E+00 0.  1.
          6    1    1    2  501    0  0.56495927451E+02 -0.93080888344E+02 -0.12139645633E+03  0.23774343567E+03  0.17300000000E+03 0.  1.
         -6    1    1    2    0  502 -0.56495927451E+02  0.93080888344E+02  0.15360705513E+03  0.25569507031E+03  0.17300000000E+03 0.  1.
<mgrwt>
<rscale>  2 0.20441341E+03</rscale>
<asrwt>0</asrwt>
<pdfrwt beam="1">  1       21 0.40434546E-01 0.20441341E+03</pdfrwt>
<pdfrwt beam="2">  1       21 0.35479070E-01 0.20441341E+03</pdfrwt>
<totfact> 0.44876617E+04</totfact>
</mgrwt>
</event>
<event>
 4    1  0.3945814E+000  0.1799222E+03  0.7546771E-02  0.1167878E+00
         21   -1    0    0  503  502  0.00000000000E+00  0.00000000000E+00  0.10717331215E+03  0.10717331215E+03  0.00000000000E+00 0. -1.
         21   -1    0    0  501  503 -0.00000000000E+00 -0.00000000000E+00 -0.57023128824E+03  0.57023128824E+03  0.00000000000E+00 0. -1.
          6    1    1    2  501    0  0.48598021933E+02  0.90124854881E+01 -0.46380515033E+03  0.49748086405E+03  0.17300000000E+03 0. -1.
         -6    1    1    2    0  502 -0.48598021933E+02 -0.90124854881E+01  0.74717423333E+00  0.17992373634E+03  0.17300000000E+03 0. -1.
<mgrwt>
<rscale>  2 0.17992218E+03</rscale>
<asrwt>0</asrwt>
<pdfrwt beam="1">  1       21 0.16488202E-01 0.17992218E+03</pdfrwt>
<pdfrwt beam="2">  1       21 0.87727890E-01 0.17992218E+03</pdfrwt>
<totfact> 0.37024887E+04</totfact>
</mgrwt>
</event>
<event>
 4    1  0.3945814E+000  0.2395386E+03  0.7546771E-02  0.1120101E+00
         21   -1    0    0  503  502  0.00000000000E+00  0.00000000000E+00  0.51268004412E+03  0.51268004412E+03  0.00000000000E+00 0. -1.
         21   -1    0    0  501  503 -0.00000000000E+00 -0.00000000000E+00 -0.22362913413E+03  0.22362913413E+03  0.00000000000E+00 0. -1.
          6    1    1    2  501    0  0.16154276865E+03  0.36792401838E+02 -0.11567730590E+03  0.26600749245E+03  0.17300000000E+03 0. -1.
         -6    1    1    2    0  502 -0.16154276865E+03 -0.36792401838E+02  0.40472821589E+03  0.47030168580E+03  0.17300000000E+03 0. -1.
<mgrwt>
<rscale>  2 0.23953861E+03</rscale>
<asrwt>0</asrwt>
<pdfrwt beam="1">  1       21 0.78873852E-01 0.23953861E+03</pdfrwt>
<pdfrwt beam="2">  1       21 0.34404482E-01 0.23953861E+03</pdfrwt>
<totfact> 0.11225618E+04</totfact>
</mgrwt>
</event>
<event>
 4    1  0.3945814E+000  0.2534602E+03  0.7546771E-02  0.1111137E+00
         21   -1    0    0  503  502  0.00000000000E+00  0.00000000000E+00  0.25787378098E+03  0.25787378098E+03  0.00000000000E+00 0. -1.
         21   -1    0    0  501  503 -0.00000000000E+00 -0.00000000000E+00 -0.43951927631E+03  0.43951927631E+03  0.00000000000E+00 0. -1.
          6    1    1    2  501    0 -0.26897747299E+02  0.18327459142E+03 -0.32032601982E+03  0.40847377351E+03  0.17300000000E+03 0. -1.
         -6    1    1    2    0  502  0.26897747299E+02 -0.18327459142E+03  0.13868052449E+03  0.28891928378E+03  0.17300000000E+03 0. -1.
<mgrwt>
<rscale>  2 0.25346018E+03</rscale>
<asrwt>0</asrwt>
<pdfrwt beam="1">  1       21 0.39672890E-01 0.25346018E+03</pdfrwt>
<pdfrwt beam="2">  1       21 0.67618349E-01 0.25346018E+03</pdfrwt>
<totfact> 0.11805359E+04</totfact>
</mgrwt>
</event>
<event>
 4    1  0.3945814E+000  0.2268395E+03  0.7546771E-02  0.1128884E+00
         21   -1    0    0  503  502  0.00000000000E+00  0.00000000000E+00  0.55652097472E+03  0.55652097472E+03  0.00000000000E+00 0. -1.
         21   -1    0    0  501  503 -0.00000000000E+00 -0.00000000000E+00 -0.99294254295E+02  0.99294254295E+02  0.00000000000E+00 0.  1.
          6    1    1    2  501    0 -0.10580753773E+03 -0.10164605909E+03  0.14258888210E+03  0.26793235278E+03  0.17300000000E+03 0.  1.
         -6    1    1    2    0  502  0.10580753773E+03  0.10164605909E+03  0.31463783832E+03  0.38788287623E+03  0.17300000000E+03 0. -1.
<mgrwt>
<rscale>  2 0.22683949E+03</rscale>
<asrwt>0</asrwt>
<pdfrwt beam="1">  1       21 0.85618610E-01 0.22683949E+03</pdfrwt>
<pdfrwt beam="2">  1       21 0.15276039E-01 0.22683949E+03</pdfrwt>
<totfact> 0.43968525E+04</totfact>
</mgrwt>
</event>
<event>
 4    1  0.3945814E+000  0.2166522E+03  0.7546771E-02  0.1136404E+00
         21   -1    0    0  503  502  0.00000000000E+00  0.00000000000E+00  0.70159931806E+03  0.70159931806E+03  0.00000000000E+00 0.  1.
         21   -1    0    0  501  503 -0.00000000000E+00 -0.00000000000E+00 -0.73973901278E+02  0.73973901278E+02  0.00000000000E+00 0. -1.
          6    1    1    2  501    0 -0.82653340127E+02 -0.10088415613E+03  0.43371592436E+03  0.48481717238E+03  0.17300000000E+03 0. -1.
         -6    1    1    2    0  502  0.82653340127E+02  0.10088415613E+03  0.19390949242E+03  0.29075604696E+03  0.17300000000E+03 0.  1.
<mgrwt>
<rscale>  2 0.21665223E+03</rscale>
<asrwt>0</asrwt>
<pdfrwt beam="1">  1       21 0.10793835E+00 0.21665223E+03</pdfrwt>
<pdfrwt beam="2">  1       21 0.11380601E-01 0.21665223E+03</pdfrwt>
<totfact> 0.43549050E+04</totfact>
</mgrwt>
</event>
<event>
 4    1  0.3945814E+000  0.2480730E+03  0.7546771E-02  0.1114529E+00
         21   -1    0    0  501  502  0.00000000000E+00  0.00000000000E+00  0.77627998866E+03  0.77627998866E+03  0.00000000000E+00 0. -1.
         21   -1    0    0  502  503 -0.00000000000E+00 -0.00000000000E+00 -0.84419656975E+02  0.84419656975E+02  0.00000000000E+00 0.  1.
          6    1    1    2  501    0  0.11743266413E+03 -0.13349451159E+03  0.45215948113E+03  0.51574064374E+03  0.17300000000E+03 0. -1.
         -6    1    1    2    0  503 -0.11743266413E+03  0.13349451159E+03  0.23970085055E+03  0.34495900189E+03  0.17300000000E+03 0.  1.
<mgrwt>
<rscale>  2 0.24807300E+03</rscale>
<asrwt>0</asrwt>
<pdfrwt beam="1">  1       21 0.11942769E+00 0.24807300E+03</pdfrwt>
<pdfrwt beam="2">  1       21 0.12987640E-01 0.24807300E+03</pdfrwt>
<totfact> 0.26390793E+04</totfact>
</mgrwt>
</event>
<event>
 4    1  0.3945814E+000  0.2136544E+03  0.7546771E-02  0.1138704E+00
         21   -1    0    0  503  502  0.00000000000E+00  0.00000000000E+00  0.12155318649E+03  0.12155318649E+03  0.00000000000E+00 0.  1.
         21   -1    0    0  501  503 -0.00000000000E+00 -0.00000000000E+00 -0.41948016330E+03  0.41948016330E+03  0.00000000000E+00 0.  1.
          6    1    1    2  501    0 -0.11556841729E+03 -0.48612290214E+02 -0.61411932807E+02  0.22230528407E+03  0.17300000000E+03 0.  1.
         -6    1    1    2    0  502  0.11556841729E+03  0.48612290214E+02 -0.23651504400E+03  0.31872806572E+03  0.17300000000E+03 0.  1.
<mgrwt>
<rscale>  2 0.21365443E+03</rscale>
<asrwt>0</asrwt>
<pdfrwt beam="1">  1       21 0.18700491E-01 0.21365443E+03</pdfrwt>
<pdfrwt beam="2">  1       21 0.64535409E-01 0.21365443E+03</pdfrwt>
<totfact> 0.57342978E+04</totfact>
</mgrwt>
</event>
<event>
 4    1  0.3945814E+000  0.2064319E+03  0.7546771E-02  0.1144423E+00
         21   -1    0    0  501  502  0.00000000000E+00  0.00000000000E+00  0.19938719547E+04  0.19938719547E+04  0.00000000000E+00 0.  1.
         21   -1    0    0  502  503 -0.00000000000E+00 -0.00000000000E+00 -0.26643667420E+02  0.26643667420E+02  0.00000000000E+00 0.  1.
          6    1    1    2  501    0 -0.10730939359E+03 -0.34202865948E+02  0.14329657227E+04  0.14477585795E+04  0.17300000000E+03 0.  1.
         -6    1    1    2    0  503  0.10730939359E+03  0.34202865948E+02  0.53426256456E+03  0.57275704263E+03  0.17300000000E+03 0.  1.
<mgrwt>
<rscale>  2 0.20643193E+03</rscale>
<asrwt>0</asrwt>
<pdfrwt beam="1">  1       21 0.30674941E+00 0.20643193E+03</pdfrwt>
<pdfrwt beam="2">  1       21 0.40990273E-02 0.20643193E+03</pdfrwt>
<totfact> 0.11571356E+04</totfact>
</mgrwt>
</event>
<event>
 4    1  0.3945814E+000  0.1846580E+03  0.7546771E-02  0.1163370E+00
         21   -1    0    0  503  502  0.00000000000E+00  0.00000000000E+00  0.10374709525E+03  0.10374709525E+03  0.00000000000E+00 0. -1.
         21   -1    0    0  501  503 -0.00000000000E+00 -0.00000000000E+00 -0.43907672857E+03  0.43907672857E+03  0.00000000000E+00 0. -1.
          6    1    1    2  501    0 -0.43249864250E+02  0.47948265066E+02 -0.30376412368E+03  0.35548731302E+03  0.17300000000E+03 0. -1.
         -6    1    1    2    0  502  0.43249864250E+02 -0.47948265066E+02 -0.31565509648E+02  0.18733651080E+03  0.17300000000E+03 0. -1.
<mgrwt>
<rscale>  2 0.18465803E+03</rscale>
<asrwt>0</asrwt>
<pdfrwt beam="1">  1       21 0.15961091E-01 0.18465803E+03</pdfrwt>
<pdfrwt beam="2">  1       21 0.67550267E-01 0.18465803E+03</pdfrwt>
<totfact> 0.70423097E+04</totfact>
</mgrwt>
</event>
<event>
 4    1  0.3945814E+000  0.2003820E+03  0.7546771E-02  0.1149417E+00
         21   -1    0    0  503  502  0.00000000000E+00  0.00000000000E+00  0.15467757729E+03  0.15467757729E+03  0.00000000000E+00 0. -1.
         21   -1    0    0  501  503 -0.00000000000E+00 -0.00000000000E+00 -0.80957889793E+03  0.80957889793E+03  0.00000000000E+00 0. -1.
          6    1    1    2  501    0 -0.72529945884E+02 -0.70451134570E+02 -0.72483378603E+03  0.75202192307E+03  0.17300000000E+03 0. -1.
         -6    1    1    2    0  502  0.72529945884E+02  0.70451134570E+02  0.69932465388E+02  0.21223455215E+03  0.17300000000E+03 0. -1.
<mgrwt>
<rscale>  2 0.20038202E+03</rscale>
<asrwt>0</asrwt>
<pdfrwt beam="1">  1       21 0.23796550E-01 0.20038202E+03</pdfrwt>
<pdfrwt beam="2">  1       21 0.12455060E+00 0.20038202E+03</pdfrwt>
<totfact> 0.79623413E+03</totfact>
</mgrwt>
</event>
<event>
 4    1  0.3945814E+000  0.1740410E+03  0.7546771E-02  0.1173698E+00
         21   -1    0    0  503  502  0.00000000000E+00  0.00000000000E+00  0.11037719375E+03  0.11037719375E+03  0.00000000000E+00 0. -1.
         21   -1    0    0  501  503 -0.00000000000E+00 -0.00000000000E+00 -0.32900101995E+03  0.32900101995E+03  0.00000000000E+00 0. -1.
          6    1    1    2  501    0 -0.15038308782E+02  0.11624305920E+02 -0.19878869029E+03  0.26421055734E+03  0.17300000000E+03 0. -1.
         -6    1    1    2    0  502  0.15038308782E+02 -0.11624305920E+02 -0.19835135907E+02  0.17516765636E+03  0.17300000000E+03 0. -1.
<mgrwt>
<rscale>  2 0.17404102E+03</rscale>
<asrwt>0</asrwt>
<pdfrwt beam="1">  1       21 0.16981107E-01 0.17404102E+03</pdfrwt>
<pdfrwt beam="2">  1       21 0.50615542E-01 0.17404102E+03</pdfrwt>
<totfact> 0.11690069E+05</totfact>
</mgrwt>
</event>
<event>
 4    1  0.3945814E+000  0.2220218E+03  0.7546771E-02  0.1132385E+00
         21   -1    0    0  503  502  0.00000000000E+00  0.00000000000E+00  0.15482367079E+03  0.15482367079E+03  0.00000000000E+00 0. -1.
         21   -1    0    0  501  503 -0.00000000000E+00 -0.00000000000E+00 -0.38983159188E+03  0.38983159188E+03  0.00000000000E+00 0.  1.
          6    1    1    2  501    0 -0.12360563512E+03  0.63924255171E+02 -0.23408862283E+03  0.32263159605E+03  0.17300000000E+03 0.  1.
         -6    1    1    2    0  502  0.12360563512E+03 -0.63924255171E+02 -0.91929825674E+00  0.22202366662E+03  0.17300000000E+03 0. -1.
<mgrwt>
<rscale>  2 0.22202176E+03</rscale>
<asrwt>0</asrwt>
<pdfrwt beam="1">  1       21 0.23819026E-01 0.22202176E+03</pdfrwt>
<pdfrwt beam="2">  1       21 0.59974091E-01 0.22202176E+03</pdfrwt>
<totfact> 0.42456897E+04</totfact>
</mgrwt>
</event>
<event>
 4    1  0.3945814E+000  0.2059136E+03  0.7546771E-02  0.1144843E+00
         21   -1    0    0  503  502  0.00000000000E+00  0.00000000000E+00  0.37254383430E+03  0.37254383430E+03  0.00000000000E+00 0.  1.
         21   -1    0    0  501  503 -0.00000000000E+00 -0.00000000000E+00 -0.50864468867E+03  0.50864468867E+03  0.00000000000E+00 0. -1.
          6    1    1    2  501    0 -0.85143825270E+02  0.72263030624E+02 -0.45623426942E+03  0.50054982287E+03  0.17300000000E+03 0. -1.
         -6    1    1    2    0  502  0.85143825270E+02 -0.72263030624E+02  0.32013341505E+03  0.38063870010E+03  0.17300000000E+03 0.  1.
<mgrwt>
<rscale>  2 0.20591361E+03</rscale>
<asrwt>0</asrwt>
<pdfrwt beam="1">  1       21 0.57314437E-01 0.20591361E+03</pdfrwt>
<pdfrwt beam="2">  1       21 0.78253028E-01 0.20591361E+03</pdfrwt>
<totfact> 0.40876184E+03</totfact>
</mgrwt>
</event>
<event>
 4    1  0.3945814E+000  0.2209223E+03  0.7546771E-02  0.1133197E+00
         21   -1    0    0  501  502  0.00000000000E+00  0.00000000000E+00  0.29990061108E+03  0.29990061108E+03  0.00000000000E+00 0.  1.
         21   -1    0    0  502  503 -0.00000000000E+00 -0.00000000000E+00 -0.22244943212E+03  0.22244943212E+03  0.00000000000E+00 0.  1.
          6    1    1    2  501    0 -0.29505985021E+02  0.13419032794E+03  0.17403484140E+03  0.28123793003E+03  0.17300000000E+03 0.  1.
         -6    1    1    2    0  503  0.29505985021E+02 -0.13419032794E+03 -0.96583662438E+02  0.24111211317E+03  0.17300000000E+03 0.  1.
<mgrwt>
<rscale>  2 0.22092227E+03</rscale>
<asrwt>0</asrwt>
<pdfrwt beam="1">  1       21 0.46138556E-01 0.22092227E+03</pdfrwt>
<pdfrwt beam="2">  1       21 0.34222989E-01 0.22092227E+03</pdfrwt>
<totfact> 0.36503936E+04</totfact>
</mgrwt>
</event>
<event>
 4    1  0.3945814E+000  0.1993417E+03  0.7546771E-02  0.1150296E+00
         21   -1    0    0  503  502  0.00000000000E+00  0.00000000000E+00  0.74435056448E+02  0.74435056448E+02  0.00000000000E+00 0. -1.
         21   -1    0    0  501  503 -0.00000000000E+00 -0.00000000000E+00 -0.55721956930E+03  0.55721956930E+03  0.00000000000E+00 0.  1.
          6    1    1    2  501    0 -0.68063146659E+02  0.71941091129E+02 -0.17671268300E+03  0.26639160058E+03  0.17300000000E+03 0.  1.
         -6    1    1    2    0  502  0.68063146659E+02 -0.71941091129E+02 -0.30607182986E+03  0.36526302517E+03  0.17300000000E+03 0.  1.
<mgrwt>
<rscale>  2 0.19934170E+03</rscale>
<asrwt>0</asrwt>
<pdfrwt beam="1">  1       21 0.11451547E-01 0.19934170E+03</pdfrwt>
<pdfrwt beam="2">  1       21 0.85726085E-01 0.19934170E+03</pdfrwt>
<totfact> 0.74741032E+04</totfact>
</mgrwt>
</event>
<event>
 4    1  0.3945814E+000  0.2755627E+03  0.7546771E-02  0.1098137E+00
         21   -1    0    0  501  502  0.00000000000E+00  0.00000000000E+00  0.19405859062E+03  0.19405859062E+03  0.00000000000E+00 0. -1.
         21   -1    0    0  502  503 -0.00000000000E+00 -0.00000000000E+00 -0.15754660319E+04  0.15754660319E+04  0.00000000000E+00 0.  1.
          6    1    1    2  501    0  0.16901312379E+03  0.13206196727E+03  0.76355158162E+02  0.28594564062E+03  0.17300000000E+03 0. -1.
         -6    1    1    2    0  503 -0.16901312379E+03 -0.13206196727E+03 -0.14577625994E+04  0.14835789819E+04  0.17300000000E+03 0.  1.
<mgrwt>
<rscale>  2 0.27556270E+03</rscale>
<asrwt>0</asrwt>
<pdfrwt beam="1">  1       21 0.29855168E-01 0.27556270E+03</pdfrwt>
<pdfrwt beam="2">  1       21 0.24237938E+00 0.27556270E+03</pdfrwt>
<totfact> 0.72711596E+02</totfact>
</mgrwt>
</event>
<event>
 4    1  0.3945814E+000  0.2046084E+03  0.7546771E-02  0.1145908E+00
         21   -1    0    0  501  502  0.00000000000E+00  0.00000000000E+00  0.33900129242E+03  0.33900129242E+03  0.00000000000E+00 0. -1.
         21   -1    0    0  502  503 -0.00000000000E+00 -0.00000000000E+00 -0.21019550991E+03  0.21019550991E+03  0.00000000000E+00 0. -1.
          6    1    1    2  501    0 -0.10197159117E+03  0.39209350877E+02  0.24076284028E+03  0.31596095306E+03  0.17300000000E+03 0. -1.
         -6    1    1    2    0  503  0.10197159117E+03 -0.39209350877E+02 -0.11195705777E+03  0.23323584927E+03  0.17300000000E+03 0. -1.
<mgrwt>
<rscale>  2 0.20460835E+03</rscale>
<asrwt>0</asrwt>
<pdfrwt beam="1">  1       21 0.52154045E-01 0.20460835E+03</pdfrwt>
<pdfrwt beam="2">  1       21 0.32337771E-01 0.20460835E+03</pdfrwt>
<totfact> 0.31889601E+04</totfact>
</mgrwt>
</event>
<event>
 4    1  0.3945814E+000  0.3063659E+03  0.7546771E-02  0.1082101E+00
         21   -1    0    0  501  502  0.00000000000E+00  0.00000000000E+00  0.10599325232E+04  0.10599325232E+04  0.00000000000E+00 0. -1.
         21   -1    0    0  502  503 -0.00000000000E+00 -0.00000000000E+00 -0.89585425396E+02  0.89585425396E+02  0.00000000000E+00 0.  1.
          6    1    1    2  501    0 -0.14912590052E+02 -0.25240581994E+03  0.42346852583E+03  0.52267167098E+03  0.17300000000E+03 0.  1.
         -6    1    1    2    0  503  0.14912590052E+02  0.25240581994E+03  0.54687857203E+03  0.62684627767E+03  0.17300000000E+03 0. -1.
<mgrwt>
<rscale>  2 0.30636593E+03</rscale>
<asrwt>0</asrwt>
<pdfrwt beam="1">  1       21 0.16306653E+00 0.30636593E+03</pdfrwt>
<pdfrwt beam="2">  1       21 0.13782374E-01 0.30636593E+03</pdfrwt>
<totfact> 0.10188962E+04</totfact>
</mgrwt>
</event>
<event>
 4    1  0.3945814E+000  0.1988710E+03  0.7546771E-02  0.1150695E+00
         21   -1    0    0  501  502  0.00000000000E+00  0.00000000000E+00  0.50780832382E+03  0.50780832382E+03  0.00000000000E+00 0. -1.
         21   -1    0    0  502  503 -0.00000000000E+00 -0.00000000000E+00 -0.92650724871E+02  0.92650724871E+02  0.00000000000E+00 0.  1.
          6    1    1    2  501    0  0.66412500519E+02  0.72180688701E+02  0.32744168566E+03  0.38310276631E+03  0.17300000000E+03 0. -1.
         -6    1    1    2    0  503 -0.66412500519E+02 -0.72180688701E+02  0.87715913289E+02  0.21735628238E+03  0.17300000000E+03 0. -1.
<mgrwt>
<rscale>  2 0.19887099E+03</rscale>
<asrwt>0</asrwt>
<pdfrwt beam="1">  1       21 0.78124356E-01 0.19887099E+03</pdfrwt>
<pdfrwt beam="2">  1       21 0.14253958E-01 0.19887099E+03</pdfrwt>
<totfact> 0.62263628E+04</totfact>
</mgrwt>
</event>
<event>
 4    1  0.3945814E+000  0.1930982E+03  0.7546771E-02  0.1155696E+00
         21   -1    0    0  503  502  0.00000000000E+00  0.00000000000E+00  0.55554797437E+02  0.55554797437E+02  0.00000000000E+00 0.  1.
         21   -1    0    0  501  503 -0.00000000000E+00 -0.00000000000E+00 -0.71376865300E+03  0.71376865300E+03  0.00000000000E+00 0. -1.
          6    1    1    2  501    0  0.43168807853E+02  0.74123980085E+02 -0.42307495217E+03  0.46505841090E+03  0.17300000000E+03 0. -1.
         -6    1    1    2    0  502 -0.43168807853E+02 -0.74123980085E+02 -0.23513890338E+03  0.30426503953E+03  0.17300000000E+03 0. -1.
<mgrwt>
<rscale>  2 0.19309819E+03</rscale>
<asrwt>0</asrwt>
<pdfrwt beam="1">  1       21 0.85468926E-02 0.19309819E+03</pdfrwt>
<pdfrwt beam="2">  1       21 0.10981055E+00 0.19309819E+03</pdfrwt>
<totfact> 0.70117476E+04</totfact>
</mgrwt>
</event>
<event>
 4    1  0.3945814E+000  0.1767650E+03  0.7546771E-02  0.1170971E+00
         21   -1    0    0  503  502  0.00000000000E+00  0.00000000000E+00  0.47130944463E+02  0.47130944463E+02  0.00000000000E+00 0. -1.
         21   -1    0    0  501  503 -0.00000000000E+00 -0.00000000000E+00 -0.11169437877E+04  0.11169437877E+04  0.00000000000E+00 0. -1.
          6    1    1    2  501    0 -0.36001179661E+02  0.45594423413E+01 -0.90597652361E+03  0.92305976772E+03  0.17300000000E+03 0. -1.
         -6    1    1    2    0  502  0.36001179661E+02 -0.45594423413E+01 -0.16383631959E+03  0.24101496441E+03  0.17300000000E+03 0. -1.
<mgrwt>
<rscale>  2 0.17676502E+03</rscale>
<asrwt>0</asrwt>
<pdfrwt beam="1">  1       21 0.72509144E-02 0.17676502E+03</pdfrwt>
<pdfrwt beam="2">  1       21 0.17183751E+00 0.17676502E+03</pdfrwt>
<totfact> 0.29798975E+04</totfact>
</mgrwt>
</event>
<event>
 4    1  0.3945814E+000  0.2001372E+03  0.7546771E-02  0.1149623E+00
         21   -1    0    0  503  502  0.00000000000E+00  0.00000000000E+00  0.44154663216E+03  0.44154663216E+03  0.00000000000E+00 0. -1.
         21   -1    0    0  501  503 -0.00000000000E+00 -0.00000000000E+00 -0.92220311531E+02  0.92220311531E+02  0.00000000000E+00 0. -1.
          6    1    1    2  501    0 -0.91010757216E+02 -0.42929630521E+02  0.14056595017E+03  0.24456839013E+03  0.17300000000E+03 0. -1.
         -6    1    1    2    0  502  0.91010757216E+02  0.42929630521E+02  0.20876037047E+03  0.28919855356E+03  0.17300000000E+03 0. -1.
<mgrwt>
<rscale>  2 0.20013723E+03</rscale>
<asrwt>0</asrwt>
<pdfrwt beam="1">  1       21 0.67930250E-01 0.20013723E+03</pdfrwt>
<pdfrwt beam="2">  1       21 0.14187740E-01 0.20013723E+03</pdfrwt>
<totfact> 0.85634046E+04</totfact>
</mgrwt>
</event>
<event>
 4    1  0.3945814E+000  0.1742589E+03  0.7546771E-02  0.1173478E+00
         21   -1    0    0  503  502  0.00000000000E+00  0.00000000000E+00  0.13799110358E+03  0.13799110358E+03  0.00000000000E+00 0. -1.
         21   -1    0    0  501  503 -0.00000000000E+00 -0.00000000000E+00 -0.23562921825E+03  0.23562921825E+03  0.00000000000E+00 0. -1.
          6    1    1    2  501    0 -0.23135751048E+01  0.20780379425E+02 -0.79774463302E+00  0.17426076206E+03  0.17300000000E+03 0.  1.
         -6    1    1    2    0  502  0.23135751048E+01 -0.20780379425E+02 -0.96840370040E+02  0.19935955976E+03  0.17300000000E+03 0.  1.
<mgrwt>
<rscale>  2 0.17425894E+03</rscale>
<asrwt>0</asrwt>
<pdfrwt beam="1">  1       21 0.21229401E-01 0.17425894E+03</pdfrwt>
<pdfrwt beam="2">  1       21 0.36250649E-01 0.17425894E+03</pdfrwt>
<totfact> 0.15238918E+05</totfact>
</mgrwt>
</event>
<event>
 4    1  0.3945814E+000  0.1975138E+03  0.7546771E-02  0.1151854E+00
         21   -1    0    0  501  502  0.00000000000E+00  0.00000000000E+00  0.87803563939E+03  0.87803563939E+03  0.00000000000E+00 0. -1.
         21   -1    0    0  502  503 -0.00000000000E+00 -0.00000000000E+00 -0.31711529829E+03  0.31711529829E+03  0.00000000000E+00 0. -1.
          6    1    1    2  501    0  0.59008904991E+02 -0.74837403607E+02  0.83459380822E+03  0.85764707926E+03  0.17300000000E+03 0. -1.
         -6    1    1    2    0  503 -0.59008904991E+02  0.74837403607E+02 -0.27367346711E+03  0.33750385842E+03  0.17300000000E+03 0. -1.
<mgrwt>
<rscale>  2 0.19751377E+03</rscale>
<asrwt>0</asrwt>
<pdfrwt beam="1">  1       21 0.13508240E+00 0.19751377E+03</pdfrwt>
<pdfrwt beam="2">  1       21 0.48786970E-01 0.19751377E+03</pdfrwt>
<totfact> 0.15655495E+03</totfact>
</mgrwt>
</event>
<event>
 4    1  0.3945814E+000  0.1780422E+03  0.7546771E-02  0.1169711E+00
         21   -1    0    0  501  502  0.00000000000E+00  0.00000000000E+00  0.72342356061E+02  0.72342356061E+02  0.00000000000E+00 0. -1.
         21   -1    0    0  502  503 -0.00000000000E+00 -0.00000000000E+00 -0.43863528298E+03  0.43863528298E+03  0.00000000000E+00 0. -1.
          6    1    1    2  501    0  0.78455382660E+01 -0.41333591214E+02 -0.17492088926E+03  0.24959233909E+03  0.17300000000E+03 0. -1.
         -6    1    1    2    0  503 -0.78455382660E+01  0.41333591214E+02 -0.19137203766E+03  0.26138529996E+03  0.17300000000E+03 0. -1.
<mgrwt>
<rscale>  2 0.17804218E+03</rscale>
<asrwt>0</asrwt>
<pdfrwt beam="1">  1       21 0.11129593E-01 0.17804218E+03</pdfrwt>
<pdfrwt beam="2">  1       21 0.67482350E-01 0.17804218E+03</pdfrwt>
<totfact> 0.13548150E+05</totfact>
</mgrwt>
</event>
<event>
 4    1  0.3945814E+000  0.2795972E+03  0.7546771E-02  0.1095909E+00
         21   -1    0    0  501  502  0.00000000000E+00  0.00000000000E+00  0.13217145242E+03  0.13217145242E+03  0.00000000000E+00 0.  1.
         21   -1    0    0  502  503 -0.00000000000E+00 -0.00000000000E+00 -0.66327228398E+03  0.66327228398E+03  0.00000000000E+00 0. -1.
          6    1    1    2  501    0  0.20733675631E+03 -0.72505578512E+02 -0.13468576774E+03  0.31034633149E+03  0.17300000000E+03 0.  1.
         -6    1    1    2    0  503 -0.20733675631E+03  0.72505578512E+02 -0.39641506381E+03  0.48509740491E+03  0.17300000000E+03 0. -1.
<mgrwt>
<rscale>  2 0.27959719E+03</rscale>
<asrwt>0</asrwt>
<pdfrwt beam="1">  1       21 0.20334069E-01 0.27959719E+03</pdfrwt>
<pdfrwt beam="2">  1       21 0.10204189E+00 0.27959719E+03</pdfrwt>
<totfact> 0.16690727E+04</totfact>
</mgrwt>
</event>
<event>
 4    1  0.3945814E+000  0.1946054E+03  0.7546771E-02  0.1154372E+00
         21   -1    0    0  501  502  0.00000000000E+00  0.00000000000E+00  0.70825127478E+02  0.70825127478E+02  0.00000000000E+00 0. -1.
         21   -1    0    0  502  503 -0.00000000000E+00 -0.00000000000E+00 -0.58647123189E+03  0.58647123189E+03  0.00000000000E+00 0. -1.
          6    1    1    2  501    0  0.52035973155E+02 -0.72349918596E+02 -0.16019165947E+03  0.25205678127E+03  0.17300000000E+03 0. -1.
         -6    1    1    2    0  503 -0.52035973155E+02  0.72349918596E+02 -0.35545444495E+03  0.40523957810E+03  0.17300000000E+03 0. -1.
<mgrwt>
<rscale>  2 0.19460538E+03</rscale>
<asrwt>0</asrwt>
<pdfrwt beam="1">  1       21 0.10896173E-01 0.19460538E+03</pdfrwt>
<pdfrwt beam="2">  1       21 0.90226344E-01 0.19460538E+03</pdfrwt>
<totfact> 0.72737134E+04</totfact>
</mgrwt>
</event>
<event>
 4    1  0.3945814E+000  0.1800927E+03  0.7546771E-02  0.1167713E+00
         21   -1    0    0  501  502  0.00000000000E+00  0.00000000000E+00  0.21973614365E+03  0.21973614365E+03  0.00000000000E+00 0.  1.
         21   -1    0    0  502  503 -0.00000000000E+00 -0.00000000000E+00 -0.30422910766E+03  0.30422910766E+03  0.00000000000E+00 0.  1.
          6    1    1    2  501    0  0.28904174940E+02 -0.40852527716E+02  0.14573120069E+03  0.23166994454E+03  0.17300000000E+03 0.  1.
         -6    1    1    2    0  503 -0.28904174940E+02  0.40852527716E+02 -0.23022416470E+03  0.29229530677E+03  0.17300000000E+03 0.  1.
<mgrwt>
<rscale>  2 0.18009270E+03</rscale>
<asrwt>0</asrwt>
<pdfrwt beam="1">  1       21 0.33805561E-01 0.18009270E+03</pdfrwt>
<pdfrwt beam="2">  1       21 0.46804478E-01 0.18009270E+03</pdfrwt>
<totfact> 0.37075655E+04</totfact>
</mgrwt>
</event>
<event>
 4    1  0.3945814E+000  0.2590298E+03  0.7546771E-02  0.1107728E+00
         21   -1    0    0  503  502  0.00000000000E+00  0.00000000000E+00  0.74542829811E+03  0.74542829811E+03  0.00000000000E+00 0.  1.
         21   -1    0    0  501  503 -0.00000000000E+00 -0.00000000000E+00 -0.19042844390E+03  0.19042844390E+03  0.00000000000E+00 0. -1.
          6    1    1    2  501    0 -0.14710991289E+03 -0.12460386556E+03 -0.62296580166E+02  0.26641567837E+03  0.17300000000E+03 0. -1.
         -6    1    1    2    0  502  0.14710991289E+03  0.12460386556E+03  0.61729643437E+03  0.66944106363E+03  0.17300000000E+03 0.  1.
<mgrwt>
<rscale>  2 0.25902982E+03</rscale>
<asrwt>0</asrwt>
<pdfrwt beam="1">  1       21 0.11468128E+00 0.25902982E+03</pdfrwt>
<pdfrwt beam="2">  1       21 0.29296684E-01 0.25902982E+03</pdfrwt>
<totfact> 0.62944170E+03</totfact>
</mgrwt>
</event>
<event>
 4    1  0.3945814E+000  0.3158101E+03  0.7546771E-02  0.1077594E+00
         21   -1    0    0  501  502  0.00000000000E+00  0.00000000000E+00  0.12898721207E+04  0.12898721207E+04  0.00000000000E+00 0. -1.
         21   -1    0    0  502  503 -0.00000000000E+00 -0.00000000000E+00 -0.92165370465E+02  0.92165370465E+02  0.00000000000E+00 0. -1.
          6    1    1    2  501    0  0.22124727384E+03 -0.14441837738E+03  0.87616378599E+03  0.93134258132E+03  0.17300000000E+03 0. -1.
         -6    1    1    2    0  503 -0.22124727384E+03  0.14441837738E+03  0.32154296427E+03  0.45069490987E+03  0.17300000000E+03 0. -1.
<mgrwt>
<rscale>  2 0.31581011E+03</rscale>
<asrwt>0</asrwt>
<pdfrwt beam="1">  1       21 0.19844185E+00 0.31581011E+03</pdfrwt>
<pdfrwt beam="2">  1       21 0.14179289E-01 0.31581011E+03</pdfrwt>
<totfact> 0.54673500E+03</totfact>
</mgrwt>
</event>
<event>
 4    1  0.3945814E+000  0.1821342E+03  0.7546771E-02  0.1165753E+00
         21   -1    0    0  503  502  0.00000000000E+00  0.00000000000E+00  0.58261502262E+03  0.58261502262E+03  0.00000000000E+00 0.  1.
         21   -1    0    0  501  503 -0.00000000000E+00 -0.00000000000E+00 -0.75752132378E+02  0.75752132378E+02  0.00000000000E+00 0.  1.
          6    1    1    2  501    0  0.56124448086E+02 -0.96909134246E+01  0.89378455864E+02  0.20288266522E+03  0.17300000000E+03 0.  1.
         -6    1    1    2    0  502 -0.56124448086E+02  0.96909134246E+01  0.41748443438E+03  0.45548448977E+03  0.17300000000E+03 0.  1.
<mgrwt>
<rscale>  2 0.18213420E+03</rscale>
<asrwt>0</asrwt>
<pdfrwt beam="1">  1       21 0.89633077E-01 0.18213420E+03</pdfrwt>
<pdfrwt beam="2">  1       21 0.11654175E-01 0.18213420E+03</pdfrwt>
<totfact> 0.65888376E+04</totfact>
</mgrwt>
</event>
<event>
 4    1  0.3945814E+000  0.2377054E+03  0.7546771E-02  0.1121331E+00
         21   -1    0    0  503  502  0.00000000000E+00  0.00000000000E+00  0.29048767564E+03  0.29048767564E+03  0.00000000000E+00 0.  1.
         21   -1    0    0  501  503 -0.00000000000E+00 -0.00000000000E+00 -0.19453307325E+03  0.19453307325E+03  0.00000000000E+00 0.  1.
          6    1    1    2  501    0  0.14274007044E+03 -0.78740858118E+02  0.50393568064E+02  0.24298839920E+03  0.17300000000E+03 0.  1.
         -6    1    1    2    0  502 -0.14274007044E+03  0.78740858118E+02  0.45561034323E+02  0.24203234969E+03  0.17300000000E+03 0.  1.
<mgrwt>
<rscale>  2 0.23770539E+03</rscale>
<asrwt>0</asrwt>
<pdfrwt beam="1">  1       21 0.44690412E-01 0.23770539E+03</pdfrwt>
<pdfrwt beam="2">  1       21 0.29928165E-01 0.23770539E+03</pdfrwt>
<totfact> 0.50412197E+04</totfact>
</mgrwt>
</event>
<event>
 4    1  0.3945814E+000  0.3392639E+03  0.7546771E-02  0.1067110E+00
         21   -1    0    0  503  502  0.00000000000E+00  0.00000000000E+00  0.19687329876E+03  0.19687329876E+03  0.00000000000E+00 0.  1.
         21   -1    0    0  501  503 -0.00000000000E+00 -0.00000000000E+00 -0.60430787383E+03  0.60430787383E+03  0.00000000000E+00 0.  1.
          6    1    1    2  501    0  0.26360397718E+03  0.12523564494E+03 -0.27598583090E+03  0.43734220286E+03  0.17300000000E+03 0.  1.
         -6    1    1    2    0  502 -0.26360397718E+03 -0.12523564494E+03 -0.13144874417E+03  0.36383896973E+03  0.17300000000E+03 0.  1.
<mgrwt>
<rscale>  2 0.33926394E+03</rscale>
<asrwt>0</asrwt>
<pdfrwt beam="1">  1       21 0.30288199E-01 0.33926394E+03</pdfrwt>
<pdfrwt beam="2">  1       21 0.92970443E-01 0.33926394E+03</pdfrwt>
<totfact> 0.94162921E+03</totfact>
</mgrwt>
</event>
<event>
 4    1  0.3945814E+000  0.1848257E+03  0.7546771E-02  0.1163213E+00
         21   -1    0    0  501  502  0.00000000000E+00  0.00000000000E+00  0.28902772414E+03  0.28902772414E+03  0.00000000000E+00 0.  1.
         21   -1    0    0  502  503 -0.00000000000E+00 -0.00000000000E+00 -0.12289360107E+03  0.12289360107E+03  0.00000000000E+00 0.  1.
          6    1    1    2  501    0 -0.41932718856E+02 -0.49731240936E+02  0.12335517882E+03  0.22220947185E+03  0.17300000000E+03 0.  1.
         -6    1    1    2    0  503  0.41932718856E+02  0.49731240936E+02  0.42778944240E+02  0.18971185336E+03  0.17300000000E+03 0.  1.
<mgrwt>
<rscale>  2 0.18482573E+03</rscale>
<asrwt>0</asrwt>
<pdfrwt beam="1">  1       21 0.44465803E-01 0.18482573E+03</pdfrwt>
<pdfrwt beam="2">  1       21 0.18906708E-01 0.18482573E+03</pdfrwt>
<totfact> 0.12481086E+05</totfact>
</mgrwt>
</event>
<event>
 4    1  0.3945814E+000  0.2191502E+03  0.7546771E-02  0.1134518E+00
         21   -1    0    0  503  502  0.00000000000E+00  0.00000000000E+00  0.17466535956E+03  0.17466535956E+03  0.00000000000E+00 0.  1.
         21   -1    0    0  501  503 -0.00000000000E+00 -0.00000000000E+00 -0.11162415629E+04  0.11162415629E+04  0.00000000000E+00 0.  1.
          6    1    1    2  501    0 -0.24545057304E+02  0.13227005847E+03 -0.10311328194E+04  0.10541639908E+04  0.17300000000E+03 0.  1.
         -6    1    1    2    0  502  0.24545057304E+02 -0.13227005847E+03  0.89556616088E+02  0.23674293166E+03  0.17300000000E+03 0.  1.
<mgrwt>
<rscale>  2 0.21915024E+03</rscale>
<asrwt>0</asrwt>
<pdfrwt beam="1">  1       21 0.26871592E-01 0.21915024E+03</pdfrwt>
<pdfrwt beam="2">  1       21 0.17172948E+00 0.21915024E+03</pdfrwt>
<totfact> 0.26714553E+03</totfact>
</mgrwt>
</event>
<event>
 4    1  0.3945814E+000  0.1897699E+03  0.7546771E-02  0.1158669E+00
         21   -1    0    0  501  502  0.00000000000E+00  0.00000000000E+00  0.46861776017E+03  0.46861776017E+03  0.00000000000E+00 0.  1.
         21   -1    0    0  502  503 -0.00000000000E+00 -0.00000000000E+00 -0.10306867814E+03  0.10306867814E+03  0.00000000000E+00 0. -1.
          6    1    1    2  501    0  0.25167560315E+02  0.73825607617E+02  0.32694669835E+03  0.37803011784E+03  0.17300000000E+03 0.  1.
         -6    1    1    2    0  503 -0.25167560315E+02 -0.73825607617E+02  0.38602383680E+02  0.19365632047E+03  0.17300000000E+03 0. -1.
<mgrwt>
<rscale>  2 0.18976993E+03</rscale>
<asrwt>0</asrwt>
<pdfrwt beam="1">  1       21 0.72095039E-01 0.18976993E+03</pdfrwt>
<pdfrwt beam="2">  1       21 0.15856720E-01 0.18976993E+03</pdfrwt>
<totfact> 0.61615655E+04</totfact>
</mgrwt>
</event>
<event>
 4    1  0.3945814E+000  0.2107424E+03  0.7546771E-02  0.1140979E+00
         21   -1    0    0  503  502  0.00000000000E+00  0.00000000000E+00  0.16924944905E+03  0.16924944905E+03  0.00000000000E+00 0. -1.
         21   -1    0    0  501  503 -0.00000000000E+00 -0.00000000000E+00 -0.26244510714E+03  0.26244510714E+03  0.00000000000E+00 0. -1.
          6    1    1    2  501    0 -0.92704614331E+02  0.76741246549E+02 -0.44022065793E+02  0.21529121375E+03  0.17300000000E+03 0. -1.
         -6    1    1    2    0  502  0.92704614331E+02 -0.76741246549E+02 -0.49173592297E+02  0.21640334244E+03  0.17300000000E+03 0. -1.
<mgrwt>
<rscale>  2 0.21074241E+03</rscale>
<asrwt>0</asrwt>
<pdfrwt beam="1">  1       21 0.26038377E-01 0.21074241E+03</pdfrwt>
<pdfrwt beam="2">  1       21 0.40376170E-01 0.21074241E+03</pdfrwt>
<totfact> 0.82189857E+04</totfact>
</mgrwt>
</event>
<event>
 4    1  0.3945814E+000  0.1793214E+03  0.7546771E-02  0.1168461E+00
         21   -1    0    0  503  502  0.00000000000E+00  0.00000000000E+00  0.20912337720E+03  0.20912337720E+03  0.00000000000E+00 0.  1.
         21   -1    0    0  501  503 -0.00000000000E+00 -0.00000000000E+00 -0.16013277064E+03  0.16013277064E+03  0.00000000000E+00 0.  1.
          6    1    1    2  501    0 -0.25884115049E+02 -0.39461309087E+02 -0.12317435751E+02  0.17974398891E+03  0.17300000000E+03 0.  1.
         -6    1    1    2    0  502  0.25884115049E+02  0.39461309087E+02  0.61308042313E+02  0.18951215892E+03  0.17300000000E+03 0.  1.
<mgrwt>
<rscale>  2 0.17932145E+03</rscale>
<asrwt>0</asrwt>
<pdfrwt beam="1">  1       21 0.32172827E-01 0.17932145E+03</pdfrwt>
<pdfrwt beam="2">  1       21 0.24635811E-01 0.17932145E+03</pdfrwt>
<totfact> 0.14539080E+05</totfact>
</mgrwt>
</event>
<event>
 4    1  0.3945814E+000  0.2388780E+03  0.7546771E-02  0.1120543E+00
         21   -1    0    0  501  502  0.00000000000E+00  0.00000000000E+00  0.76878627941E+03  0.76878627941E+03  0.00000000000E+00 0.  1.
         21   -1    0    0  502  503 -0.00000000000E+00 -0.00000000000E+00 -0.63849668096E+03  0.63849668096E+03  0.00000000000E+00 0. -1.
          6    1    1    2  501    0 -0.11616034709E+03 -0.11679239316E+03  0.72662443006E+03  0.76488283527E+03  0.17300000000E+03 0.  1.
         -6    1    1    2    0  503  0.11616034709E+03  0.11679239316E+03 -0.59633483160E+03  0.64240012509E+03  0.17300000000E+03 0. -1.
<mgrwt>
<rscale>  2 0.23887798E+03</rscale>
<asrwt>0</asrwt>
<pdfrwt beam="1">  1       21 0.11827481E+00 0.23887798E+03</pdfrwt>
<pdfrwt beam="2">  1       21 0.98230259E-01 0.23887798E+03</pdfrwt>
<totfact> 0.44685656E+02</totfact>
</mgrwt>
</event>
<event>
 4    1  0.3945814E+000  0.2187203E+03  0.7546771E-02  0.1134841E+00
         21   -1    0    0  501  502  0.00000000000E+00  0.00000000000E+00  0.17842878204E+03  0.17842878204E+03  0.00000000000E+00 0.  1.
         21   -1    0    0  502  503 -0.00000000000E+00 -0.00000000000E+00 -0.33826964744E+03  0.33826964744E+03  0.00000000000E+00 0. -1.
          6    1    1    2  501    0  0.13106802902E+03 -0.27032464796E+02  0.37736793970E+02  0.22195190471E+03  0.17300000000E+03 0.  1.
         -6    1    1    2    0  503 -0.13106802902E+03  0.27032464796E+02 -0.19757765937E+03  0.29474652477E+03  0.17300000000E+03 0. -1.
<mgrwt>
<rscale>  2 0.21872033E+03</rscale>
<asrwt>0</asrwt>
<pdfrwt beam="1">  1       21 0.27450582E-01 0.21872033E+03</pdfrwt>
<pdfrwt beam="2">  1       21 0.52041484E-01 0.21872033E+03</pdfrwt>
<totfact> 0.43798522E+04</totfact>
</mgrwt>
</event>
<event>
 4    1  0.3945814E+000  0.1753500E+03  0.7546771E-02  0.1172381E+00
         21   -1    0    0  501  502  0.00000000000E+00  0.00000000000E+00  0.67275017805E+02  0.67275017805E+02  0.00000000000E+00 0.  1.
         21   -1    0    0  502  503 -0.00000000000E+00 -0.00000000000E+00 -0.45771720100E+03  0.45771720100E+03  0.00000000000E+00 0.  1.
          6    1    1    2  501    0 -0.12709166896E+02 -0.25633621644E+02 -0.18514997598E+03  0.25500611579E+03  0.17300000000E+03 0.  1.
         -6    1    1    2    0  503  0.12709166896E+02  0.25633621644E+02 -0.20529220721E+03  0.26998610302E+03  0.17300000000E+03 0.  1.
<mgrwt>
<rscale>  2 0.17534995E+03</rscale>
<asrwt>0</asrwt>
<pdfrwt beam="1">  1       21 0.10350003E-01 0.17534995E+03</pdfrwt>
<pdfrwt beam="2">  1       21 0.70418028E-01 0.17534995E+03</pdfrwt>
<totfact> 0.14047474E+05</totfact>
</mgrwt>
</event>
<event>
 4    1  0.3945814E+000  0.1749922E+03  0.7546771E-02  0.1172740E+00
         21   -1    0    0  501  502  0.00000000000E+00  0.00000000000E+00  0.84986428483E+03  0.84986428483E+03  0.00000000000E+00 0. -1.
         21   -1    0    0  502  503 -0.00000000000E+00 -0.00000000000E+00 -0.40652655105E+02  0.40652655105E+02  0.00000000000E+00 0. -1.
          6    1    1    2  501    0 -0.21220869589E+02 -0.15586690362E+02  0.55471998961E+03  0.58166703284E+03  0.17300000000E+03 0. -1.
         -6    1    1    2    0  503  0.21220869589E+02  0.15586690362E+02  0.25449164012E+03  0.30884990709E+03  0.17300000000E+03 0. -1.
<mgrwt>
<rscale>  2 0.17499220E+03</rscale>
<asrwt>0</asrwt>
<pdfrwt beam="1">  1       21 0.13074834E+00 0.17499220E+03</pdfrwt>
<pdfrwt beam="2">  1       21 0.62542553E-02 0.17499220E+03</pdfrwt>
<totfact> 0.78904706E+04</totfact>
</mgrwt>
</event>
<event>
 4    1  0.3945814E+000  0.1765328E+03  0.7546771E-02  0.1171201E+00
         21   -1    0    0  501  502  0.00000000000E+00  0.00000000000E+00  0.51837803426E+03  0.51837803426E+03  0.00000000000E+00 0.  1.
         21   -1    0    0  502  503 -0.00000000000E+00 -0.00000000000E+00 -0.27110014019E+03  0.27110014019E+03  0.00000000000E+00 0.  1.
          6    1    1    2  501    0  0.13971926647E+00 -0.35139855835E+02  0.47187052535E+03  0.50381109722E+03  0.17300000000E+03 0.  1.
         -6    1    1    2    0  503 -0.13971926647E+00  0.35139855835E+02 -0.22459263127E+03  0.28566707723E+03  0.17300000000E+03 0.  1.
<mgrwt>
<rscale>  2 0.17653280E+03</rscale>
<asrwt>0</asrwt>
<pdfrwt beam="1">  1       21 0.79750466E-01 0.17653280E+03</pdfrwt>
<pdfrwt beam="2">  1       21 0.41707714E-01 0.17653280E+03</pdfrwt>
<totfact> 0.77574599E+03</totfact>
</mgrwt>
</event>
<event>
 4    1  0.3945814E+000  0.2742064E+03  0.7546771E-02  0.1098896E+00
         21   -1    0    0  501  502  0.00000000000E+00  0.00000000000E+00  0.50745250575E+03  0.50745250575E+03  0.00000000000E+00 0.  1.
         21   -1    0    0  502  503 -0.00000000000E+00 -0.00000000000E+00 -0.15110068015E+03  0.15110068015E+03  0.00000000000E+00 0. -1.
          6    1    1    2  501    0  0.51742622130E+02 -0.20635609059E+03  0.22403515325E+03  0.35409163356E+03  0.17300000000E+03 0.  1.
         -6    1    1    2    0  503 -0.51742622130E+02  0.20635609059E+03  0.13231667234E+03  0.30446155233E+03  0.17300000000E+03 0. -1.
<mgrwt>
<rscale>  2 0.27420637E+03</rscale>
<asrwt>0</asrwt>
<pdfrwt beam="1">  1       21 0.78069615E-01 0.27420637E+03</pdfrwt>
<pdfrwt beam="2">  1       21 0.23246259E-01 0.27420637E+03</pdfrwt>
<totfact> 0.24256839E+04</totfact>
</mgrwt>
</event>
<event>
 4    1  0.3945814E+000  0.1766930E+03  0.7546771E-02  0.1171042E+00
         21   -1    0    0  503  502  0.00000000000E+00  0.00000000000E+00  0.43108966680E+03  0.43108966680E+03  0.00000000000E+00 0.  1.
         21   -1    0    0  501  503 -0.00000000000E+00 -0.00000000000E+00 -0.78440876492E+02  0.78440876492E+02  0.00000000000E+00 0.  1.
          6    1    1    2  501    0  0.49335196280E+01  0.35596115855E+02  0.10575396397E+03  0.20592310209E+03  0.17300000000E+03 0.  1.
         -6    1    1    2    0  502 -0.49335196280E+01 -0.35596115855E+02  0.24689482633E+03  0.30360744120E+03  0.17300000000E+03 0.  1.
<mgrwt>
<rscale>  2 0.17669302E+03</rscale>
<asrwt>0</asrwt>
<pdfrwt beam="1">  1       21 0.66321486E-01 0.17669302E+03</pdfrwt>
<pdfrwt beam="2">  1       21 0.12067827E-01 0.17669302E+03</pdfrwt>
<totfact> 0.12188087E+05</totfact>
</mgrwt>
</event>
<event>
 4    1  0.3945814E+000  0.1883556E+03  0.7546771E-02  0.1159953E+00
         21   -1    0    0  503  502  0.00000000000E+00  0.00000000000E+00  0.29847596045E+03  0.29847596045E+03  0.00000000000E+00 0.  1.
         21   -1    0    0  501  503 -0.00000000000E+00 -0.00000000000E+00 -0.25669214213E+03  0.25669214213E+03  0.00000000000E+00 0.  1.
          6    1    1    2  501    0 -0.50187171703E+02 -0.55046199478E+02 -0.18251152629E+03  0.26227522474E+03  0.17300000000E+03 0.  1.
         -6    1    1    2    0  502  0.50187171703E+02  0.55046199478E+02  0.22429534461E+03  0.29289287785E+03  0.17300000000E+03 0.  1.
<mgrwt>
<rscale>  2 0.18835561E+03</rscale>
<asrwt>0</asrwt>
<pdfrwt beam="1">  1       21 0.45919378E-01 0.18835561E+03</pdfrwt>
<pdfrwt beam="2">  1       21 0.39491099E-01 0.18835561E+03</pdfrwt>
<totfact> 0.28163624E+04</totfact>
</mgrwt>
</event>
<event>
 4    1  0.3945814E+000  0.2286859E+03  0.7546771E-02  0.1127568E+00
         21   -1    0    0  503  502  0.00000000000E+00  0.00000000000E+00  0.27048535148E+03  0.27048535148E+03  0.00000000000E+00 0.  1.
         21   -1    0    0  501  503 -0.00000000000E+00 -0.00000000000E+00 -0.95417481249E+03  0.95417481249E+03  0.00000000000E+00 0. -1.
          6    1    1    2  501    0  0.32590820072E+02  0.14596598266E+03 -0.88862788949E+03  0.91758201575E+03  0.17300000000E+03 0. -1.
         -6    1    1    2    0  502 -0.32590820072E+02 -0.14596598266E+03  0.20493842848E+03  0.30707814822E+03  0.17300000000E+03 0.  1.
<mgrwt>
<rscale>  2 0.22868588E+03</rscale>
<asrwt>0</asrwt>
<pdfrwt beam="1">  1       21 0.41613131E-01 0.22868588E+03</pdfrwt>
<pdfrwt beam="2">  1       21 0.14679613E+00 0.22868588E+03</pdfrwt>
<totfact> 0.17016069E+03</totfact>
</mgrwt>
</event>
<event>
 4    1  0.3945814E+000  0.2459531E+03  0.7546771E-02  0.1115889E+00
         21   -1    0    0  503  502  0.00000000000E+00  0.00000000000E+00  0.13956049126E+03  0.13956049126E+03  0.00000000000E+00 0.  1.
         21   -1    0    0  501  503 -0.00000000000E+00 -0.00000000000E+00 -0.53954106724E+03  0.53954106724E+03  0.00000000000E+00 0.  1.
          6    1    1    2  501    0  0.17466270984E+03 -0.75420927885E+01 -0.35055572225E+03  0.42823154925E+03  0.17300000000E+03 0.  1.
         -6    1    1    2    0  502 -0.17466270984E+03  0.75420927885E+01 -0.49424853732E+02  0.25087000925E+03  0.17300000000E+03 0.  1.
<mgrwt>
<rscale>  2 0.24595314E+03</rscale>
<asrwt>0</asrwt>
<pdfrwt beam="1">  1       21 0.21470845E-01 0.24595314E+03</pdfrwt>
<pdfrwt beam="2">  1       21 0.83006317E-01 0.24595314E+03</pdfrwt>
<totfact> 0.24843552E+04</totfact>
</mgrwt>
</event>
<event>
 4    1  0.3945814E+000  0.1862179E+03  0.7546771E-02  0.1161917E+00
         21   -1    0    0  503  502  0.00000000000E+00  0.00000000000E+00  0.18163774432E+03  0.18163774432E+03  0.00000000000E+00 0. -1.
         21   -1    0    0  501  503 -0.00000000000E+00 -0.00000000000E+00 -0.35195680140E+03  0.35195680140E+03  0.00000000000E+00 0. -1.
          6    1    1    2  501    0 -0.68903838532E+02  0.60714831400E+00 -0.26563075199E+03  0.32440222564E+03  0.17300000000E+03 0. -1.
         -6    1    1    2    0  502  0.68903838532E+02 -0.60714831400E+00  0.95311694917E+02  0.20919232008E+03  0.17300000000E+03 0. -1.
<mgrwt>
<rscale>  2 0.18621790E+03</rscale>
<asrwt>0</asrwt>
<pdfrwt beam="1">  1       21 0.27944269E-01 0.18621790E+03</pdfrwt>
<pdfrwt beam="2">  1       21 0.54147199E-01 0.18621790E+03</pdfrwt>
<totfact> 0.39557193E+04</totfact>
</mgrwt>
</event>
<event>
 4    1  0.3945814E+000  0.2297557E+03  0.7546771E-02  0.1126812E+00
         21   -1    0    0  501  502  0.00000000000E+00  0.00000000000E+00  0.25182507082E+03  0.25182507082E+03  0.00000000000E+00 0.  1.
         21   -1    0    0  502  503 -0.00000000000E+00 -0.00000000000E+00 -0.27662860498E+03  0.27662860498E+03  0.00000000000E+00 0. -1.
          6    1    1    2  501    0 -0.11735129243E+03  0.95327613714E+02  0.11764281914E+03  0.25812305722E+03  0.17300000000E+03 0.  1.
         -6    1    1    2    0  503  0.11735129243E+03 -0.95327613714E+02 -0.14244635331E+03  0.27033061858E+03  0.17300000000E+03 0. -1.
<mgrwt>
<rscale>  2 0.22975570E+03</rscale>
<asrwt>0</asrwt>
<pdfrwt beam="1">  1       21 0.38742318E-01 0.22975570E+03</pdfrwt>
<pdfrwt beam="2">  1       21 0.42558247E-01 0.22975570E+03</pdfrwt>
<totfact> 0.33482346E+04</totfact>
</mgrwt>
</event>
<event>
 4    1  0.3945814E+000  0.1961762E+03  0.7546771E-02  0.1153006E+00
         21   -1    0    0  501  502  0.00000000000E+00  0.00000000000E+00  0.26910783375E+03  0.26910783375E+03  0.00000000000E+00 0.  1.
         21   -1    0    0  502  503 -0.00000000000E+00 -0.00000000000E+00 -0.16665527355E+03  0.16665527355E+03  0.00000000000E+00 0. -1.
          6    1    1    2  501    0  0.12510547018E+02  0.91649228488E+02  0.13329613494E+03  0.23717705298E+03  0.17300000000E+03 0.  1.
         -6    1    1    2    0  503 -0.12510547018E+02 -0.91649228488E+02 -0.30843574744E+02  0.19858605432E+03  0.17300000000E+03 0. -1.
<mgrwt>
<rscale>  2 0.19617618E+03</rscale>
<asrwt>0</asrwt>
<pdfrwt beam="1">  1       21 0.41401205E-01 0.19617618E+03</pdfrwt>
<pdfrwt beam="2">  1       21 0.25639273E-01 0.19617618E+03</pdfrwt>
<totfact> 0.80961943E+04</totfact>
</mgrwt>
</event>
<event>
 4    1  0.3945814E+000  0.2261729E+03  0.7546771E-02  0.1129363E+00
         21   -1    0    0  501  502  0.00000000000E+00  0.00000000000E+00  0.68081486864E+03  0.68081486864E+03  0.00000000000E+00 0.  1.
         21   -1    0    0  502  503 -0.00000000000E+00 -0.00000000000E+00 -0.11528291097E+03  0.11528291097E+03  0.00000000000E+00 0.  1.
          6    1    1    2  501    0 -0.61236192271E+02  0.13219422688E+03  0.51766229868E+03  0.56491454251E+03  0.17300000000E+03 0.  1.
         -6    1    1    2    0  503  0.61236192271E+02 -0.13219422688E+03  0.47869658996E+02  0.23118323710E+03  0.17300000000E+03 0.  1.
<mgrwt>
<rscale>  2 0.22617291E+03</rscale>
<asrwt>0</asrwt>
<pdfrwt beam="1">  1       21 0.10474075E+00 0.22617291E+03</pdfrwt>
<pdfrwt beam="2">  1       21 0.17735833E-01 0.22617291E+03</pdfrwt>
<totfact> 0.20787963E+04</totfact>
</mgrwt>
</event>
<event>
 4    1  0.3945814E+000  0.1995567E+03  0.7546771E-02  0.1150114E+00
         21   -1    0    0  501  502  0.00000000000E+00  0.00000000000E+00  0.11627960885E+03  0.11627960885E+03  0.00000000000E+00 0.  1.
         21   -1    0    0  502  503 -0.00000000000E+00 -0.00000000000E+00 -0.43018827288E+03  0.43018827288E+03  0.00000000000E+00 0.  1.
          6    1    1    2  501    0  0.31815567401E+02 -0.94242518878E+02 -0.33576391356E+02  0.20236169783E+03  0.17300000000E+03 0.  1.
         -6    1    1    2    0  503 -0.31815567401E+02  0.94242518878E+02 -0.28033227268E+03  0.34410618390E+03  0.17300000000E+03 0.  1.
<mgrwt>
<rscale>  2 0.19955672E+03</rscale>
<asrwt>0</asrwt>
<pdfrwt beam="1">  1       21 0.17889171E-01 0.19955672E+03</pdfrwt>
<pdfrwt beam="2">  1       21 0.66182810E-01 0.19955672E+03</pdfrwt>
<totfact> 0.59313521E+04</totfact>
</mgrwt>
</event>
<event>
 4    1  0.3945814E+000  0.2113375E+03  0.7546771E-02  0.1140511E+00
         21   -1    0    0  503  502  0.00000000000E+00  0.00000000000E+00  0.24831402003E+03  0.24831402003E+03  0.00000000000E+00 0. -1.
         21   -1    0    0  501  503 -0.00000000000E+00 -0.00000000000E+00 -0.18042440794E+03  0.18042440794E+03  0.00000000000E+00 0.  1.
          6    1    1    2  501    0 -0.12058796643E+03 -0.13894737919E+02  0.22030619419E+02  0.21248263360E+03  0.17300000000E+03 0. -1.
         -6    1    1    2    0  502  0.12058796643E+03  0.13894737919E+02  0.45858992671E+02  0.21625579437E+03  0.17300000000E+03 0.  1.
<mgrwt>
<rscale>  2 0.21133746E+03</rscale>
<asrwt>0</asrwt>
<pdfrwt beam="1">  1       21 0.38202157E-01 0.21133746E+03</pdfrwt>
<pdfrwt beam="2">  1       21 0.27757601E-01 0.21133746E+03</pdfrwt>
<totfact> 0.81226974E+04</totfact>
</mgrwt>
</event>
<event>
 4    1  0.3945814E+000  0.1770037E+03  0.7546771E-02  0.1170735E+00
         21   -1    0    0  503  502  0.00000000000E+00  0.00000000000E+00  0.45907568927E+03  0.45907568927E+03  0.00000000000E+00 0. -1.
         21   -1    0    0  501  503 -0.00000000000E+00 -0.00000000000E+00 -0.72689335601E+02  0.72689335601E+02  0.00000000000E+00 0. -1.
          6    1    1    2  501    0  0.79862032616E+01  0.36572229699E+02  0.12745998572E+03  0.21812004811E+03  0.17300000000E+03 0. -1.
         -6    1    1    2    0  502 -0.79862032616E+01 -0.36572229699E+02  0.25892636795E+03  0.31364497676E+03  0.17300000000E+03 0. -1.
<mgrwt>
<rscale>  2 0.17700369E+03</rscale>
<asrwt>0</asrwt>
<pdfrwt beam="1">  1       21 0.70627027E-01 0.17700369E+03</pdfrwt>
<pdfrwt beam="2">  1       21 0.11182975E-01 0.17700369E+03</pdfrwt>
<totfact> 0.12160301E+05</totfact>
</mgrwt>
</event>
<event>
 4    1  0.3945814E+000  0.2349522E+03  0.7546771E-02  0.1123202E+00
         21   -1    0    0  503  502  0.00000000000E+00  0.00000000000E+00  0.25382111202E+03  0.25382111202E+03  0.00000000000E+00 0.  1.
         21   -1    0    0  501  503 -0.00000000000E+00 -0.00000000000E+00 -0.25682642156E+03  0.25682642156E+03  0.00000000000E+00 0. -1.
          6    1    1    2  501    0  0.15756149765E+03 -0.21164404338E+02 -0.10143141058E+03  0.25591187664E+03  0.17300000000E+03 0. -1.
         -6    1    1    2    0  502 -0.15756149765E+03  0.21164404338E+02  0.98426101039E+02  0.25473565694E+03  0.17300000000E+03 0.  1.
<mgrwt>
<rscale>  2 0.23495225E+03</rscale>
<asrwt>0</asrwt>
<pdfrwt beam="1">  1       21 0.39049402E-01 0.23495225E+03</pdfrwt>
<pdfrwt beam="2">  1       21 0.39511757E-01 0.23495225E+03</pdfrwt>
<totfact> 0.38243493E+04</totfact>
</mgrwt>
</event>
<event>
 4    1  0.3945814E+000  0.2024200E+03  0.7546771E-02  0.1147713E+00
         21   -1    0    0  503  502  0.00000000000E+00  0.00000000000E+00  0.12875456932E+04  0.12875456932E+04  0.00000000000E+00 0.  1.
         21   -1    0    0  501  503 -0.00000000000E+00 -0.00000000000E+00 -0.32131692828E+02  0.32131692828E+02  0.00000000000E+00 0. -1.
          6    1    1    2  501    0 -0.77542902404E+02 -0.70936287819E+02  0.56305609225E+03  0.59833604409E+03  0.17300000000E+03 0.  1.
         -6    1    1    2    0  502  0.77542902404E+02  0.70936287819E+02  0.69235790812E+03  0.72134134193E+03  0.17300000000E+03 0. -1.
<mgrwt>
<rscale>  2 0.20242001E+03</rscale>
<asrwt>0</asrwt>
<pdfrwt beam="1">  1       21 0.19808391E+00 0.20242001E+03</pdfrwt>
<pdfrwt beam="2">  1       21 0.49433384E-02 0.20242001E+03</pdfrwt>
<totfact> 0.37630325E+04</totfact>
</mgrwt>
</event>
<event>
 4    1  0.3945814E+000  0.2130292E+03  0.7546771E-02  0.1139189E+00
         21   -1    0    0  503  502  0.00000000000E+00  0.00000000000E+00  0.13974146070E+04  0.13974146070E+04  0.00000000000E+00 0.  1.
         21   -1    0    0  501  503 -0.00000000000E+00 -0.00000000000E+00 -0.49224984984E+02  0.49224984984E+02  0.00000000000E+00 0.  1.
          6    1    1    2  501    0  0.10361372239E+03  0.68677727149E+02  0.25216412875E+03  0.33010328914E+03  0.17300000000E+03 0.  1.
         -6    1    1    2    0  502 -0.10361372239E+03 -0.68677727149E+02  0.10960254933E+04  0.11165363029E+04  0.17300000000E+03 0.  1.
<mgrwt>
<rscale>  2 0.21302919E+03</rscale>
<asrwt>0</asrwt>
<pdfrwt beam="1">  1       21 0.21498683E+00 0.21302919E+03</pdfrwt>
<pdfrwt beam="2">  1       21 0.75730757E-02 0.21302919E+03</pdfrwt>
<totfact> 0.14025421E+04</totfact>
</mgrwt>
</event>
<event>
 4    1  0.3945814E+000  0.1765910E+03  0.7546771E-02  0.1171144E+00
         21   -1    0    0  501  502  0.00000000000E+00  0.00000000000E+00  0.66528509978E+03  0.66528509978E+03  0.00000000000E+00 0.  1.
         21   -1    0    0  502  503 -0.00000000000E+00 -0.00000000000E+00 -0.93655451021E+02  0.93655451021E+02  0.00000000000E+00 0.  1.
          6    1    1    2  501    0 -0.34806982697E+02 -0.66233427990E+01  0.55400899011E+03  0.58147257531E+03  0.17300000000E+03 0.  1.
         -6    1    1    2    0  503  0.34806982697E+02  0.66233427990E+01  0.17620658651E+02  0.17746797549E+03  0.17300000000E+03 0.  1.
<mgrwt>
<rscale>  2 0.17659104E+03</rscale>
<asrwt>0</asrwt>
<pdfrwt beam="1">  1       21 0.10235155E+00 0.17659104E+03</pdfrwt>
<pdfrwt beam="2">  1       21 0.14408531E-01 0.17659104E+03</pdfrwt>
<totfact> 0.33077028E+04</totfact>
</mgrwt>
</event>
<event>
 4    1  0.3945814E+000  0.2245540E+03  0.7546771E-02  0.1130533E+00
         21   -1    0    0  503  502  0.00000000000E+00  0.00000000000E+00  0.50102592367E+03  0.50102592367E+03  0.00000000000E+00 0. -1.
         21   -1    0    0  501  503 -0.00000000000E+00 -0.00000000000E+00 -0.10410127037E+03  0.10410127037E+03  0.00000000000E+00 0. -1.
          6    1    1    2  501    0 -0.14007637127E+03  0.29565368363E+02  0.25361284727E+03  0.33873880364E+03  0.17300000000E+03 0. -1.
         -6    1    1    2    0  502  0.14007637127E+03 -0.29565368363E+02  0.14331180603E+03  0.26638839040E+03  0.17300000000E+03 0. -1.
<mgrwt>
<rscale>  2 0.22455400E+03</rscale>
<asrwt>0</asrwt>
<pdfrwt beam="1">  1       21 0.77080910E-01 0.22455400E+03</pdfrwt>
<pdfrwt beam="2">  1       21 0.16015580E-01 0.22455400E+03</pdfrwt>
<totfact> 0.51265340E+04</totfact>
</mgrwt>
</event>
<event>
 4    1  0.3945814E+000  0.1734878E+03  0.7546771E-02  0.1174259E+00
         21   -1    0    0  503  502  0.00000000000E+00  0.00000000000E+00  0.20555720699E+03  0.20555720699E+03  0.00000000000E+00 0.  1.
         21   -1    0    0  501  503 -0.00000000000E+00 -0.00000000000E+00 -0.14661552049E+03  0.14661552049E+03  0.00000000000E+00 0.  1.
          6    1    1    2  501    0  0.11804040954E+02  0.54476455517E+01  0.35875022442E+02  0.17715820461E+03  0.17300000000E+03 0.  1.
         -6    1    1    2    0  502 -0.11804040954E+02 -0.54476455517E+01  0.23066664053E+02  0.17501452287E+03  0.17300000000E+03 0.  1.
<mgrwt>
<rscale>  2 0.17348779E+03</rscale>
<asrwt>0</asrwt>
<pdfrwt beam="1">  1       21 0.31624186E-01 0.17348779E+03</pdfrwt>
<pdfrwt beam="2">  1       21 0.22556234E-01 0.17348779E+03</pdfrwt>
<totfact> 0.17803758E+05</totfact>
</mgrwt>
</event>
<event>
 4    1  0.3945814E+000  0.1903866E+03  0.7546771E-02  0.1158113E+00
         21   -1    0    0  501  502  0.00000000000E+00  0.00000000000E+00  0.64270888241E+02  0.64270888241E+02  0.00000000000E+00 0. -1.
         21   -1    0    0  502  503 -0.00000000000E+00 -0.00000000000E+00 -0.10399563144E+04  0.10399563144E+04  0.00000000000E+00 0. -1.
          6    1    1    2  501    0  0.49871521558E+02 -0.61894232785E+02 -0.11432033398E+03  0.22207251851E+03  0.17300000000E+03 0. -1.
         -6    1    1    2    0  503 -0.49871521558E+02  0.61894232785E+02 -0.86136509220E+03  0.88215468415E+03  0.17300000000E+03 0. -1.
<mgrwt>
<rscale>  2 0.19038662E+03</rscale>
<asrwt>0</asrwt>
<pdfrwt beam="1">  1       21 0.98878290E-02 0.19038662E+03</pdfrwt>
<pdfrwt beam="2">  1       21 0.15999328E+00 0.19038662E+03</pdfrwt>
<totfact> 0.20869593E+04</totfact>
</mgrwt>
</event>
<event>
 4    1  0.3945814E+000  0.2466355E+03  0.7546771E-02  0.1115450E+00
         21   -1    0    0  501  502  0.00000000000E+00  0.00000000000E+00  0.24049632154E+02  0.24049632154E+02  0.00000000000E+00 0. -1.
         21   -1    0    0  502  503 -0.00000000000E+00 -0.00000000000E+00 -0.25295542520E+04  0.25295542520E+04  0.00000000000E+00 0. -1.
          6    1    1    2  501    0 -0.14860825364E+03  0.93891696641E+02 -0.12652037265E+04  0.12890188258E+04  0.17300000000E+03 0. -1.
         -6    1    1    2    0  503  0.14860825364E+03 -0.93891696641E+02 -0.12403008934E+04  0.12645850584E+04  0.17300000000E+03 0. -1.
<mgrwt>
<rscale>  2 0.24663549E+03</rscale>
<asrwt>0</asrwt>
<pdfrwt beam="1">  1       21 0.36999471E-02 0.24663549E+03</pdfrwt>
<pdfrwt beam="2">  1       21 0.38916180E+00 0.24663549E+03</pdfrwt>
<totfact> 0.42531232E+03</totfact>
</mgrwt>
</event>
<event>
 4    1  0.3945814E+000  0.3017139E+03  0.7546771E-02  0.1084387E+00
         21   -1    0    0  501  502  0.00000000000E+00  0.00000000000E+00  0.41651101252E+03  0.41651101252E+03  0.00000000000E+00 0. -1.
         21   -1    0    0  502  503 -0.00000000000E+00 -0.00000000000E+00 -0.33278039248E+03  0.33278039248E+03  0.00000000000E+00 0. -1.
          6    1    1    2  501    0  0.10779256120E+03 -0.22244779190E+03  0.26135800016E+03  0.39917322132E+03  0.17300000000E+03 0. -1.
         -6    1    1    2    0  503 -0.10779256120E+03  0.22244779190E+03 -0.17762738012E+03  0.35011818368E+03  0.17300000000E+03 0. -1.
<mgrwt>
<rscale>  2 0.30171387E+03</rscale>
<asrwt>0</asrwt>
<pdfrwt beam="1">  1       21 0.64078617E-01 0.30171387E+03</pdfrwt>
<pdfrwt beam="2">  1       21 0.51196983E-01 0.30171387E+03</pdfrwt>
<totfact> 0.76474670E+03</totfact>
</mgrwt>
</event>
<event>
 4    1  0.3945814E+000  0.2091689E+03  0.7546771E-02  0.1142226E+00
         21   -1    0    0  503  502  0.00000000000E+00  0.00000000000E+00  0.21757511399E+03  0.21757511399E+03  0.00000000000E+00 0. -1.
         21   -1    0    0  501  503 -0.00000000000E+00 -0.00000000000E+00 -0.40874670357E+03  0.40874670357E+03  0.00000000000E+00 0. -1.
          6    1    1    2  501    0  0.11534673184E+03 -0.22754181983E+02 -0.31879704207E+03  0.38129145726E+03  0.17300000000E+03 0. -1.
         -6    1    1    2    0  502 -0.11534673184E+03  0.22754181983E+02  0.12762545250E+03  0.24503036030E+03  0.17300000000E+03 0. -1.
<mgrwt>
<rscale>  2 0.20916888E+03</rscale>
<asrwt>0</asrwt>
<pdfrwt beam="1">  1       21 0.33473094E-01 0.20916888E+03</pdfrwt>
<pdfrwt beam="2">  1       21 0.62884108E-01 0.20916888E+03</pdfrwt>
<totfact> 0.19931846E+04</totfact>
</mgrwt>
</event>
<event>
 4    1  0.3945814E+000  0.2021884E+03  0.7546771E-02  0.1147906E+00
         21   -1    0    0  501  502  0.00000000000E+00  0.00000000000E+00  0.49352658611E+02  0.49352658611E+02  0.00000000000E+00 0.  1.
         21   -1    0    0  502  503 -0.00000000000E+00 -0.00000000000E+00 -0.12865812090E+04  0.12865812090E+04  0.00000000000E+00 0.  1.
          6    1    1    2  501    0 -0.83272267505E+02 -0.63378847589E+02 -0.21996635277E+03  0.29877306640E+03  0.17300000000E+03 0.  1.
         -6    1    1    2    0  503  0.83272267505E+02  0.63378847589E+02 -0.10172621976E+04  0.10371608012E+04  0.17300000000E+03 0.  1.
<mgrwt>
<rscale>  2 0.20218840E+03</rscale>
<asrwt>0</asrwt>
<pdfrwt beam="1">  1       21 0.75927174E-02 0.20218840E+03</pdfrwt>
<pdfrwt beam="2">  1       21 0.19793555E+00 0.20218840E+03</pdfrwt>
<totfact> 0.18060338E+04</totfact>
</mgrwt>
</event>
<event>
 4    1  0.3945814E+000  0.2187743E+03  0.7546771E-02  0.1134800E+00
         21   -1    0    0  501  502  0.00000000000E+00  0.00000000000E+00  0.52777941861E+03  0.52777941861E+03  0.00000000000E+00 0.  1.
         21   -1    0    0  502  503 -0.00000000000E+00 -0.00000000000E+00 -0.10335153893E+03  0.10335153893E+03  0.00000000000E+00 0.  1.
          6    1    1    2  501    0  0.12464378063E+03  0.48960511322E+02  0.32268356273E+03  0.38985495427E+03  0.17300000000E+03 0.  1.
         -6    1    1    2    0  503 -0.12464378063E+03 -0.48960511322E+02  0.10174431695E+03  0.24127600326E+03  0.17300000000E+03 0.  1.
<mgrwt>
<rscale>  2 0.21877432E+03</rscale>
<asrwt>0</asrwt>
<pdfrwt beam="1">  1       21 0.81196832E-01 0.21877432E+03</pdfrwt>
<pdfrwt beam="2">  1       21 0.15900237E-01 0.21877432E+03</pdfrwt>
<totfact> 0.46301185E+04</totfact>
</mgrwt>
</event>
<event>
 4    1  0.3945814E+000  0.2125059E+03  0.7546771E-02  0.1139597E+00
         21   -1    0    0  501  502  0.00000000000E+00  0.00000000000E+00  0.26890152238E+02  0.26890152238E+02  0.00000000000E+00 0. -1.
         21   -1    0    0  502  503 -0.00000000000E+00 -0.00000000000E+00 -0.22193388993E+04  0.22193388993E+04  0.00000000000E+00 0.  1.
          6    1    1    2  501    0 -0.17420461531E+02 -0.12217322137E+03 -0.16502027498E+04  0.16638292833E+04  0.17300000000E+03 0.  1.
         -6    1    1    2    0  503  0.17420461531E+02  0.12217322137E+03 -0.54224599722E+03  0.58239976820E+03  0.17300000000E+03 0. -1.
<mgrwt>
<rscale>  2 0.21250593E+03</rscale>
<asrwt>0</asrwt>
<pdfrwt beam="1">  1       21 0.41369471E-02 0.21250593E+03</pdfrwt>
<pdfrwt beam="2">  1       21 0.34143671E+00 0.21250593E+03</pdfrwt>
<totfact> 0.71067669E+03</totfact>
</mgrwt>
</event>
<event>
 4    1  0.3945814E+000  0.1944367E+03  0.7546771E-02  0.1154519E+00
         21   -1    0    0  501  502  0.00000000000E+00  0.00000000000E+00  0.14813473313E+03  0.14813473313E+03  0.00000000000E+00 0. -1.
         21   -1    0    0  502  503 -0.00000000000E+00 -0.00000000000E+00 -0.25548072169E+03  0.25548072169E+03  0.00000000000E+00 0. -1.
          6    1    1    2  501    0  0.87957251117E+02 -0.11838951405E+02 -0.47117906961E+02  0.20006432953E+03  0.17300000000E+03 0.  1.
         -6    1    1    2    0  503 -0.87957251117E+02  0.11838951405E+02 -0.60228081598E+02  0.20355112529E+03  0.17300000000E+03 0.  1.
<mgrwt>
<rscale>  2 0.19443672E+03</rscale>
<asrwt>0</asrwt>
<pdfrwt beam="1">  1       21 0.22789959E-01 0.19443672E+03</pdfrwt>
<pdfrwt beam="2">  1       21 0.39304726E-01 0.19443672E+03</pdfrwt>
<totfact> 0.11262708E+05</totfact>
</mgrwt>
</event>
<event>
 4    1  0.3945814E+000  0.2045164E+03  0.7546771E-02  0.1145983E+00
         21   -1    0    0  503  502  0.00000000000E+00  0.00000000000E+00  0.66767341000E+02  0.66767341000E+02  0.00000000000E+00 0.  1.
         21   -1    0    0  501  503 -0.00000000000E+00 -0.00000000000E+00 -0.62655365460E+03  0.62655365460E+03  0.00000000000E+00 0.  1.
          6    1    1    2  501    0 -0.40852495944E+02  0.10113873347E+03 -0.28416472598E+03  0.35010935624E+03  0.17300000000E+03 0.  1.
         -6    1    1    2    0  502  0.40852495944E+02 -0.10113873347E+03 -0.27562158762E+03  0.34321163936E+03  0.17300000000E+03 0.  1.
<mgrwt>
<rscale>  2 0.20451643E+03</rscale>
<asrwt>0</asrwt>
<pdfrwt beam="1">  1       21 0.10271899E-01 0.20451643E+03</pdfrwt>
<pdfrwt beam="2">  1       21 0.96392867E-01 0.20451643E+03</pdfrwt>
<totfact> 0.68893394E+04</totfact>
</mgrwt>
</event>
<event>
 4    1  0.3945814E+000  0.2785865E+03  0.7546771E-02  0.1096463E+00
         21   -1    0    0  501  502  0.00000000000E+00  0.00000000000E+00  0.37663656979E+03  0.37663656979E+03  0.00000000000E+00 0.  1.
         21   -1    0    0  502  503 -0.00000000000E+00 -0.00000000000E+00 -0.21275953811E+03  0.21275953811E+03  0.00000000000E+00 0. -1.
          6    1    1    2  501    0 -0.21191174123E+03  0.52676766604E+02  0.13422570008E+03  0.30923610134E+03  0.17300000000E+03 0. -1.
         -6    1    1    2    0  503  0.21191174123E+03 -0.52676766604E+02  0.29651331599E+02  0.28016000656E+03  0.17300000000E+03 0.  1.
<mgrwt>
<rscale>  2 0.27858648E+03</rscale>
<asrwt>0</asrwt>
<pdfrwt beam="1">  1       21 0.57944088E-01 0.27858648E+03</pdfrwt>
<pdfrwt beam="2">  1       21 0.32732237E-01 0.27858648E+03</pdfrwt>
<totfact> 0.24036027E+04</totfact>
</mgrwt>
</event>
<event>
 4    1  0.3945814E+000  0.2047197E+03  0.7546771E-02  0.1145817E+00
         21   -1    0    0  501  502  0.00000000000E+00  0.00000000000E+00  0.65120561269E+02  0.65120561269E+02  0.00000000000E+00 0.  1.
         21   -1    0    0  502  503 -0.00000000000E+00 -0.00000000000E+00 -0.64402108903E+03  0.64402108903E+03  0.00000000000E+00 0.  1.
          6    1    1    2  501    0 -0.94748423195E+02 -0.54807712086E+02 -0.28014806611E+03  0.34697707122E+03  0.17300000000E+03 0. -1.
         -6    1    1    2    0  503  0.94748423195E+02  0.54807712086E+02 -0.29875246165E+03  0.36216457908E+03  0.17300000000E+03 0. -1.
<mgrwt>
<rscale>  2 0.20471968E+03</rscale>
<asrwt>0</asrwt>
<pdfrwt beam="1">  1       21 0.10018547E-01 0.20471968E+03</pdfrwt>
<pdfrwt beam="2">  1       21 0.99080172E-01 0.20471968E+03</pdfrwt>
<totfact> 0.67477839E+04</totfact>
</mgrwt>
</event>
<event>
 4    1  0.3945814E+000  0.3181045E+03  0.7546771E-02  0.1076525E+00
         21   -1    0    0  503  502  0.00000000000E+00  0.00000000000E+00  0.71721057440E+03  0.71721057440E+03  0.00000000000E+00 0. -1.
         21   -1    0    0  501  503 -0.00000000000E+00 -0.00000000000E+00 -0.29282015403E+03  0.29282015403E+03  0.00000000000E+00 0.  1.
          6    1    1    2  501    0 -0.26547003195E+03 -0.28056493738E+02 -0.15133585171E+03  0.35226842708E+03  0.17300000000E+03 0.  1.
         -6    1    1    2    0  502  0.26547003195E+03  0.28056493738E+02  0.57572627208E+03  0.65776230135E+03  0.17300000000E+03 0. -1.
<mgrwt>
<rscale>  2 0.31810455E+03</rscale>
<asrwt>0</asrwt>
<pdfrwt beam="1">  1       21 0.11034009E+00 0.31810455E+03</pdfrwt>
<pdfrwt beam="2">  1       21 0.45049254E-01 0.31810455E+03</pdfrwt>
<totfact> 0.28135918E+03</totfact>
</mgrwt>
</event>
<event>
 4    1  0.3945814E+000  0.2164754E+03  0.7546771E-02  0.1136538E+00
         21   -1    0    0  503  502  0.00000000000E+00  0.00000000000E+00  0.37304204373E+03  0.37304204373E+03  0.00000000000E+00 0. -1.
         21   -1    0    0  501  503 -0.00000000000E+00 -0.00000000000E+00 -0.12722468811E+03  0.12722468811E+03  0.00000000000E+00 0. -1.
          6    1    1    2  501    0 -0.93786596435E+02 -0.90203395715E+02  0.15099972445E+03  0.26393653603E+03  0.17300000000E+03 0. -1.
         -6    1    1    2    0  502  0.93786596435E+02  0.90203395715E+02  0.94817631174E+02  0.23633019581E+03  0.17300000000E+03 0. -1.
<mgrwt>
<rscale>  2 0.21647535E+03</rscale>
<asrwt>0</asrwt>
<pdfrwt beam="1">  1       21 0.57391083E-01 0.21647535E+03</pdfrwt>
<pdfrwt beam="2">  1       21 0.19573029E-01 0.21647535E+03</pdfrwt>
<totfact> 0.67762866E+04</totfact>
</mgrwt>
</event>
<event>
 4    1  0.3945814E+000  0.2016331E+03  0.7546771E-02  0.1148368E+00
         21   -1    0    0  503  502  0.00000000000E+00  0.00000000000E+00  0.52504299467E+02  0.52504299467E+02  0.00000000000E+00 0.  1.
         21   -1    0    0  501  503 -0.00000000000E+00 -0.00000000000E+00 -0.82256429389E+03  0.82256429389E+03  0.00000000000E+00 0.  1.
          6    1    1    2  501    0 -0.59032748207E+02  0.85100219485E+02 -0.27908438612E+03  0.34430220344E+03  0.17300000000E+03 0.  1.
         -6    1    1    2    0  502  0.59032748207E+02 -0.85100219485E+02 -0.49097560831E+03  0.53076638992E+03  0.17300000000E+03 0.  1.
<mgrwt>
<rscale>  2 0.20163311E+03</rscale>
<asrwt>0</asrwt>
<pdfrwt beam="1">  1       21 0.80775844E-02 0.20163311E+03</pdfrwt>
<pdfrwt beam="2">  1       21 0.12654836E+00 0.20163311E+03</pdfrwt>
<totfact> 0.54321023E+04</totfact>
</mgrwt>
</event>
<event>
 4    1  0.3945814E+000  0.2216849E+03  0.7546771E-02  0.1132633E+00
         21   -1    0    0  501  502  0.00000000000E+00  0.00000000000E+00  0.11704694959E+04  0.11704694959E+04  0.00000000000E+00 0. -1.
         21   -1    0    0  502  503 -0.00000000000E+00 -0.00000000000E+00 -0.58382771420E+03  0.58382771420E+03  0.00000000000E+00 0.  1.
          6    1    1    2  501    0 -0.13816717473E+02  0.13792862626E+03  0.11383404124E+04  0.11597254426E+04  0.17300000000E+03 0. -1.
         -6    1    1    2    0  503  0.13816717473E+02 -0.13792862626E+03 -0.55169863071E+03  0.59457176753E+03  0.17300000000E+03 0.  1.
<mgrwt>
<rscale>  2 0.22168493E+03</rscale>
<asrwt>0</asrwt>
<pdfrwt beam="1">  1       21 0.18007223E+00 0.22168493E+03</pdfrwt>
<pdfrwt beam="2">  1       21 0.89819648E-01 0.22168493E+03</pdfrwt>
<totfact> 0.18500516E+02</totfact>
</mgrwt>
</event>
<event>
 4    1  0.3945814E+000  0.3130041E+03  0.7546771E-02  0.1078915E+00
         21   -1    0    0  503  502  0.00000000000E+00  0.00000000000E+00  0.93016970208E+03  0.93016970208E+03  0.00000000000E+00 0. -1.
         21   -1    0    0  501  503 -0.00000000000E+00 -0.00000000000E+00 -0.12686457326E+03  0.12686457326E+03  0.00000000000E+00 0.  1.
          6    1    1    2  501    0  0.25749352683E+03 -0.41709443954E+02  0.18388584663E+03  0.36302286245E+03  0.17300000000E+03 0.  1.
         -6    1    1    2    0  502 -0.25749352683E+03  0.41709443954E+02  0.61941928218E+03  0.69401141288E+03  0.17300000000E+03 0. -1.
<mgrwt>
<rscale>  2 0.31300414E+03</rscale>
<asrwt>0</asrwt>
<pdfrwt beam="1">  1       21 0.14310303E+00 0.31300414E+03</pdfrwt>
<pdfrwt beam="2">  1       21 0.19517627E-01 0.31300414E+03</pdfrwt>
<totfact> 0.75794718E+03</totfact>
</mgrwt>
</event>
<event>
 4    1  0.3945814E+000  0.3104583E+03  0.7546771E-02  0.1080126E+00
         21   -1    0    0  503  502  0.00000000000E+00  0.00000000000E+00  0.35182790117E+03  0.35182790117E+03  0.00000000000E+00 0.  1.
         21   -1    0    0  501  503 -0.00000000000E+00 -0.00000000000E+00 -0.28872861669E+03  0.28872861669E+03  0.00000000000E+00 0. -1.
          6    1    1    2  501    0 -0.92263363577E+02  0.24071314093E+03 -0.40902940331E+02  0.31314117424E+03  0.17300000000E+03 0.  1.
         -6    1    1    2    0  502  0.92263363577E+02 -0.24071314093E+03  0.10400222481E+03  0.32741534363E+03  0.17300000000E+03 0. -1.
<mgrwt>
<rscale>  2 0.31045828E+03</rscale>
<asrwt>0</asrwt>
<pdfrwt beam="1">  1       21 0.54127369E-01 0.31045828E+03</pdfrwt>
<pdfrwt beam="2">  1       21 0.44419787E-01 0.31045828E+03</pdfrwt>
<totfact> 0.14781172E+04</totfact>
</mgrwt>
</event>
<event>
 4    1  0.3945814E+000  0.1763491E+03  0.7546771E-02  0.1171384E+00
         21   -1    0    0  501  502  0.00000000000E+00  0.00000000000E+00  0.11213772479E+03  0.11213772479E+03  0.00000000000E+00 0.  1.
         21   -1    0    0  502  503 -0.00000000000E+00 -0.00000000000E+00 -0.91162861374E+03  0.91162861374E+03  0.00000000000E+00 0.  1.
          6    1    1    2  501    0  0.30211607249E+02  0.16039230226E+02  0.27236230759E+02  0.17843993495E+03  0.17300000000E+03 0.  1.
         -6    1    1    2    0  503 -0.30211607249E+02 -0.16039230226E+02 -0.82672711971E+03  0.84532640358E+03  0.17300000000E+03 0.  1.
<mgrwt>
<rscale>  2 0.17634908E+03</rscale>
<asrwt>0</asrwt>
<pdfrwt beam="1">  1       21 0.17251958E-01 0.17634908E+03</pdfrwt>
<pdfrwt beam="2">  1       21 0.14025056E+00 0.17634908E+03</pdfrwt>
<totfact> 0.10947526E+04</totfact>
</mgrwt>
</event>
<event>
 4    1  0.3945814E+000  0.1909130E+03  0.7546771E-02  0.1157640E+00
         21   -1    0    0  501  502  0.00000000000E+00  0.00000000000E+00  0.73927849030E+02  0.73927849030E+02  0.00000000000E+00 0. -1.
         21   -1    0    0  502  503 -0.00000000000E+00 -0.00000000000E+00 -0.51818666254E+03  0.51818666254E+03  0.00000000000E+00 0. -1.
          6    1    1    2  501    0  0.55795435203E+02 -0.58357809273E+02 -0.15688216301E+03  0.24710276721E+03  0.17300000000E+03 0. -1.
         -6    1    1    2    0  503 -0.55795435203E+02  0.58357809273E+02 -0.28737665050E+03  0.34501174436E+03  0.17300000000E+03 0. -1.
<mgrwt>
<rscale>  2 0.19091298E+03</rscale>
<asrwt>0</asrwt>
<pdfrwt beam="1">  1       21 0.11373515E-01 0.19091298E+03</pdfrwt>
<pdfrwt beam="2">  1       21 0.79721027E-01 0.19091298E+03</pdfrwt>
<totfact> 0.89588069E+04</totfact>
</mgrwt>
</event>
<event>
 4    1  0.3945814E+000  0.3383812E+03  0.7546771E-02  0.1067487E+00
         21   -1    0    0  503  502  0.00000000000E+00  0.00000000000E+00  0.30653504229E+03  0.30653504229E+03  0.00000000000E+00 0. -1.
         21   -1    0    0  501  503 -0.00000000000E+00 -0.00000000000E+00 -0.37357318882E+03  0.37357318882E+03  0.00000000000E+00 0.  1.
          6    1    1    2  501    0 -0.21673670721E+03  0.19390220265E+03 -0.36913291997E+02  0.34038868309E+03  0.17300000000E+03 0. -1.
         -6    1    1    2    0  502  0.21673670721E+03 -0.19390220265E+03 -0.30124854529E+02  0.33971954802E+03  0.17300000000E+03 0.  1.
<mgrwt>
<rscale>  2 0.33838124E+03</rscale>
<asrwt>0</asrwt>
<pdfrwt beam="1">  1       21 0.47159238E-01 0.33838124E+03</pdfrwt>
<pdfrwt beam="2">  1       21 0.57472798E-01 0.33838124E+03</pdfrwt>
<totfact> 0.11343698E+04</totfact>
</mgrwt>
</event>
<event>
 4    1  0.3945814E+000  0.2006937E+03  0.7546771E-02  0.1149155E+00
         21   -1    0    0  503  502  0.00000000000E+00  0.00000000000E+00  0.18333169464E+04  0.18333169464E+04  0.00000000000E+00 0.  1.
         21   -1    0    0  501  503 -0.00000000000E+00 -0.00000000000E+00 -0.22042093146E+02  0.22042093146E+02  0.00000000000E+00 0. -1.
          6    1    1    2  501    0 -0.46886923778E+02 -0.90280522731E+02  0.95869486970E+03  0.97947629353E+03  0.17300000000E+03 0. -1.
         -6    1    1    2    0  502  0.46886923778E+02  0.90280522731E+02  0.85257998355E+03  0.87588274601E+03  0.17300000000E+03 0. -1.
<mgrwt>
<rscale>  2 0.20069369E+03</rscale>
<asrwt>0</asrwt>
<pdfrwt beam="1">  1       21 0.28204864E+00 0.20069369E+03</pdfrwt>
<pdfrwt beam="2">  1       21 0.33910927E-02 0.20069369E+03</pdfrwt>
<totfact> 0.22193407E+04</totfact>
</mgrwt>
</event>
<event>
 4    1  0.3945814E+000  0.1918877E+03  0.7546771E-02  0.1156770E+00
         21   -1    0    0  501  502  0.00000000000E+00  0.00000000000E+00  0.46953501629E+02  0.46953501629E+02  0.00000000000E+00 0. -1.
         21   -1    0    0  502  503 -0.00000000000E+00 -0.00000000000E+00 -0.80866155963E+03  0.80866155963E+03  0.00000000000E+00 0. -1.
          6    1    1    2  501    0  0.78069088670E+02 -0.28233106782E+02 -0.45526134086E+03  0.49404835736E+03  0.17300000000E+03 0. -1.
         -6    1    1    2    0  503 -0.78069088670E+02  0.28233106782E+02 -0.30644671714E+03  0.36156670390E+03  0.17300000000E+03 0. -1.
<mgrwt>
<rscale>  2 0.19188770E+03</rscale>
<asrwt>0</asrwt>
<pdfrwt beam="1">  1       21 0.72236156E-02 0.19188770E+03</pdfrwt>
<pdfrwt beam="2">  1       21 0.12440947E+00 0.19188770E+03</pdfrwt>
<totfact> 0.69182285E+04</totfact>
</mgrwt>
</event>
<event>
 4    1  0.3945814E+000  0.2355938E+03  0.7546771E-02  0.1122763E+00
         21   -1    0    0  503  502  0.00000000000E+00  0.00000000000E+00  0.30778438637E+03  0.30778438637E+03  0.00000000000E+00 0.  1.
         21   -1    0    0  501  503 -0.00000000000E+00 -0.00000000000E+00 -0.18876312668E+03  0.18876312668E+03  0.00000000000E+00 0. -1.
          6    1    1    2  501    0 -0.12388102586E+02  0.15944267455E+03  0.11197041702E+03  0.26084824293E+03  0.17300000000E+03 0.  1.
         -6    1    1    2    0  502  0.12388102586E+02 -0.15944267455E+03  0.70508426704E+01  0.23569927012E+03  0.17300000000E+03 0. -1.
<mgrwt>
<rscale>  2 0.23559379E+03</rscale>
<asrwt>0</asrwt>
<pdfrwt beam="1">  1       21 0.47351444E-01 0.23559379E+03</pdfrwt>
<pdfrwt beam="2">  1       21 0.29040481E-01 0.23559379E+03</pdfrwt>
<totfact> 0.47475350E+04</totfact>
</mgrwt>
</event>
<event>
 4    1  0.3945814E+000  0.1796225E+03  0.7546771E-02  0.1168169E+00
         21   -1    0    0  501  502  0.00000000000E+00  0.00000000000E+00  0.10389258811E+04  0.10389258811E+04  0.00000000000E+00 0.  1.
         21   -1    0    0  502  503 -0.00000000000E+00 -0.00000000000E+00 -0.41408895545E+02  0.41408895545E+02  0.00000000000E+00 0. -1.
          6    1    1    2  501    0 -0.46355572979E+02  0.13653479978E+02  0.76885880182E+03  0.78956197590E+03  0.17300000000E+03 0.  1.
         -6    1    1    2    0  503  0.46355572979E+02 -0.13653479978E+02  0.22865818375E+03  0.29077280075E+03  0.17300000000E+03 0. -1.
<mgrwt>
<rscale>  2 0.17962254E+03</rscale>
<asrwt>0</asrwt>
<pdfrwt beam="1">  1       21 0.15983473E+00 0.17962254E+03</pdfrwt>
<pdfrwt beam="2">  1       21 0.63706001E-02 0.17962254E+03</pdfrwt>
<totfact> 0.45254031E+04</totfact>
</mgrwt>
</event>
<event>
 4    1  0.3945814E+000  0.1871578E+03  0.7546771E-02  0.1161050E+00
         21   -1    0    0  503  502  0.00000000000E+00  0.00000000000E+00  0.28196526401E+02  0.28196526401E+02  0.00000000000E+00 0.  1.
         21   -1    0    0  501  503 -0.00000000000E+00 -0.00000000000E+00 -0.12488709028E+04  0.12488709028E+04  0.00000000000E+00 0.  1.
          6    1    1    2  501    0 -0.21802654652E+02 -0.67997663887E+02 -0.56395719989E+03  0.59420178505E+03  0.17300000000E+03 0.  1.
         -6    1    1    2    0  502  0.21802654652E+02  0.67997663887E+02 -0.65671717646E+03  0.68286564411E+03  0.17300000000E+03 0.  1.
<mgrwt>
<rscale>  2 0.18715779E+03</rscale>
<asrwt>0</asrwt>
<pdfrwt beam="1">  1       21 0.43379265E-02 0.18715779E+03</pdfrwt>
<pdfrwt beam="2">  1       21 0.19213401E+00 0.18715779E+03</pdfrwt>
<totfact> 0.51818440E+04</totfact>
</mgrwt>
</event>
<event>
 4    1  0.3945814E+000  0.1996801E+03  0.7546771E-02  0.1150009E+00
         21   -1    0    0  501  502  0.00000000000E+00  0.00000000000E+00  0.11581847572E+03  0.11581847572E+03  0.00000000000E+00 0. -1.
         21   -1    0    0  502  503 -0.00000000000E+00 -0.00000000000E+00 -0.35725155270E+03  0.35725155270E+03  0.00000000000E+00 0. -1.
          6    1    1    2  501    0 -0.69477488362E+02 -0.71526263540E+02 -0.16581613007E+03  0.25955176123E+03  0.17300000000E+03 0. -1.
         -6    1    1    2    0  503  0.69477488362E+02  0.71526263540E+02 -0.75616946912E+02  0.21351826719E+03  0.17300000000E+03 0. -1.
<mgrwt>
<rscale>  2 0.19968006E+03</rscale>
<asrwt>0</asrwt>
<pdfrwt beam="1">  1       21 0.17818227E-01 0.19968006E+03</pdfrwt>
<pdfrwt beam="2">  1       21 0.54961777E-01 0.19968006E+03</pdfrwt>
<totfact> 0.89099159E+04</totfact>
</mgrwt>
</event>
<event>
 4    1  0.3945814E+000  0.2328414E+03  0.7546771E-02  0.1124656E+00
         21   -1    0    0  501  502  0.00000000000E+00  0.00000000000E+00  0.86038362499E+02  0.86038362499E+02  0.00000000000E+00 0.  1.
         21   -1    0    0  502  503 -0.00000000000E+00 -0.00000000000E+00 -0.88564335725E+03  0.88564335725E+03  0.00000000000E+00 0.  1.
          6    1    1    2  501    0 -0.15576799226E+03  0.47363956488E+01 -0.13884252348E+03  0.27109471995E+03  0.17300000000E+03 0.  1.
         -6    1    1    2    0  503  0.15576799226E+03 -0.47363956488E+01 -0.66076247127E+03  0.70058699981E+03  0.17300000000E+03 0.  1.
<mgrwt>
<rscale>  2 0.23284136E+03</rscale>
<asrwt>0</asrwt>
<pdfrwt beam="1">  1       21 0.13236671E-01 0.23284136E+03</pdfrwt>
<pdfrwt beam="2">  1       21 0.13625283E+00 0.23284136E+03</pdfrwt>
<totfact> 0.18409046E+04</totfact>
</mgrwt>
</event>
<event>
 4    1  0.3945814E+000  0.2194314E+03  0.7546771E-02  0.1134308E+00
         21   -1    0    0  503  502  0.00000000000E+00  0.00000000000E+00  0.45360608563E+03  0.45360608563E+03  0.00000000000E+00 0.  1.
         21   -1    0    0  501  503 -0.00000000000E+00 -0.00000000000E+00 -0.11172201427E+03  0.11172201427E+03  0.00000000000E+00 0.  1.
          6    1    1    2  501    0  0.60903657358E+02 -0.12046537028E+03  0.23406945764E+03  0.32084057087E+03  0.17300000000E+03 0.  1.
         -6    1    1    2    0  502 -0.60903657358E+02  0.12046537028E+03  0.10781461372E+03  0.24448752902E+03  0.17300000000E+03 0.  1.
<mgrwt>
<rscale>  2 0.21943145E+03</rscale>
<asrwt>0</asrwt>
<pdfrwt beam="1">  1       21 0.69785551E-01 0.21943145E+03</pdfrwt>
<pdfrwt beam="2">  1       21 0.17188002E-01 0.21943145E+03</pdfrwt>
<totfact> 0.56321699E+04</totfact>
</mgrwt>
</event>
<event>
 4    1  0.3945814E+000  0.2699647E+03  0.7546771E-02  0.1101300E+00
         21   -1    0    0  503  502  0.00000000000E+00  0.00000000000E+00  0.70999481456E+03  0.70999481456E+03  0.00000000000E+00 0.  1.
         21   -1    0    0  501  503 -0.00000000000E+00 -0.00000000000E+00 -0.15310010975E+03  0.15310010975E+03  0.00000000000E+00 0.  1.
          6    1    1    2  501    0  0.16405357922E+03 -0.12664256429E+03  0.30721011742E+02  0.27170700489E+03  0.17300000000E+03 0.  1.
         -6    1    1    2    0  502 -0.16405357922E+03  0.12664256429E+03  0.52617369307E+03  0.59138791941E+03  0.17300000000E+03 0.  1.
<mgrwt>
<rscale>  2 0.26996466E+03</rscale>
<asrwt>0</asrwt>
<pdfrwt beam="1">  1       21 0.10922997E+00 0.26996466E+03</pdfrwt>
<pdfrwt beam="2">  1       21 0.23553863E-01 0.26996466E+03</pdfrwt>
<totfact> 0.10750806E+04</totfact>
</mgrwt>
</event>
<event>
 4    1  0.3945814E+000  0.2058076E+03  0.7546771E-02  0.1144930E+00
         21   -1    0    0  503  502  0.00000000000E+00  0.00000000000E+00  0.21193606395E+03  0.21193606395E+03  0.00000000000E+00 0.  1.
         21   -1    0    0  501  503 -0.00000000000E+00 -0.00000000000E+00 -0.27220064308E+03  0.27220064308E+03  0.00000000000E+00 0.  1.
          6    1    1    2  501    0 -0.96208634588E+02 -0.56317648855E+02 -0.15492678485E+03  0.25760257686E+03  0.17300000000E+03 0.  1.
         -6    1    1    2    0  502  0.96208634588E+02  0.56317648855E+02  0.94662205721E+02  0.22653413017E+03  0.17300000000E+03 0.  1.
<mgrwt>
<rscale>  2 0.20580763E+03</rscale>
<asrwt>0</asrwt>
<pdfrwt beam="1">  1       21 0.32605548E-01 0.20580763E+03</pdfrwt>
<pdfrwt beam="2">  1       21 0.41877022E-01 0.20580763E+03</pdfrwt>
<totfact> 0.49370046E+04</totfact>
</mgrwt>
</event>
<event>
 4    1  0.3945814E+000  0.1930169E+03  0.7546771E-02  0.1155768E+00
         21   -1    0    0  501  502  0.00000000000E+00  0.00000000000E+00  0.48120671773E+02  0.48120671773E+02  0.00000000000E+00 0. -1.
         21   -1    0    0  502  503 -0.00000000000E+00 -0.00000000000E+00 -0.91196236094E+03  0.91196236094E+03  0.00000000000E+00 0. -1.
          6    1    1    2  501    0 -0.44199497846E+02 -0.73300387574E+02 -0.61848948676E+03  0.64790800864E+03  0.17300000000E+03 0. -1.
         -6    1    1    2    0  503  0.44199497846E+02  0.73300387574E+02 -0.24535220240E+03  0.31217502407E+03  0.17300000000E+03 0. -1.
<mgrwt>
<rscale>  2 0.19301695E+03</rscale>
<asrwt>0</asrwt>
<pdfrwt beam="1">  1       21 0.74031806E-02 0.19301695E+03</pdfrwt>
<pdfrwt beam="2">  1       21 0.14030190E+00 0.19301695E+03</pdfrwt>
<totfact> 0.48849757E+04</totfact>
</mgrwt>
</event>
<event>
 4    1  0.3945814E+000  0.1870623E+03  0.7546771E-02  0.1161138E+00
         21   -1    0    0  501  502  0.00000000000E+00  0.00000000000E+00  0.96421454171E+03  0.96421454171E+03  0.00000000000E+00 0. -1.
         21   -1    0    0  502  503 -0.00000000000E+00 -0.00000000000E+00 -0.52207933426E+02  0.52207933426E+02  0.00000000000E+00 0. -1.
          6    1    1    2  501    0 -0.39375504706E+02 -0.59269347556E+02  0.17539142496E+03  0.25642628157E+03  0.17300000000E+03 0. -1.
         -6    1    1    2    0  503  0.39375504706E+02  0.59269347556E+02  0.73661518332E+03  0.75999619357E+03  0.17300000000E+03 0. -1.
<mgrwt>
<rscale>  2 0.18706225E+03</rscale>
<asrwt>0</asrwt>
<pdfrwt beam="1">  1       21 0.14834069E+00 0.18706225E+03</pdfrwt>
<pdfrwt beam="2">  1       21 0.80319905E-02 0.18706225E+03</pdfrwt>
<totfact> 0.36798909E+04</totfact>
</mgrwt>
</event>
<event>
 4    1  0.3945814E+000  0.1867429E+03  0.7546771E-02  0.1161432E+00
         21   -1    0    0  501  502  0.00000000000E+00  0.00000000000E+00  0.14983384648E+03  0.14983384648E+03  0.00000000000E+00 0.  1.
         21   -1    0    0  502  503 -0.00000000000E+00 -0.00000000000E+00 -0.34697981596E+03  0.34697981596E+03  0.00000000000E+00 0. -1.
          6    1    1    2  501    0  0.16529102412E+02  0.68342612136E+02  0.43959099193E+02  0.19184714296E+03  0.17300000000E+03 0.  1.
         -6    1    1    2    0  503 -0.16529102412E+02 -0.68342612136E+02 -0.24110506868E+03  0.30496651948E+03  0.17300000000E+03 0. -1.
<mgrwt>
<rscale>  2 0.18674294E+03</rscale>
<asrwt>0</asrwt>
<pdfrwt beam="1">  1       21 0.23051361E-01 0.18674294E+03</pdfrwt>
<pdfrwt beam="2">  1       21 0.53381509E-01 0.18674294E+03</pdfrwt>
<totfact> 0.58870371E+04</totfact>
</mgrwt>
</event>
<event>
 4    1  0.3945814E+000  0.2360078E+03  0.7546771E-02  0.1122481E+00
         21   -1    0    0  503  502  0.00000000000E+00  0.00000000000E+00  0.14076399001E+04  0.14076399001E+04  0.00000000000E+00 0. -1.
         21   -1    0    0  501  503 -0.00000000000E+00 -0.00000000000E+00 -0.41544805977E+02  0.41544805977E+02  0.00000000000E+00 0. -1.
          6    1    1    2  501    0 -0.11455661939E+03 -0.11246096351E+03  0.52505147350E+03  0.57565505052E+03  0.17300000000E+03 0. -1.
         -6    1    1    2    0  502  0.11455661939E+03  0.11246096351E+03  0.84104362062E+03  0.87352965556E+03  0.17300000000E+03 0. -1.
<mgrwt>
<rscale>  2 0.23600781E+03</rscale>
<asrwt>0</asrwt>
<pdfrwt beam="1">  1       21 0.21655995E+00 0.23600781E+03</pdfrwt>
<pdfrwt beam="2">  1       21 0.63915097E-02 0.23600781E+03</pdfrwt>
<totfact> 0.18088560E+04</totfact>
</mgrwt>
</event>
<event>
 4    1  0.3945814E+000  0.1786295E+03  0.7546771E-02  0.1169136E+00
         21   -1    0    0  503  502  0.00000000000E+00  0.00000000000E+00  0.43115786450E+02  0.43115786450E+02  0.00000000000E+00 0.  1.
         21   -1    0    0  501  503 -0.00000000000E+00 -0.00000000000E+00 -0.12851616365E+04  0.12851616365E+04  0.00000000000E+00 0.  1.
          6    1    1    2  501    0 -0.99779760978E+01  0.43358447043E+02 -0.10535530778E+04  0.10685890710E+04  0.17300000000E+03 0.  1.
         -6    1    1    2    0  502  0.99779760978E+01 -0.43358447043E+02 -0.18849277220E+03  0.25968835189E+03  0.17300000000E+03 0.  1.
<mgrwt>
<rscale>  2 0.17862955E+03</rscale>
<asrwt>0</asrwt>
<pdfrwt beam="1">  1       21 0.66331968E-02 0.17862955E+03</pdfrwt>
<pdfrwt beam="2">  1       21 0.19771721E+00 0.17862955E+03</pdfrwt>
<totfact> 0.23296854E+04</totfact>
</mgrwt>
</event>
<event>
 4    1  0.3945814E+000  0.2205110E+03  0.7546771E-02  0.1133503E+00
         21   -1    0    0  503  502  0.00000000000E+00  0.00000000000E+00  0.50169945156E+02  0.50169945156E+02  0.00000000000E+00 0.  1.
         21   -1    0    0  501  503 -0.00000000000E+00 -0.00000000000E+00 -0.99882383771E+03  0.99882383771E+03  0.00000000000E+00 0. -1.
          6    1    1    2  501    0 -0.28881288277E+02  0.13364871184E+03 -0.56464222824E+03  0.60617320371E+03  0.17300000000E+03 0. -1.
         -6    1    1    2    0  502  0.28881288277E+02 -0.13364871184E+03 -0.38401166432E+03  0.44282057915E+03  0.17300000000E+03 0.  1.
<mgrwt>
<rscale>  2 0.22051101E+03</rscale>
<asrwt>0</asrwt>
<pdfrwt beam="1">  1       21 0.77184536E-02 0.22051101E+03</pdfrwt>
<pdfrwt beam="2">  1       21 0.15366520E+00 0.22051101E+03</pdfrwt>
<totfact> 0.35227996E+04</totfact>
</mgrwt>
</event>
<event>
 4    1  0.3945814E+000  0.2261648E+03  0.7546771E-02  0.1129369E+00
         21   -1    0    0  501  502  0.00000000000E+00  0.00000000000E+00  0.88098981495E+02  0.88098981495E+02  0.00000000000E+00 0.  1.
         21   -1    0    0  502  503 -0.00000000000E+00 -0.00000000000E+00 -0.58289410584E+03  0.58289410584E+03  0.00000000000E+00 0.  1.
          6    1    1    2  501    0  0.12814977354E+03  0.69276071268E+02 -0.22636414593E+03  0.31998635138E+03  0.17300000000E+03 0.  1.
         -6    1    1    2    0  503 -0.12814977354E+03 -0.69276071268E+02 -0.26843097842E+03  0.35100673595E+03  0.17300000000E+03 0.  1.
<mgrwt>
<rscale>  2 0.22616485E+03</rscale>
<asrwt>0</asrwt>
<pdfrwt beam="1">  1       21 0.13553690E-01 0.22616485E+03</pdfrwt>
<pdfrwt beam="2">  1       21 0.89676012E-01 0.22616485E+03</pdfrwt>
<totfact> 0.49138948E+04</totfact>
</mgrwt>
</event>
<event>
 4    1  0.3945814E+000  0.3101027E+03  0.7546771E-02  0.1080297E+00
         21   -1    0    0  503  502  0.00000000000E+00  0.00000000000E+00  0.91525830763E+02  0.91525830763E+02  0.00000000000E+00 0. -1.
         21   -1    0    0  501  503 -0.00000000000E+00 -0.00000000000E+00 -0.10791002347E+04  0.10791002347E+04  0.00000000000E+00 0. -1.
          6    1    1    2  501    0 -0.25733649153E+03 -0.35555290928E+01 -0.58878755872E+03  0.66545811360E+03  0.17300000000E+03 0. -1.
         -6    1    1    2    0  502  0.25733649153E+03  0.35555290928E+01 -0.39878684517E+03  0.50516795182E+03  0.17300000000E+03 0. -1.
<mgrwt>
<rscale>  2 0.31010274E+03</rscale>
<asrwt>0</asrwt>
<pdfrwt beam="1">  1       21 0.14080897E-01 0.31010274E+03</pdfrwt>
<pdfrwt beam="2">  1       21 0.16601542E+00 0.31010274E+03</pdfrwt>
<totfact> 0.93047548E+03</totfact>
</mgrwt>
</event>
<event>
 4    1  0.3945814E+000  0.2723755E+03  0.7546771E-02  0.1099928E+00
         21   -1    0    0  501  502  0.00000000000E+00  0.00000000000E+00  0.59805900706E+02  0.59805900706E+02  0.00000000000E+00 0. -1.
         21   -1    0    0  502  503 -0.00000000000E+00 -0.00000000000E+00 -0.19965624254E+04  0.19965624254E+04  0.00000000000E+00 0. -1.
          6    1    1    2  501    0  0.96017860187E+01  0.21016004526E+03 -0.33565756504E+03  0.43226663055E+03  0.17300000000E+03 0. -1.
         -6    1    1    2    0  503 -0.96017860187E+01 -0.21016004526E+03 -0.16010989597E+04  0.16241016956E+04  0.17300000000E+03 0. -1.
<mgrwt>
<rscale>  2 0.27237555E+03</rscale>
<asrwt>0</asrwt>
<pdfrwt beam="1">  1       21 0.92009080E-02 0.27237555E+03</pdfrwt>
<pdfrwt beam="2">  1       21 0.30716345E+00 0.27237555E+03</pdfrwt>
<totfact> 0.26831973E+03</totfact>
</mgrwt>
</event>
<event>
 4    1  0.3945814E+000  0.1781910E+03  0.7546771E-02  0.1169565E+00
         21   -1    0    0  501  502  0.00000000000E+00  0.00000000000E+00  0.10875139616E+04  0.10875139616E+04  0.00000000000E+00 0.  1.
         21   -1    0    0  502  503 -0.00000000000E+00 -0.00000000000E+00 -0.50583313196E+02  0.50583313196E+02  0.00000000000E+00 0.  1.
          6    1    1    2  501    0 -0.40485575892E+02 -0.13562610016E+02  0.88847648406E+03  0.90616912824E+03  0.17300000000E+03 0.  1.
         -6    1    1    2    0  503  0.40485575892E+02  0.13562610016E+02  0.14845416429E+03  0.23192814651E+03  0.17300000000E+03 0.  1.
<mgrwt>
<rscale>  2 0.17819098E+03</rscale>
<asrwt>0</asrwt>
<pdfrwt beam="1">  1       21 0.16730982E+00 0.17819098E+03</pdfrwt>
<pdfrwt beam="2">  1       21 0.77820490E-02 0.17819098E+03</pdfrwt>
<totfact> 0.28339886E+04</totfact>
</mgrwt>
</event>
<event>
 4    1  0.3945814E+000  0.1923231E+03  0.7546771E-02  0.1156383E+00
         21   -1    0    0  503  502  0.00000000000E+00  0.00000000000E+00  0.11782569016E+03  0.11782569016E+03  0.00000000000E+00 0.  1.
         21   -1    0    0  501  503 -0.00000000000E+00 -0.00000000000E+00 -0.38480157993E+03  0.38480157993E+03  0.00000000000E+00 0.  1.
          6    1    1    2  501    0 -0.69177244996E+02 -0.47683220255E+02 -0.24134671935E+03  0.30860398516E+03  0.17300000000E+03 0.  1.
         -6    1    1    2    0  502  0.69177244996E+02  0.47683220255E+02 -0.25629170421E+02  0.19402328493E+03  0.17300000000E+03 0.  1.
<mgrwt>
<rscale>  2 0.19232312E+03</rscale>
<asrwt>0</asrwt>
<pdfrwt beam="1">  1       21 0.18127029E-01 0.19232312E+03</pdfrwt>
<pdfrwt beam="2">  1       21 0.59200243E-01 0.19232312E+03</pdfrwt>
<totfact> 0.73921053E+04</totfact>
</mgrwt>
</event>
<event>
 4    1  0.3945814E+000  0.2305511E+03  0.7546771E-02  0.1126252E+00
         21   -1    0    0  503  502  0.00000000000E+00  0.00000000000E+00  0.17344320689E+04  0.17344320689E+04  0.00000000000E+00 0. -1.
         21   -1    0    0  501  503 -0.00000000000E+00 -0.00000000000E+00 -0.44085669593E+02  0.44085669593E+02  0.00000000000E+00 0. -1.
          6    1    1    2  501    0 -0.54760143427E+02  0.14221857124E+03  0.35418602663E+03  0.42261275037E+03  0.17300000000E+03 0. -1.
         -6    1    1    2    0  502  0.54760143427E+02 -0.14221857124E+03  0.13361603727E+04  0.13559049882E+04  0.17300000000E+03 0. -1.
<mgrwt>
<rscale>  2 0.23055107E+03</rscale>
<asrwt>0</asrwt>
<pdfrwt beam="1">  1       21 0.26683565E+00 0.23055107E+03</pdfrwt>
<pdfrwt beam="2">  1       21 0.67824120E-02 0.23055107E+03</pdfrwt>
<totfact> 0.81705398E+03</totfact>
</mgrwt>
</event>
<event>
 4    1  0.3945814E+000  0.2115212E+03  0.7546771E-02  0.1140367E+00
         21   -1    0    0  503  502  0.00000000000E+00  0.00000000000E+00  0.11050980233E+04  0.11050980233E+04  0.00000000000E+00 0.  1.
         21   -1    0    0  501  503 -0.00000000000E+00 -0.00000000000E+00 -0.50639024111E+02  0.50639024111E+02  0.00000000000E+00 0. -1.
          6    1    1    2  501    0  0.85503754842E+02 -0.86610262101E+02  0.26847994368E+03  0.34179337289E+03  0.17300000000E+03 0. -1.
         -6    1    1    2    0  502 -0.85503754842E+02  0.86610262101E+02  0.78597905549E+03  0.81394367450E+03  0.17300000000E+03 0.  1.
<mgrwt>
<rscale>  2 0.21152123E+03</rscale>
<asrwt>0</asrwt>
<pdfrwt beam="1">  1       21 0.17001506E+00 0.21152123E+03</pdfrwt>
<pdfrwt beam="2">  1       21 0.77906199E-02 0.21152123E+03</pdfrwt>
<totfact> 0.26475799E+04</totfact>
</mgrwt>
</event>
<event>
 4    1  0.3945814E+000  0.1883706E+03  0.7546771E-02  0.1159939E+00
         21   -1    0    0  501  502  0.00000000000E+00  0.00000000000E+00  0.20826295643E+04  0.20826295643E+04  0.00000000000E+00 0.  1.
         21   -1    0    0  502  503 -0.00000000000E+00 -0.00000000000E+00 -0.19132096476E+02  0.19132096476E+02  0.00000000000E+00 0.  1.
          6    1    1    2  501    0 -0.13809465241E+02  0.73237833767E+02  0.13794357717E+04  0.13922379573E+04  0.17300000000E+03 0.  1.
         -6    1    1    2    0  503  0.13809465241E+02 -0.73237833767E+02  0.68406169611E+03  0.70952370342E+03  0.17300000000E+03 0.  1.
<mgrwt>
<rscale>  2 0.18837060E+03</rscale>
<asrwt>0</asrwt>
<pdfrwt beam="1">  1       21 0.32040437E+00 0.18837060E+03</pdfrwt>
<pdfrwt beam="2">  1       21 0.29434011E-02 0.18837060E+03</pdfrwt>
<totfact> 0.17077870E+04</totfact>
</mgrwt>
</event>
<event>
 4    1  0.3945814E+000  0.1730934E+03  0.7546771E-02  0.1174660E+00
         21   -1    0    0  501  502  0.00000000000E+00  0.00000000000E+00  0.65503727298E+02  0.65503727298E+02  0.00000000000E+00 0.  1.
         21   -1    0    0  502  503 -0.00000000000E+00 -0.00000000000E+00 -0.53671610681E+03  0.53671610681E+03  0.00000000000E+00 0.  1.
          6    1    1    2  501    0 -0.26113381015E+01  0.50516106936E+01 -0.35136025174E+03  0.39168273432E+03  0.17300000000E+03 0.  1.
         -6    1    1    2    0  503  0.26113381015E+01 -0.50516106936E+01 -0.11985212777E+03  0.21053709979E+03  0.17300000000E+03 0.  1.
<mgrwt>
<rscale>  2 0.17309344E+03</rscale>
<asrwt>0</asrwt>
<pdfrwt beam="1">  1       21 0.10077497E-01 0.17309344E+03</pdfrwt>
<pdfrwt beam="2">  1       21 0.82571708E-01 0.17309344E+03</pdfrwt>
<totfact> 0.10327009E+05</totfact>
</mgrwt>
</event>
<event>
 4    1  0.3945814E+000  0.2917665E+03  0.7546771E-02  0.1089430E+00
         21   -1    0    0  501  502  0.00000000000E+00  0.00000000000E+00  0.61797663452E+03  0.61797663452E+03  0.00000000000E+00 0.  1.
         21   -1    0    0  502  503 -0.00000000000E+00 -0.00000000000E+00 -0.14055133691E+03  0.14055133691E+03  0.00000000000E+00 0. -1.
          6    1    1    2  501    0 -0.22666071800E+03  0.61835464364E+02  0.18519117648E+03  0.34557702121E+03  0.17300000000E+03 0.  1.
         -6    1    1    2    0  503  0.22666071800E+03 -0.61835464364E+02  0.29223412112E+03  0.41295095022E+03  0.17300000000E+03 0.  1.
<mgrwt>
<rscale>  2 0.29176653E+03</rscale>
<asrwt>0</asrwt>
<pdfrwt beam="1">  1       21 0.95073327E-01 0.29176653E+03</pdfrwt>
<pdfrwt beam="2">  1       21 0.21623283E-01 0.29176653E+03</pdfrwt>
<totfact> 0.17498887E+04</totfact>
</mgrwt>
</event>
<event>
 4    1  0.3945814E+000  0.2362034E+03  0.7546771E-02  0.1122348E+00
         21   -1    0    0  503  502  0.00000000000E+00  0.00000000000E+00  0.68629403083E+03  0.68629403083E+03  0.00000000000E+00 0. -1.
         21   -1    0    0  501  503 -0.00000000000E+00 -0.00000000000E+00 -0.81342704472E+02  0.81342704472E+02  0.00000000000E+00 0. -1.
          6    1    1    2  501    0 -0.70883041798E+02 -0.14435599341E+03  0.29315029584E+03  0.37646932730E+03  0.17300000000E+03 0. -1.
         -6    1    1    2    0  502  0.70883041798E+02  0.14435599341E+03  0.31180103051E+03  0.39116740800E+03  0.17300000000E+03 0. -1.
<mgrwt>
<rscale>  2 0.23620343E+03</rscale>
<asrwt>0</asrwt>
<pdfrwt beam="1">  1       21 0.10558369E+00 0.23620343E+03</pdfrwt>
<pdfrwt beam="2">  1       21 0.12514263E-01 0.23620343E+03</pdfrwt>
<totfact> 0.38371756E+04</totfact>
</mgrwt>
</event>
<event>
 4    1  0.3945814E+000  0.2093908E+03  0.7546771E-02  0.1142049E+00
         21   -1    0    0  503  502  0.00000000000E+00  0.00000000000E+00  0.63087221597E+03  0.63087221597E+03  0.00000000000E+00 0. -1.
         21   -1    0    0  501  503 -0.00000000000E+00 -0.00000000000E+00 -0.82335807806E+02  0.82335807806E+02  0.00000000000E+00 0.  1.
          6    1    1    2  501    0 -0.13251138362E+02 -0.11721742461E+03  0.13345836785E+03  0.24830556428E+03  0.17300000000E+03 0.  1.
         -6    1    1    2    0  502  0.13251138362E+02  0.11721742461E+03  0.41507804031E+03  0.46490245950E+03  0.17300000000E+03 0. -1.
<mgrwt>
<rscale>  2 0.20939082E+03</rscale>
<asrwt>0</asrwt>
<pdfrwt beam="1">  1       21 0.97057261E-01 0.20939082E+03</pdfrwt>
<pdfrwt beam="2">  1       21 0.12667048E-01 0.20939082E+03</pdfrwt>
<totfact> 0.46514475E+04</totfact>
</mgrwt>
</event>
<event>
 4    1  0.3945814E+000  0.1983228E+03  0.7546771E-02  0.1151162E+00
         21   -1    0    0  501  502  0.00000000000E+00  0.00000000000E+00  0.11361875981E+04  0.11361875981E+04  0.00000000000E+00 0.  1.
         21   -1    0    0  502  503 -0.00000000000E+00 -0.00000000000E+00 -0.34979495230E+02  0.34979495230E+02  0.00000000000E+00 0.  1.
          6    1    1    2  501    0  0.85999302313E+02  0.44800251014E+02  0.61017715819E+03  0.64159808827E+03  0.17300000000E+03 0. -1.
         -6    1    1    2    0  503 -0.85999302313E+02 -0.44800251014E+02  0.49103094465E+03  0.52956900503E+03  0.17300000000E+03 0. -1.
<mgrwt>
<rscale>  2 0.19832282E+03</rscale>
<asrwt>0</asrwt>
<pdfrwt beam="1">  1       21 0.17479806E+00 0.19832282E+03</pdfrwt>
<pdfrwt beam="2">  1       21 0.53814617E-02 0.19832282E+03</pdfrwt>
<totfact> 0.46738786E+04</totfact>
</mgrwt>
</event>
<event>
 4    1  0.3945814E+000  0.1871256E+03  0.7546771E-02  0.1161080E+00
         21   -1    0    0  503  502  0.00000000000E+00  0.00000000000E+00  0.12336007088E+04  0.12336007088E+04  0.00000000000E+00 0.  1.
         21   -1    0    0  501  503 -0.00000000000E+00 -0.00000000000E+00 -0.38552976294E+02  0.38552976294E+02  0.00000000000E+00 0. -1.
          6    1    1    2  501    0  0.76297607387E+01 -0.70913758967E+02  0.27086525485E+03  0.32921719388E+03  0.17300000000E+03 0. -1.
         -6    1    1    2    0  502 -0.76297607387E+01  0.70913758967E+02  0.92418247766E+03  0.94293649122E+03  0.17300000000E+03 0.  1.
<mgrwt>
<rscale>  2 0.18712556E+03</rscale>
<asrwt>0</asrwt>
<pdfrwt beam="1">  1       21 0.18978469E+00 0.18712556E+03</pdfrwt>
<pdfrwt beam="2">  1       21 0.59312281E-02 0.18712556E+03</pdfrwt>
<totfact> 0.31588755E+04</totfact>
</mgrwt>
</event>
<event>
 4    1  0.3945814E+000  0.1968820E+03  0.7546771E-02  0.1152397E+00
         21   -1    0    0  501  502  0.00000000000E+00  0.00000000000E+00  0.54531009568E+03  0.54531009568E+03  0.00000000000E+00 0. -1.
         21   -1    0    0  502  503 -0.00000000000E+00 -0.00000000000E+00 -0.16357892303E+03  0.16357892303E+03  0.00000000000E+00 0.  1.
          6    1    1    2  501    0 -0.84383839962E+02 -0.41387024332E+02  0.45739481345E+03  0.49796840622E+03  0.17300000000E+03 0. -1.
         -6    1    1    2    0  503  0.84383839962E+02  0.41387024332E+02 -0.75663640798E+02  0.21092061248E+03  0.17300000000E+03 0.  1.
<mgrwt>
<rscale>  2 0.19688199E+03</rscale>
<asrwt>0</asrwt>
<pdfrwt beam="1">  1       21 0.83893860E-01 0.19688199E+03</pdfrwt>
<pdfrwt beam="2">  1       21 0.25165988E-01 0.19688199E+03</pdfrwt>
<totfact> 0.18417899E+04</totfact>
</mgrwt>
</event>
<event>
 4    1  0.3945814E+000  0.1801394E+03  0.7546771E-02  0.1167668E+00
         21   -1    0    0  503  502  0.00000000000E+00  0.00000000000E+00  0.31332536101E+02  0.31332536101E+02  0.00000000000E+00 0.  1.
         21   -1    0    0  501  503 -0.00000000000E+00 -0.00000000000E+00 -0.20049464571E+04  0.20049464571E+04  0.00000000000E+00 0.  1.
          6    1    1    2  501    0  0.43399013375E+02  0.25253027585E+02 -0.16947194424E+04  0.17042664634E+04  0.17300000000E+03 0.  1.
         -6    1    1    2    0  502 -0.43399013375E+02 -0.25253027585E+02 -0.27889447861E+03  0.33201252983E+03  0.17300000000E+03 0.  1.
<mgrwt>
<rscale>  2 0.18013936E+03</rscale>
<asrwt>0</asrwt>
<pdfrwt beam="1">  1       21 0.48203880E-02 0.18013936E+03</pdfrwt>
<pdfrwt beam="2">  1       21 0.30845344E+00 0.18013936E+03</pdfrwt>
<totfact> 0.88595645E+03</totfact>
</mgrwt>
</event>
<event>
 4    1  0.3945814E+000  0.2513956E+03  0.7546771E-02  0.1112426E+00
         21   -1    0    0  501  502  0.00000000000E+00  0.00000000000E+00  0.12463596339E+03  0.12463596339E+03  0.00000000000E+00 0. -1.
         21   -1    0    0  502  503 -0.00000000000E+00 -0.00000000000E+00 -0.53739484179E+03  0.53739484179E+03  0.00000000000E+00 0.  1.
          6    1    1    2  501    0 -0.33739707795E+02  0.17925502738E+03 -0.12775316385E+03  0.28199397795E+03  0.17300000000E+03 0. -1.
         -6    1    1    2    0  503  0.33739707795E+02 -0.17925502738E+03 -0.28500571455E+03  0.38003682723E+03  0.17300000000E+03 0.  1.
<mgrwt>
<rscale>  2 0.25139557E+03</rscale>
<asrwt>0</asrwt>
<pdfrwt beam="1">  1       21 0.19174763E-01 0.25139557E+03</pdfrwt>
<pdfrwt beam="2">  1       21 0.82676132E-01 0.25139557E+03</pdfrwt>
<totfact> 0.30940141E+04</totfact>
</mgrwt>
</event>
<event>
 4    1  0.3945814E+000  0.1940900E+03  0.7546771E-02  0.1154823E+00
         21   -1    0    0  501  502  0.00000000000E+00  0.00000000000E+00  0.31662640015E+03  0.31662640015E+03  0.00000000000E+00 0.  1.
         21   -1    0    0  502  503 -0.00000000000E+00 -0.00000000000E+00 -0.14184552756E+03  0.14184552756E+03  0.00000000000E+00 0.  1.
          6    1    1    2  501    0  0.15045641120E+02  0.86692303638E+02  0.17943624099E+03  0.26432610807E+03  0.17300000000E+03 0.  1.
         -6    1    1    2    0  503 -0.15045641120E+02 -0.86692303638E+02 -0.46553684069E+01  0.19414581963E+03  0.17300000000E+03 0.  1.
<mgrwt>
<rscale>  2 0.19409000E+03</rscale>
<asrwt>0</asrwt>
<pdfrwt beam="1">  1       21 0.48711754E-01 0.19409000E+03</pdfrwt>
<pdfrwt beam="2">  1       21 0.21822389E-01 0.19409000E+03</pdfrwt>
<totfact> 0.78810225E+04</totfact>
</mgrwt>
</event>
<event>
 4    1  0.3945814E+000  0.2178761E+03  0.7546771E-02  0.1135476E+00
         21   -1    0    0  501  502  0.00000000000E+00  0.00000000000E+00  0.20416833621E+03  0.20416833621E+03  0.00000000000E+00 0.  1.
         21   -1    0    0  502  503 -0.00000000000E+00 -0.00000000000E+00 -0.65455527236E+03  0.65455527236E+03  0.00000000000E+00 0. -1.
          6    1    1    2  501    0 -0.15160077399E+02  0.13157190900E+03  0.11957913661E+03  0.24853403207E+03  0.17300000000E+03 0.  1.
         -6    1    1    2    0  503  0.15160077399E+02 -0.13157190900E+03 -0.56996607275E+03  0.61018957650E+03  0.17300000000E+03 0. -1.
<mgrwt>
<rscale>  2 0.21787610E+03</rscale>
<asrwt>0</asrwt>
<pdfrwt beam="1">  1       21 0.31410513E-01 0.21787610E+03</pdfrwt>
<pdfrwt beam="2">  1       21 0.10070081E+00 0.21787610E+03</pdfrwt>
<totfact> 0.77245578E+03</totfact>
</mgrwt>
</event>
<event>
 4    1  0.3945814E+000  0.2835164E+03  0.7546771E-02  0.1093784E+00
         21   -1    0    0  501  502  0.00000000000E+00  0.00000000000E+00  0.38640184328E+03  0.38640184328E+03  0.00000000000E+00 0. -1.
         21   -1    0    0  502  503 -0.00000000000E+00 -0.00000000000E+00 -0.34195067187E+03  0.34195067187E+03  0.00000000000E+00 0. -1.
          6    1    1    2  501    0 -0.18434018529E+03 -0.12834038819E+03  0.25013406853E+03  0.37808545515E+03  0.17300000000E+03 0. -1.
         -6    1    1    2    0  503  0.18434018529E+03  0.12834038819E+03 -0.20568289712E+03  0.35026706000E+03  0.17300000000E+03 0. -1.
<mgrwt>
<rscale>  2 0.28351642E+03</rscale>
<asrwt>0</asrwt>
<pdfrwt beam="1">  1       21 0.59446437E-01 0.28351642E+03</pdfrwt>
<pdfrwt beam="2">  1       21 0.52607796E-01 0.28351642E+03</pdfrwt>
<totfact> 0.85770251E+03</totfact>
</mgrwt>
</event>
<event>
 4    1  0.3945814E+000  0.1900088E+03  0.7546771E-02  0.1158453E+00
         21   -1    0    0  503  502  0.00000000000E+00  0.00000000000E+00  0.70538059939E+03  0.70538059939E+03  0.00000000000E+00 0. -1.
         21   -1    0    0  501  503 -0.00000000000E+00 -0.00000000000E+00 -0.72472103491E+02  0.72472103491E+02  0.00000000000E+00 0. -1.
          6    1    1    2  501    0 -0.14125226043E+02  0.77296957649E+02  0.10565801625E+03  0.21740965496E+03  0.17300000000E+03 0.  1.
         -6    1    1    2    0  502  0.14125226043E+02 -0.77296957649E+02  0.52725047965E+03  0.56044304792E+03  0.17300000000E+03 0.  1.
<mgrwt>
<rscale>  2 0.19000879E+03</rscale>
<asrwt>0</asrwt>
<pdfrwt beam="1">  1       21 0.10852009E+00 0.19000879E+03</pdfrwt>
<pdfrwt beam="2">  1       21 0.11149555E-01 0.19000879E+03</pdfrwt>
<totfact> 0.45214096E+04</totfact>
</mgrwt>
</event>
<event>
 4    1  0.3945814E+000  0.1867420E+03  0.7546771E-02  0.1161433E+00
         21   -1    0    0  501  502  0.00000000000E+00  0.00000000000E+00  0.23505496582E+04  0.23505496582E+04  0.00000000000E+00 0. -1.
         21   -1    0    0  502  503 -0.00000000000E+00 -0.00000000000E+00 -0.31124968996E+02  0.31124968996E+02  0.00000000000E+00 0. -1.
          6    1    1    2  501    0 -0.25890017841E+02  0.65370405007E+02  0.20211934241E+04  0.20298018230E+04  0.17300000000E+03 0. -1.
         -6    1    1    2    0  503  0.25890017841E+02 -0.65370405007E+02  0.29823126511E+03  0.35187280424E+03  0.17300000000E+03 0. -1.
<mgrwt>
<rscale>  2 0.18674202E+03</rscale>
<asrwt>0</asrwt>
<pdfrwt beam="1">  1       21 0.36162289E+00 0.18674202E+03</pdfrwt>
<pdfrwt beam="2">  1       21 0.47884586E-02 0.18674202E+03</pdfrwt>
<totfact> 0.43524569E+03</totfact>
</mgrwt>
</event>
<event>
 4    1  0.3945814E+000  0.1776628E+03  0.7546771E-02  0.1170084E+00
         21   -1    0    0  503  502  0.00000000000E+00  0.00000000000E+00  0.50125659116E+03  0.50125659116E+03  0.00000000000E+00 0. -1.
         21   -1    0    0  501  503 -0.00000000000E+00 -0.00000000000E+00 -0.30749993849E+03  0.30749993849E+03  0.00000000000E+00 0. -1.
          6    1    1    2  501    0  0.25880217736E+02 -0.31069229668E+02 -0.26372637669E+03  0.31798692499E+03  0.17300000000E+03 0. -1.
         -6    1    1    2    0  502 -0.25880217736E+02  0.31069229668E+02  0.45748302936E+03  0.49076960466E+03  0.17300000000E+03 0. -1.
<mgrwt>
<rscale>  2 0.17766283E+03</rscale>
<asrwt>0</asrwt>
<pdfrwt beam="1">  1       21 0.77116399E-01 0.17766283E+03</pdfrwt>
<pdfrwt beam="2">  1       21 0.47307683E-01 0.17766283E+03</pdfrwt>
<totfact> 0.64592230E+03</totfact>
</mgrwt>
</event>
<event>
 4    1  0.3945814E+000  0.2120416E+03  0.7546771E-02  0.1139959E+00
         21   -1    0    0  501  502  0.00000000000E+00  0.00000000000E+00  0.67622949020E+03  0.67622949020E+03  0.00000000000E+00 0.  1.
         21   -1    0    0  502  503 -0.00000000000E+00 -0.00000000000E+00 -0.81103829389E+02  0.81103829389E+02  0.00000000000E+00 0.  1.
          6    1    1    2  501    0 -0.75420112630E+02  0.96666684466E+02  0.45830774675E+03  0.50498280368E+03  0.17300000000E+03 0.  1.
         -6    1    1    2    0  503  0.75420112630E+02 -0.96666684466E+02  0.13681791406E+03  0.25235051591E+03  0.17300000000E+03 0.  1.
<mgrwt>
<rscale>  2 0.21204160E+03</rscale>
<asrwt>0</asrwt>
<pdfrwt beam="1">  1       21 0.10403530E+00 0.21204160E+03</pdfrwt>
<pdfrwt beam="2">  1       21 0.12477513E-01 0.21204160E+03</pdfrwt>
<totfact> 0.40453111E+04</totfact>
</mgrwt>
</event>
<event>
 4    1  0.3945814E+000  0.3584989E+03  0.7546771E-02  0.1059180E+00
         21   -1    0    0  501  502  0.00000000000E+00  0.00000000000E+00  0.46630685702E+03  0.46630685702E+03  0.00000000000E+00 0.  1.
         21   -1    0    0  502  503 -0.00000000000E+00 -0.00000000000E+00 -0.42665191948E+03  0.42665191948E+03  0.00000000000E+00 0. -1.
          6    1    1    2  501    0  0.25416974663E+03 -0.18436439190E+03  0.28547459437E+03  0.45827637200E+03  0.17300000000E+03 0.  1.
         -6    1    1    2    0  503 -0.25416974663E+03  0.18436439190E+03 -0.24581965682E+03  0.43468240450E+03  0.17300000000E+03 0. -1.
<mgrwt>
<rscale>  2 0.35849894E+03</rscale>
<asrwt>0</asrwt>
<pdfrwt beam="1">  1       21 0.71739517E-01 0.35849894E+03</pdfrwt>
<pdfrwt beam="2">  1       21 0.65638757E-01 0.35849894E+03</pdfrwt>
<totfact> 0.33865297E+03</totfact>
</mgrwt>
</event>
<event>
 4    1  0.3945814E+000  0.2011577E+03  0.7546771E-02  0.1148766E+00
         21   -1    0    0  503  502  0.00000000000E+00  0.00000000000E+00  0.75107131129E+03  0.75107131129E+03  0.00000000000E+00 0. -1.
         21   -1    0    0  501  503 -0.00000000000E+00 -0.00000000000E+00 -0.68645539417E+02  0.68645539417E+02  0.00000000000E+00 0. -1.
          6    1    1    2  501    0 -0.57348733339E+02 -0.85126519599E+02  0.15109745162E+03  0.25158466059E+03  0.17300000000E+03 0. -1.
         -6    1    1    2    0  502  0.57348733339E+02  0.85126519599E+02  0.53132832025E+03  0.56813219012E+03  0.17300000000E+03 0. -1.
<mgrwt>
<rscale>  2 0.20115765E+03</rscale>
<asrwt>0</asrwt>
<pdfrwt beam="1">  1       21 0.11554943E+00 0.20115765E+03</pdfrwt>
<pdfrwt beam="2">  1       21 0.10560853E-01 0.20115765E+03</pdfrwt>
<totfact> 0.42495247E+04</totfact>
</mgrwt>
</event>
<event>
 4    1  0.3945814E+000  0.1821071E+03  0.7546771E-02  0.1165779E+00
         21   -1    0    0  501  502  0.00000000000E+00  0.00000000000E+00  0.10721611123E+03  0.10721611123E+03  0.00000000000E+00 0.  1.
         21   -1    0    0  502  503 -0.00000000000E+00 -0.00000000000E+00 -0.99272567435E+03  0.99272567435E+03  0.00000000000E+00 0.  1.
          6    1    1    2  501    0 -0.31525116017E+02 -0.47330446896E+02  0.13563195967E+02  0.18261151231E+03  0.17300000000E+03 0.  1.
         -6    1    1    2    0  503  0.31525116017E+02  0.47330446896E+02 -0.89907275908E+03  0.91733027327E+03  0.17300000000E+03 0.  1.
<mgrwt>
<rscale>  2 0.18210712E+03</rscale>
<asrwt>0</asrwt>
<pdfrwt beam="1">  1       21 0.16494786E-01 0.18210712E+03</pdfrwt>
<pdfrwt beam="2">  1       21 0.15272703E+00 0.18210712E+03</pdfrwt>
<totfact> 0.94759494E+03</totfact>
</mgrwt>
</event>
<event>
 4    1  0.3945814E+000  0.1745780E+03  0.7546771E-02  0.1173156E+00
         21   -1    0    0  503  502  0.00000000000E+00  0.00000000000E+00  0.47220703451E+03  0.47220703451E+03  0.00000000000E+00 0.  1.
         21   -1    0    0  501  503 -0.00000000000E+00 -0.00000000000E+00 -0.12805172631E+03  0.12805172631E+03  0.00000000000E+00 0.  1.
          6    1    1    2  501    0  0.76528732081E+00 -0.23406977178E+02 -0.39287720585E+02  0.17894411763E+03  0.17300000000E+03 0.  1.
         -6    1    1    2    0  502 -0.76528732081E+00  0.23406977178E+02  0.38344302879E+03  0.42131464320E+03  0.17300000000E+03 0.  1.
<mgrwt>
<rscale>  2 0.17457798E+03</rscale>
<asrwt>0</asrwt>
<pdfrwt beam="1">  1       21 0.72647235E-01 0.17457798E+03</pdfrwt>
<pdfrwt beam="2">  1       21 0.19700266E-01 0.17457798E+03</pdfrwt>
<totfact> 0.40902296E+04</totfact>
</mgrwt>
</event>
<event>
 4    1  0.3945814E+000  0.2017380E+03  0.7546771E-02  0.1148281E+00
         21   -1    0    0  503  502  0.00000000000E+00  0.00000000000E+00  0.59472031058E+03  0.59472031058E+03  0.00000000000E+00 0. -1.
         21   -1    0    0  501  503 -0.00000000000E+00 -0.00000000000E+00 -0.82145887834E+02  0.82145887834E+02  0.00000000000E+00 0. -1.
          6    1    1    2  501    0 -0.89169043192E+02  0.53085651477E+02  0.11800952323E+03  0.23371874600E+03  0.17300000000E+03 0. -1.
         -6    1    1    2    0  502  0.89169043192E+02 -0.53085651477E+02  0.39456489952E+03  0.44314745242E+03  0.17300000000E+03 0. -1.
<mgrwt>
<rscale>  2 0.20173796E+03</rscale>
<asrwt>0</asrwt>
<pdfrwt beam="1">  1       21 0.91495429E-01 0.20173796E+03</pdfrwt>
<pdfrwt beam="2">  1       21 0.12637829E-01 0.20173796E+03</pdfrwt>
<totfact> 0.53834494E+04</totfact>
</mgrwt>
</event>
<event>
 4    1  0.3945814E+000  0.1879794E+03  0.7546771E-02  0.1160296E+00
         21   -1    0    0  501  502  0.00000000000E+00  0.00000000000E+00  0.75947294110E+02  0.75947294110E+02  0.00000000000E+00 0. -1.
         21   -1    0    0  502  503 -0.00000000000E+00 -0.00000000000E+00 -0.61474182193E+03  0.61474182193E+03  0.00000000000E+00 0. -1.
          6    1    1    2  501    0  0.12738930971E+01 -0.73523016268E+02 -0.43968404762E+03  0.47818230671E+03  0.17300000000E+03 0. -1.
         -6    1    1    2    0  503 -0.12738930971E+01  0.73523016268E+02 -0.99110480204E+02  0.21250680933E+03  0.17300000000E+03 0. -1.
<mgrwt>
<rscale>  2 0.18797941E+03</rscale>
<asrwt>0</asrwt>
<pdfrwt beam="1">  1       21 0.11684199E-01 0.18797941E+03</pdfrwt>
<pdfrwt beam="2">  1       21 0.94575666E-01 0.18797941E+03</pdfrwt>
<totfact> 0.57742102E+04</totfact>
</mgrwt>
</event>
<event>
 4    1  0.3945814E+000  0.2040300E+03  0.7546771E-02  0.1146383E+00
         21   -1    0    0  503  502  0.00000000000E+00  0.00000000000E+00  0.45037852196E+03  0.45037852196E+03  0.00000000000E+00 0. -1.
         21   -1    0    0  501  503 -0.00000000000E+00 -0.00000000000E+00 -0.11670770472E+03  0.11670770472E+03  0.00000000000E+00 0. -1.
          6    1    1    2  501    0 -0.99056953719E+02  0.43439396811E+02  0.37511854763E+02  0.20744975421E+03  0.17300000000E+03 0. -1.
         -6    1    1    2    0  502  0.99056953719E+02 -0.43439396811E+02  0.29615896248E+03  0.35963647247E+03  0.17300000000E+03 0. -1.
<mgrwt>
<rscale>  2 0.20403005E+03</rscale>
<asrwt>0</asrwt>
<pdfrwt beam="1">  1       21 0.69289003E-01 0.20403005E+03</pdfrwt>
<pdfrwt beam="2">  1       21 0.17955032E-01 0.20403005E+03</pdfrwt>
<totfact> 0.53156175E+04</totfact>
</mgrwt>
</event>
<event>
 4    1  0.3945814E+000  0.2434175E+03  0.7546771E-02  0.1117537E+00
         21   -1    0    0  501  502  0.00000000000E+00  0.00000000000E+00  0.21270264435E+03  0.21270264435E+03  0.00000000000E+00 0.  1.
         21   -1    0    0  502  503 -0.00000000000E+00 -0.00000000000E+00 -0.41559662123E+03  0.41559662123E+03  0.00000000000E+00 0. -1.
          6    1    1    2  501    0 -0.16815224225E+03 -0.32371070192E+02  0.78940681159E+02  0.25589781926E+03  0.17300000000E+03 0.  1.
         -6    1    1    2    0  503  0.16815224225E+03  0.32371070192E+02 -0.28183465803E+03  0.37240144633E+03  0.17300000000E+03 0. -1.
<mgrwt>
<rscale>  2 0.24341747E+03</rscale>
<asrwt>0</asrwt>
<pdfrwt beam="1">  1       21 0.32723484E-01 0.24341747E+03</pdfrwt>
<pdfrwt beam="2">  1       21 0.63937941E-01 0.24341747E+03</pdfrwt>
<totfact> 0.19738401E+04</totfact>
</mgrwt>
</event>
<event>
 4    1  0.3945814E+000  0.2246925E+03  0.7546771E-02  0.1130432E+00
         21   -1    0    0  503  502  0.00000000000E+00  0.00000000000E+00  0.99414614409E+02  0.99414614409E+02  0.00000000000E+00 0.  1.
         21   -1    0    0  501  503 -0.00000000000E+00 -0.00000000000E+00 -0.53520613596E+03  0.53520613596E+03  0.00000000000E+00 0.  1.
          6    1    1    2  501    0 -0.12910453874E+03  0.62367905645E+02 -0.28964691484E+03  0.36658160463E+03  0.17300000000E+03 0.  1.
         -6    1    1    2    0  502  0.12910453874E+03 -0.62367905645E+02 -0.14614460672E+03  0.26803914574E+03  0.17300000000E+03 0.  1.
<mgrwt>
<rscale>  2 0.22469254E+03</rscale>
<asrwt>0</asrwt>
<pdfrwt beam="1">  1       21 0.15294556E-01 0.22469254E+03</pdfrwt>
<pdfrwt beam="2">  1       21 0.82339405E-01 0.22469254E+03</pdfrwt>
<totfact> 0.48026769E+04</totfact>
</mgrwt>
</event>
<event>
 4    1  0.3945814E+000  0.2234538E+03  0.7546771E-02  0.1131334E+00
         21   -1    0    0  503  502  0.00000000000E+00  0.00000000000E+00  0.45679194163E+03  0.45679194163E+03  0.00000000000E+00 0. -1.
         21   -1    0    0  501  503 -0.00000000000E+00 -0.00000000000E+00 -0.12666735677E+03  0.12666735677E+03  0.00000000000E+00 0. -1.
          6    1    1    2  501    0  0.48025309688E+02 -0.13302701809E+03  0.57068577825E+02  0.23062619211E+03  0.17300000000E+03 0. -1.
         -6    1    1    2    0  502 -0.48025309688E+02  0.13302701809E+03  0.27305600704E+03  0.35283310629E+03  0.17300000000E+03 0. -1.
<mgrwt>
<rscale>  2 0.22345384E+03</rscale>
<asrwt>0</asrwt>
<pdfrwt beam="1">  1       21 0.70275682E-01 0.22345384E+03</pdfrwt>
<pdfrwt beam="2">  1       21 0.19487286E-01 0.22345384E+03</pdfrwt>
<totfact> 0.43836915E+04</totfact>
</mgrwt>
</event>
<event>
 4    1  0.3945814E+000  0.1800003E+03  0.7546771E-02  0.1167803E+00
         21   -1    0    0  503  502  0.00000000000E+00  0.00000000000E+00  0.54961480826E+03  0.54961480826E+03  0.00000000000E+00 0.  1.
         21   -1    0    0  501  503 -0.00000000000E+00 -0.00000000000E+00 -0.59092152850E+02  0.59092152850E+02  0.00000000000E+00 0.  1.
          6    1    1    2  501    0 -0.49603562048E+02 -0.32563254231E+01  0.26015797600E+03  0.31635785038E+03  0.17300000000E+03 0. -1.
         -6    1    1    2    0  502  0.49603562048E+02  0.32563254231E+01  0.23036467941E+03  0.29234911073E+03  0.17300000000E+03 0. -1.
<mgrwt>
<rscale>  2 0.18000033E+03</rscale>
<asrwt>0</asrwt>
<pdfrwt beam="1">  1       21 0.84556121E-01 0.18000033E+03</pdfrwt>
<pdfrwt beam="2">  1       21 0.90911008E-02 0.18000033E+03</pdfrwt>
<totfact> 0.11694021E+05</totfact>
</mgrwt>
</event>
<event>
 4    1  0.3945814E+000  0.2026102E+03  0.7546771E-02  0.1147555E+00
         21   -1    0    0  501  502  0.00000000000E+00  0.00000000000E+00  0.24061611442E+03  0.24061611442E+03  0.00000000000E+00 0. -1.
         21   -1    0    0  502  503 -0.00000000000E+00 -0.00000000000E+00 -0.32560478665E+03  0.32560478665E+03  0.00000000000E+00 0. -1.
          6    1    1    2  501    0 -0.91397703686E+02 -0.52615120321E+02  0.15283734597E+03  0.25379153935E+03  0.17300000000E+03 0. -1.
         -6    1    1    2    0  503  0.91397703686E+02  0.52615120321E+02 -0.23782601820E+03  0.31242936171E+03  0.17300000000E+03 0. -1.
<mgrwt>
<rscale>  2 0.20261020E+03</rscale>
<asrwt>0</asrwt>
<pdfrwt beam="1">  1       21 0.37017864E-01 0.20261020E+03</pdfrwt>
<pdfrwt beam="2">  1       21 0.50093044E-01 0.20261020E+03</pdfrwt>
<totfact> 0.26564077E+04</totfact>
</mgrwt>
</event>
<event>
 4    1  0.3945814E+000  0.2031556E+03  0.7546771E-02  0.1147104E+00
         21   -1    0    0  501  502  0.00000000000E+00  0.00000000000E+00  0.38964605269E+02  0.38964605269E+02  0.00000000000E+00 0. -1.
         21   -1    0    0  502  503 -0.00000000000E+00 -0.00000000000E+00 -0.10593548496E+04  0.10593548496E+04  0.00000000000E+00 0. -1.
          6    1    1    2  501    0 -0.94126414072E+02  0.49833784705E+02 -0.51633251285E+03  0.55486165100E+03  0.17300000000E+03 0. -1.
         -6    1    1    2    0  503  0.94126414072E+02 -0.49833784705E+02 -0.50405773153E+03  0.54345780391E+03  0.17300000000E+03 0. -1.
<mgrwt>
<rscale>  2 0.20315558E+03</rscale>
<asrwt>0</asrwt>
<pdfrwt beam="1">  1       21 0.59945552E-02 0.20315558E+03</pdfrwt>
<pdfrwt beam="2">  1       21 0.16297765E+00 0.20315558E+03</pdfrwt>
<totfact> 0.46992788E+04</totfact>
</mgrwt>
</event>
<event>
 4    1  0.3945814E+000  0.2413332E+03  0.7546771E-02  0.1118908E+00
         21   -1    0    0  503  502  0.00000000000E+00  0.00000000000E+00  0.26638045959E+03  0.26638045959E+03  0.00000000000E+00 0.  1.
         21   -1    0    0  501  503 -0.00000000000E+00 -0.00000000000E+00 -0.43752260559E+03  0.43752260559E+03  0.00000000000E+00 0. -1.
          6    1    1    2  501    0 -0.13019522286E+03 -0.10659231653E+03 -0.33450674876E+03  0.41247603926E+03  0.17300000000E+03 0. -1.
         -6    1    1    2    0  502  0.13019522286E+03  0.10659231653E+03  0.16336460275E+03  0.29142702591E+03  0.17300000000E+03 0.  1.
<mgrwt>
<rscale>  2 0.24133321E+03</rscale>
<asrwt>0</asrwt>
<pdfrwt beam="1">  1       21 0.40981609E-01 0.24133321E+03</pdfrwt>
<pdfrwt beam="2">  1       21 0.67311170E-01 0.24133321E+03</pdfrwt>
<totfact> 0.11235553E+04</totfact>
</mgrwt>
</event>
<event>
 4    1  0.3945814E+000  0.1837619E+03  0.7546771E-02  0.1164211E+00
         21   -1    0    0  501  502  0.00000000000E+00  0.00000000000E+00  0.28715772004E+04  0.28715772004E+04  0.00000000000E+00 0.  1.
         21   -1    0    0  502  503 -0.00000000000E+00 -0.00000000000E+00 -0.81985975081E+02  0.81985975081E+02  0.00000000000E+00 0.  1.
          6    1    1    2  501    0 -0.12460321227E+02  0.60697350268E+02  0.27615698883E+04  0.27676771264E+04  0.17300000000E+03 0.  1.
         -6    1    1    2    0  503  0.12460321227E+02 -0.60697350268E+02  0.28021337062E+02  0.18588604914E+03  0.17300000000E+03 0.  1.
<mgrwt>
<rscale>  2 0.18376188E+03</rscale>
<asrwt>0</asrwt>
<pdfrwt beam="1">  1       21 0.44178103E+00 0.18376188E+03</pdfrwt>
<pdfrwt beam="2">  1       21 0.12613229E-01 0.18376188E+03</pdfrwt>
<totfact> 0.25710302E+02</totfact>
</mgrwt>
</event>
<event>
 4    1  0.3945814E+000  0.2883038E+03  0.7546771E-02  0.1091238E+00
         21   -1    0    0  503  502  0.00000000000E+00  0.00000000000E+00  0.14233213395E+04  0.14233213395E+04  0.00000000000E+00 0.  1.
         21   -1    0    0  501  503 -0.00000000000E+00 -0.00000000000E+00 -0.26253633228E+03  0.26253633228E+03  0.00000000000E+00 0. -1.
          6    1    1    2  501    0  0.13021358383E+03 -0.19035361089E+03 -0.16289788826E+03  0.33114165638E+03  0.17300000000E+03 0. -1.
         -6    1    1    2    0  502 -0.13021358383E+03  0.19035361089E+03  0.13236828955E+04  0.13547160154E+04  0.17300000000E+03 0.  1.
<mgrwt>
<rscale>  2 0.28830379E+03</rscale>
<asrwt>0</asrwt>
<pdfrwt beam="1">  1       21 0.21897251E+00 0.28830379E+03</pdfrwt>
<pdfrwt beam="2">  1       21 0.40390206E-01 0.28830379E+03</pdfrwt>
<totfact> 0.54722725E+02</totfact>
</mgrwt>
</event>
<event>
 4    1  0.3945814E+000  0.2008657E+03  0.7546771E-02  0.1149011E+00
         21   -1    0    0  501  502  0.00000000000E+00  0.00000000000E+00  0.77607363366E+03  0.77607363366E+03  0.00000000000E+00 0. -1.
         21   -1    0    0  502  503 -0.00000000000E+00 -0.00000000000E+00 -0.71195844195E+02  0.71195844195E+02  0.00000000000E+00 0. -1.
          6    1    1    2  501    0  0.10182160091E+03 -0.70982532023E+01  0.57247612142E+03  0.60669261838E+03  0.17300000000E+03 0. -1.
         -6    1    1    2    0  503 -0.10182160091E+03  0.70982532023E+01  0.13240166805E+03  0.24057685947E+03  0.17300000000E+03 0. -1.
<mgrwt>
<rscale>  2 0.20086569E+03</rscale>
<asrwt>0</asrwt>
<pdfrwt beam="1">  1       21 0.11939594E+00 0.20086569E+03</pdfrwt>
<pdfrwt beam="2">  1       21 0.10953207E-01 0.20086569E+03</pdfrwt>
<totfact> 0.36755145E+04</totfact>
</mgrwt>
</event>
<event>
 4    1  0.3945814E+000  0.3083175E+03  0.7546771E-02  0.1081155E+00
         21   -1    0    0  503  502  0.00000000000E+00  0.00000000000E+00  0.60501733593E+03  0.60501733593E+03  0.00000000000E+00 0. -1.
         21   -1    0    0  501  503 -0.00000000000E+00 -0.00000000000E+00 -0.19580251432E+03  0.19580251432E+03  0.00000000000E+00 0. -1.
          6    1    1    2  501    0 -0.95013846019E+02 -0.23686080140E+03  0.26632364736E+02  0.30946559263E+03  0.17300000000E+03 0. -1.
         -6    1    1    2    0  502  0.95013846019E+02  0.23686080140E+03  0.38258245688E+03  0.49135425762E+03  0.17300000000E+03 0. -1.
<mgrwt>
<rscale>  2 0.30831748E+03</rscale>
<asrwt>0</asrwt>
<pdfrwt beam="1">  1       21 0.93079589E-01 0.30831748E+03</pdfrwt>
<pdfrwt beam="2">  1       21 0.30123464E-01 0.30831748E+03</pdfrwt>
<totfact> 0.96190986E+03</totfact>
</mgrwt>
</event>
<event>
 4    1  0.3945814E+000  0.1828964E+03  0.7546771E-02  0.1165029E+00
         21   -1    0    0  503  502  0.00000000000E+00  0.00000000000E+00  0.17228751567E+03  0.17228751567E+03  0.00000000000E+00 0.  1.
         21   -1    0    0  501  503 -0.00000000000E+00 -0.00000000000E+00 -0.53724494397E+03  0.53724494397E+03  0.00000000000E+00 0.  1.
          6    1    1    2  501    0  0.19920280093E+02  0.55904313601E+02 -0.46598180260E+03  0.50058980233E+03  0.17300000000E+03 0.  1.
         -6    1    1    2    0  502 -0.19920280093E+02 -0.55904313601E+02  0.10102437431E+03  0.20894265731E+03  0.17300000000E+03 0.  1.
<mgrwt>
<rscale>  2 0.18289645E+03</rscale>
<asrwt>0</asrwt>
<pdfrwt beam="1">  1       21 0.26505772E-01 0.18289645E+03</pdfrwt>
<pdfrwt beam="2">  1       21 0.82653066E-01 0.18289645E+03</pdfrwt>
<totfact> 0.17402200E+04</totfact>
</mgrwt>
</event>
<event>
 4    1  0.3945814E+000  0.2545756E+03  0.7546771E-02  0.1110447E+00
         21   -1    0    0  503  502  0.00000000000E+00  0.00000000000E+00  0.65029494202E+03  0.65029494202E+03  0.00000000000E+00 0. -1.
         21   -1    0    0  501  503 -0.00000000000E+00 -0.00000000000E+00 -0.12139056404E+03  0.12139056404E+03  0.00000000000E+00 0.  1.
          6    1    1    2  501    0  0.18479957436E+03  0.26996883592E+02  0.10120396780E+03  0.27395429820E+03  0.17300000000E+03 0.  1.
         -6    1    1    2    0  502 -0.18479957436E+03 -0.26996883592E+02  0.42770041018E+03  0.49773120785E+03  0.17300000000E+03 0. -1.
<mgrwt>
<rscale>  2 0.25457556E+03</rscale>
<asrwt>0</asrwt>
<pdfrwt beam="1">  1       21 0.10004537E+00 0.25457556E+03</pdfrwt>
<pdfrwt beam="2">  1       21 0.18675472E-01 0.25457556E+03</pdfrwt>
<totfact> 0.20780566E+04</totfact>
</mgrwt>
</event>
<event>
 4    1  0.3945814E+000  0.1992121E+03  0.7546771E-02  0.1150405E+00
         21   -1    0    0  501  502  0.00000000000E+00  0.00000000000E+00  0.64853400972E+02  0.64853400972E+02  0.00000000000E+00 0.  1.
         21   -1    0    0  502  503 -0.00000000000E+00 -0.00000000000E+00 -0.13580895600E+04  0.13580895600E+04  0.00000000000E+00 0.  1.
          6    1    1    2  501    0 -0.92940049928E+02  0.33445575428E+02 -0.11925416296E+03  0.23217884223E+03  0.17300000000E+03 0.  1.
         -6    1    1    2    0  503  0.92940049928E+02 -0.33445575428E+02 -0.11739819961E+04  0.11907641188E+04  0.17300000000E+03 0.  1.
<mgrwt>
<rscale>  2 0.19921210E+03</rscale>
<asrwt>0</asrwt>
<pdfrwt beam="1">  1       21 0.99774464E-02 0.19921210E+03</pdfrwt>
<pdfrwt beam="2">  1       21 0.20893685E+00 0.19921210E+03</pdfrwt>
<totfact> 0.95456818E+03</totfact>
</mgrwt>
</event>
<event>
 4    1  0.3945814E+000  0.2287957E+03  0.7546771E-02  0.1127490E+00
         21   -1    0    0  501  502  0.00000000000E+00  0.00000000000E+00  0.14649119876E+04  0.14649119876E+04  0.00000000000E+00 0.  1.
         21   -1    0    0  502  503 -0.00000000000E+00 -0.00000000000E+00 -0.10341427150E+03  0.10341427150E+03  0.00000000000E+00 0. -1.
          6    1    1    2  501    0  0.12113674446E+03  0.88002078760E+02  0.46373151580E+02  0.23344795118E+03  0.17300000000E+03 0. -1.
         -6    1    1    2    0  503 -0.12113674446E+03 -0.88002078760E+02  0.13151245645E+04  0.13348783079E+04  0.17300000000E+03 0.  1.
<mgrwt>
<rscale>  2 0.22879571E+03</rscale>
<asrwt>0</asrwt>
<pdfrwt beam="1">  1       21 0.22537106E+00 0.22879571E+03</pdfrwt>
<pdfrwt beam="2">  1       21 0.15909889E-01 0.22879571E+03</pdfrwt>
<totfact> 0.31731035E+03</totfact>
</mgrwt>
</event>
<event>
 4    1  0.3945814E+000  0.2409708E+03  0.7546771E-02  0.1119148E+00
         21   -1    0    0  503  502  0.00000000000E+00  0.00000000000E+00  0.57636731581E+03  0.57636731581E+03  0.00000000000E+00 0.  1.
         21   -1    0    0  501  503 -0.00000000000E+00 -0.00000000000E+00 -0.10467997829E+03  0.10467997829E+03  0.00000000000E+00 0. -1.
          6    1    1    2  501    0  0.11969516935E+03 -0.11752024214E+03  0.16983385204E+03  0.29480583132E+03  0.17300000000E+03 0. -1.
         -6    1    1    2    0  502 -0.11969516935E+03  0.11752024214E+03  0.30185348548E+03  0.38624146279E+03  0.17300000000E+03 0.  1.
<mgrwt>
<rscale>  2 0.24097083E+03</rscale>
<asrwt>0</asrwt>
<pdfrwt beam="1">  1       21 0.88671893E-01 0.24097083E+03</pdfrwt>
<pdfrwt beam="2">  1       21 0.16104612E-01 0.24097083E+03</pdfrwt>
<totfact> 0.36563493E+04</totfact>
</mgrwt>
</event>
<event>
 4    1  0.3945814E+000  0.2159973E+03  0.7546771E-02  0.1136903E+00
         21   -1    0    0  503  502  0.00000000000E+00  0.00000000000E+00  0.77360865549E+03  0.77360865549E+03  0.00000000000E+00 0. -1.
         21   -1    0    0  501  503 -0.00000000000E+00 -0.00000000000E+00 -0.96780500647E+02  0.96780500647E+02  0.00000000000E+00 0. -1.
          6    1    1    2  501    0 -0.12656164868E+03 -0.26608222031E+02  0.71253809176E+02  0.22744659531E+03  0.17300000000E+03 0. -1.
         -6    1    1    2    0  502  0.12656164868E+03  0.26608222031E+02  0.60557434567E+03  0.64294256083E+03  0.17300000000E+03 0. -1.
<mgrwt>
<rscale>  2 0.21599733E+03</rscale>
<asrwt>0</asrwt>
<pdfrwt beam="1">  1       21 0.11901671E+00 0.21599733E+03</pdfrwt>
<pdfrwt beam="2">  1       21 0.14889308E-01 0.21599733E+03</pdfrwt>
<totfact> 0.21124008E+04</totfact>
</mgrwt>
</event>
<event>
 4    1  0.3945814E+000  0.2905917E+03  0.7546771E-02  0.1090041E+00
         21   -1    0    0  503  502  0.00000000000E+00  0.00000000000E+00  0.10295459998E+03  0.10295459998E+03  0.00000000000E+00 0. -1.
         21   -1    0    0  501  503 -0.00000000000E+00 -0.00000000000E+00 -0.10031568300E+04  0.10031568300E+04  0.00000000000E+00 0.  1.
          6    1    1    2  501    0  0.23327150457E+03 -0.99459165169E+01 -0.68628867231E+03  0.74527555833E+03  0.17300000000E+03 0.  1.
         -6    1    1    2    0  502 -0.23327150457E+03  0.99459165169E+01 -0.21391355772E+03  0.36083587166E+03  0.17300000000E+03 0. -1.
<mgrwt>
<rscale>  2 0.29059167E+03</rscale>
<asrwt>0</asrwt>
<pdfrwt beam="1">  1       21 0.15839169E-01 0.29059167E+03</pdfrwt>
<pdfrwt beam="2">  1       21 0.15433182E+00 0.29059167E+03</pdfrwt>
<totfact> 0.92477558E+03</totfact>
</mgrwt>
</event>
<event>
 4    1  0.3945814E+000  0.1776897E+03  0.7546771E-02  0.1170058E+00
         21   -1    0    0  501  502  0.00000000000E+00  0.00000000000E+00  0.42280112062E+03  0.42280112062E+03  0.00000000000E+00 0. -1.
         21   -1    0    0  502  503 -0.00000000000E+00 -0.00000000000E+00 -0.16994398384E+03  0.16994398384E+03  0.00000000000E+00 0. -1.
          6    1    1    2  501    0 -0.10075490414E+02 -0.39282400717E+02  0.34832776713E+03  0.39103178370E+03  0.17300000000E+03 0. -1.
         -6    1    1    2    0  503  0.10075490414E+02  0.39282400717E+02 -0.95470630351E+02  0.20171332076E+03  0.17300000000E+03 0. -1.
<mgrwt>
<rscale>  2 0.17768968E+03</rscale>
<asrwt>0</asrwt>
<pdfrwt beam="1">  1       21 0.65046326E-01 0.17768968E+03</pdfrwt>
<pdfrwt beam="2">  1       21 0.26145228E-01 0.17768968E+03</pdfrwt>
<totfact> 0.30501317E+04</totfact>
</mgrwt>
</event>
<event>
 4    1  0.3945814E+000  0.2045359E+03  0.7546771E-02  0.1145968E+00
         21   -1    0    0  501  502  0.00000000000E+00  0.00000000000E+00  0.16619403950E+03  0.16619403950E+03  0.00000000000E+00 0. -1.
         21   -1    0    0  502  503 -0.00000000000E+00 -0.00000000000E+00 -0.26633991547E+03  0.26633991547E+03  0.00000000000E+00 0. -1.
          6    1    1    2  501    0  0.66114315812E+02  0.86803370442E+02  0.59043255233E+00  0.20453673627E+03  0.17300000000E+03 0. -1.
         -6    1    1    2    0  503 -0.66114315812E+02 -0.86803370442E+02 -0.10073630852E+03  0.22799721869E+03  0.17300000000E+03 0. -1.
<mgrwt>
<rscale>  2 0.20453588E+03</rscale>
<asrwt>0</asrwt>
<pdfrwt beam="1">  1       21 0.25568314E-01 0.20453588E+03</pdfrwt>
<pdfrwt beam="2">  1       21 0.40975372E-01 0.20453588E+03</pdfrwt>
<totfact> 0.82820668E+04</totfact>
</mgrwt>
</event>
<event>
 4    1  0.3945814E+000  0.1873529E+03  0.7546771E-02  0.1160871E+00
         21   -1    0    0  501  502  0.00000000000E+00  0.00000000000E+00  0.10969010288E+03  0.10969010288E+03  0.00000000000E+00 0.  1.
         21   -1    0    0  502  503 -0.00000000000E+00 -0.00000000000E+00 -0.46195525586E+03  0.46195525586E+03  0.00000000000E+00 0.  1.
          6    1    1    2  501    0  0.71915521757E+02 -0.51707431627E+00 -0.17691199105E+02  0.18818631236E+03  0.17300000000E+03 0.  1.
         -6    1    1    2    0  503 -0.71915521757E+02  0.51707431627E+00 -0.33457395387E+03  0.38345904637E+03  0.17300000000E+03 0.  1.
<mgrwt>
<rscale>  2 0.18735290E+03</rscale>
<asrwt>0</asrwt>
<pdfrwt beam="1">  1       21 0.16875401E-01 0.18735290E+03</pdfrwt>
<pdfrwt beam="2">  1       21 0.71070038E-01 0.18735290E+03</pdfrwt>
<totfact> 0.56801040E+04</totfact>
</mgrwt>
</event>
<event>
 4    1  0.3945814E+000  0.1983909E+03  0.7546771E-02  0.1151104E+00
         21   -1    0    0  503  502  0.00000000000E+00  0.00000000000E+00  0.47621816264E+02  0.47621816264E+02  0.00000000000E+00 0. -1.
         21   -1    0    0  501  503 -0.00000000000E+00 -0.00000000000E+00 -0.94457524516E+03  0.94457524516E+03  0.00000000000E+00 0.  1.
          6    1    1    2  501    0  0.72093733650E+02 -0.65057101240E+02 -0.62388428400E+03  0.65466826154E+03  0.17300000000E+03 0.  1.
         -6    1    1    2    0  502 -0.72093733650E+02  0.65057101240E+02 -0.27306914490E+03  0.33752879988E+03  0.17300000000E+03 0. -1.
<mgrwt>
<rscale>  2 0.19839086E+03</rscale>
<asrwt>0</asrwt>
<pdfrwt beam="1">  1       21 0.73264330E-02 0.19839086E+03</pdfrwt>
<pdfrwt beam="2">  1       21 0.14531927E+00 0.19839086E+03</pdfrwt>
<totfact> 0.45257450E+04</totfact>
</mgrwt>
</event>
<event>
 4    1  0.3945814E+000  0.1969366E+03  0.7546771E-02  0.1152350E+00
         21   -1    0    0  503  502  0.00000000000E+00  0.00000000000E+00  0.19171268342E+04  0.19171268342E+04  0.00000000000E+00 0.  1.
         21   -1    0    0  501  503 -0.00000000000E+00 -0.00000000000E+00 -0.20256891059E+02  0.20256891059E+02  0.00000000000E+00 0. -1.
          6    1    1    2  501    0 -0.76979391344E+02 -0.54122232163E+02  0.98353458800E+03  0.10030574901E+04  0.17300000000E+03 0. -1.
         -6    1    1    2    0  502  0.76979391344E+02  0.54122232163E+02  0.91333535516E+03  0.93432623515E+03  0.17300000000E+03 0. -1.
<mgrwt>
<rscale>  2 0.19693665E+03</rscale>
<asrwt>0</asrwt>
<pdfrwt beam="1">  1       21 0.29494245E+00 0.19693665E+03</pdfrwt>
<pdfrwt beam="2">  1       21 0.31164463E-02 0.19693665E+03</pdfrwt>
<totfact> 0.21593928E+04</totfact>
</mgrwt>
</event>
<event>
 4    1  0.3945814E+000  0.2139372E+03  0.7546771E-02  0.1138486E+00
         21   -1    0    0  501  502  0.00000000000E+00  0.00000000000E+00  0.28481664852E+04  0.28481664852E+04  0.00000000000E+00 0. -1.
         21   -1    0    0  502  503 -0.00000000000E+00 -0.00000000000E+00 -0.22434110726E+02  0.22434110726E+02  0.00000000000E+00 0. -1.
          6    1    1    2  501    0  0.33386502052E+02  0.12134851026E+03  0.21773498023E+04  0.21878348386E+04  0.17300000000E+03 0. -1.
         -6    1    1    2    0  503 -0.33386502052E+02 -0.12134851026E+03  0.64838257214E+03  0.68276575728E+03  0.17300000000E+03 0. -1.
<mgrwt>
<rscale>  2 0.21393719E+03</rscale>
<asrwt>0</asrwt>
<pdfrwt beam="1">  1       21 0.43817917E+00 0.21393719E+03</pdfrwt>
<pdfrwt beam="2">  1       21 0.34514039E-02 0.21393719E+03</pdfrwt>
<totfact> 0.24213858E+03</totfact>
</mgrwt>
</event>
<event>
 4    1  0.3945814E+000  0.1843538E+03  0.7546771E-02  0.1163655E+00
         21   -1    0    0  503  502  0.00000000000E+00  0.00000000000E+00  0.11524327448E+03  0.11524327448E+03  0.00000000000E+00 0.  1.
         21   -1    0    0  501  503 -0.00000000000E+00 -0.00000000000E+00 -0.32240070586E+03  0.32240070586E+03  0.00000000000E+00 0. -1.
          6    1    1    2  501    0 -0.55901887961E+02 -0.30533710954E+02 -0.39680253533E+02  0.18857584973E+03  0.17300000000E+03 0.  1.
         -6    1    1    2    0  502  0.55901887961E+02  0.30533710954E+02 -0.16747717785E+03  0.24906813061E+03  0.17300000000E+03 0. -1.
<mgrwt>
<rscale>  2 0.18435381E+03</rscale>
<asrwt>0</asrwt>
<pdfrwt beam="1">  1       21 0.17729735E-01 0.18435381E+03</pdfrwt>
<pdfrwt beam="2">  1       21 0.49600108E-01 0.18435381E+03</pdfrwt>
<totfact> 0.11220582E+05</totfact>
</mgrwt>
</event>
<event>
 4    1  0.3945814E+000  0.2371608E+03  0.7546771E-02  0.1121699E+00
         21   -1    0    0  503  502  0.00000000000E+00  0.00000000000E+00  0.41925694679E+02  0.41925694679E+02  0.00000000000E+00 0. -1.
         21   -1    0    0  501  503 -0.00000000000E+00 -0.00000000000E+00 -0.14490696718E+04  0.14490696718E+04  0.00000000000E+00 0.  1.
          6    1    1    2  501    0 -0.10100117700E+03  0.12694496043E+03 -0.90664541387E+03  0.93715055739E+03  0.17300000000E+03 0.  1.
         -6    1    1    2    0  502  0.10100117700E+03 -0.12694496043E+03 -0.50049856327E+03  0.55384480911E+03  0.17300000000E+03 0.  1.
<mgrwt>
<rscale>  2 0.23716083E+03</rscale>
<asrwt>0</asrwt>
<pdfrwt beam="1">  1       21 0.64501076E-02 0.23716083E+03</pdfrwt>
<pdfrwt beam="2">  1       21 0.22293377E+00 0.23716083E+03</pdfrwt>
<totfact> 0.16242847E+04</totfact>
</mgrwt>
</event>
<event>
 4    1  0.3945814E+000  0.2240880E+03  0.7546771E-02  0.1130872E+00
         21   -1    0    0  501  502  0.00000000000E+00  0.00000000000E+00  0.68569840639E+02  0.68569840639E+02  0.00000000000E+00 0. -1.
         21   -1    0    0  502  503 -0.00000000000E+00 -0.00000000000E+00 -0.17386354721E+04  0.17386354721E+04  0.00000000000E+00 0.  1.
          6    1    1    2  501    0 -0.14084698055E+03 -0.21178760696E+02 -0.14758582259E+03  0.26832254259E+03  0.17300000000E+03 0. -1.
         -6    1    1    2    0  503  0.14084698055E+03  0.21178760696E+02 -0.15224798089E+04  0.15388827702E+04  0.17300000000E+03 0. -1.
<mgrwt>
<rscale>  2 0.22408796E+03</rscale>
<asrwt>0</asrwt>
<pdfrwt beam="1">  1       21 0.10549206E-01 0.22408796E+03</pdfrwt>
<pdfrwt beam="2">  1       21 0.26748239E+00 0.22408796E+03</pdfrwt>
<totfact> 0.37549412E+03</totfact>
</mgrwt>
</event>
<event>
 4    1  0.3945814E+000  0.2325172E+03  0.7546771E-02  0.1124880E+00
         21   -1    0    0  503  502  0.00000000000E+00  0.00000000000E+00  0.79508790405E+03  0.79508790405E+03  0.00000000000E+00 0.  1.
         21   -1    0    0  501  503 -0.00000000000E+00 -0.00000000000E+00 -0.87631499220E+02  0.87631499220E+02  0.00000000000E+00 0. -1.
          6    1    1    2  501    0  0.13391362138E+03  0.78755361511E+02  0.14481633408E+03  0.27392706251E+03  0.17300000000E+03 0. -1.
         -6    1    1    2    0  502 -0.13391362138E+03 -0.78755361511E+02  0.56264007074E+03  0.60879234076E+03  0.17300000000E+03 0.  1.
<mgrwt>
<rscale>  2 0.23251724E+03</rscale>
<asrwt>0</asrwt>
<pdfrwt beam="1">  1       21 0.12232121E+00 0.23251724E+03</pdfrwt>
<pdfrwt beam="2">  1       21 0.13481770E-01 0.23251724E+03</pdfrwt>
<totfact> 0.23414361E+04</totfact>
</mgrwt>
</event>
<event>
 4    1  0.3945814E+000  0.2072375E+03  0.7546771E-02  0.1143772E+00
         21   -1    0    0  501  502  0.00000000000E+00  0.00000000000E+00  0.10144442996E+03  0.10144442996E+03  0.00000000000E+00 0. -1.
         21   -1    0    0  502  503 -0.00000000000E+00 -0.00000000000E+00 -0.47854076351E+03  0.47854076351E+03  0.00000000000E+00 0. -1.
          6    1    1    2  501    0  0.73017316906E+02  0.87674812585E+02 -0.28702309204E+03  0.35401928859E+03  0.17300000000E+03 0. -1.
         -6    1    1    2    0  503 -0.73017316906E+02 -0.87674812585E+02 -0.90073241513E+02  0.22596590488E+03  0.17300000000E+03 0. -1.
<mgrwt>
<rscale>  2 0.20723755E+03</rscale>
<asrwt>0</asrwt>
<pdfrwt beam="1">  1       21 0.15606835E-01 0.20723755E+03</pdfrwt>
<pdfrwt beam="2">  1       21 0.73621656E-01 0.20723755E+03</pdfrwt>
<totfact> 0.60051702E+04</totfact>
</mgrwt>
</event>
<event>
 4    1  0.3945814E+000  0.2529270E+03  0.7546771E-02  0.1111469E+00
         21   -1    0    0  501  502  0.00000000000E+00  0.00000000000E+00  0.14117906319E+03  0.14117906319E+03  0.00000000000E+00 0. -1.
         21   -1    0    0  502  503 -0.00000000000E+00 -0.00000000000E+00 -0.48234110329E+03  0.48234110329E+03  0.00000000000E+00 0.  1.
          6    1    1    2  501    0  0.17536716524E+03  0.57353699166E+02 -0.24730609682E+03  0.35374057581E+03  0.17300000000E+03 0.  1.
         -6    1    1    2    0  503 -0.17536716524E+03 -0.57353699166E+02 -0.93855943276E+02  0.26977959067E+03  0.17300000000E+03 0. -1.
<mgrwt>
<rscale>  2 0.25292704E+03</rscale>
<asrwt>0</asrwt>
<pdfrwt beam="1">  1       21 0.21719856E-01 0.25292704E+03</pdfrwt>
<pdfrwt beam="2">  1       21 0.74206321E-01 0.25292704E+03</pdfrwt>
<totfact> 0.31240795E+04</totfact>
</mgrwt>
</event>
<event>
 4    1  0.3945814E+000  0.5023419E+03  0.7546771E-02  0.1013169E+00
         21   -1    0    0  501  502  0.00000000000E+00  0.00000000000E+00  0.56790857441E+03  0.56790857441E+03  0.00000000000E+00 0. -1.
         21   -1    0    0  502  503 -0.00000000000E+00 -0.00000000000E+00 -0.51167864029E+03  0.51167864029E+03  0.00000000000E+00 0.  1.
          6    1    1    2  501    0  0.41080179252E+03  0.23164680233E+03 -0.16769961794E+03  0.52959467107E+03  0.17300000000E+03 0.  1.
         -6    1    1    2    0  503 -0.41080179252E+03 -0.23164680233E+03  0.22392955205E+03  0.54999254363E+03  0.17300000000E+03 0. -1.
<mgrwt>
<rscale>  2 0.50234187E+03</rscale>
<asrwt>0</asrwt>
<pdfrwt beam="1">  1       21 0.87370550E-01 0.50234187E+03</pdfrwt>
<pdfrwt beam="2">  1       21 0.78719791E-01 0.50234187E+03</pdfrwt>
<totfact> 0.13476060E+03</totfact>
</mgrwt>
</event>
<event>
 4    1  0.3945814E+000  0.2780398E+03  0.7546771E-02  0.1096764E+00
         21   -1    0    0  503  502  0.00000000000E+00  0.00000000000E+00  0.49466751111E+03  0.49466751111E+03  0.00000000000E+00 0.  1.
         21   -1    0    0  501  503 -0.00000000000E+00 -0.00000000000E+00 -0.17497075605E+03  0.17497075605E+03  0.00000000000E+00 0.  1.
          6    1    1    2  501    0  0.21608341423E+03  0.26174365748E+02  0.50414271313E+02  0.28257342069E+03  0.17300000000E+03 0.  1.
         -6    1    1    2    0  502 -0.21608341423E+03 -0.26174365748E+02  0.26928248374E+03  0.38706484648E+03  0.17300000000E+03 0.  1.
<mgrwt>
<rscale>  2 0.27803982E+03</rscale>
<asrwt>0</asrwt>
<pdfrwt beam="1">  1       21 0.76102694E-01 0.27803982E+03</pdfrwt>
<pdfrwt beam="2">  1       21 0.26918578E-01 0.27803982E+03</pdfrwt>
<totfact> 0.19344708E+04</totfact>
</mgrwt>
</event>
<event>
 4    1  0.3945814E+000  0.1970516E+03  0.7546771E-02  0.1152251E+00
         21   -1    0    0  503  502  0.00000000000E+00  0.00000000000E+00  0.16493440037E+04  0.16493440037E+04  0.00000000000E+00 0.  1.
         21   -1    0    0  501  503 -0.00000000000E+00 -0.00000000000E+00 -0.24107265966E+02  0.24107265966E+02  0.00000000000E+00 0.  1.
          6    1    1    2  501    0 -0.70506303561E+02  0.62683199440E+02  0.94071184073E+03  0.96112855000E+03  0.17300000000E+03 0.  1.
         -6    1    1    2    0  502  0.70506303561E+02 -0.62683199440E+02  0.68452489697E+03  0.71232271964E+03  0.17300000000E+03 0.  1.
<mgrwt>
<rscale>  2 0.19705157E+03</rscale>
<asrwt>0</asrwt>
<pdfrwt beam="1">  1       21 0.25374514E+00 0.19705157E+03</pdfrwt>
<pdfrwt beam="2">  1       21 0.37088114E-02 0.19705157E+03</pdfrwt>
<totfact> 0.28004905E+04</totfact>
</mgrwt>
</event>
<event>
 4    1  0.3945814E+000  0.2445976E+03  0.7546771E-02  0.1116767E+00
         21   -1    0    0  501  502  0.00000000000E+00  0.00000000000E+00  0.42839370929E+03  0.42839370929E+03  0.00000000000E+00 0.  1.
         21   -1    0    0  502  503 -0.00000000000E+00 -0.00000000000E+00 -0.25457071702E+03  0.25457071702E+03  0.00000000000E+00 0.  1.
          6    1    1    2  501    0 -0.36561739842E+02 -0.16900367343E+03  0.31634169690E+03  0.39987507005E+03  0.17300000000E+03 0.  1.
         -6    1    1    2    0  503  0.36561739842E+02  0.16900367343E+03 -0.14251870463E+03  0.28308935625E+03  0.17300000000E+03 0.  1.
<mgrwt>
<rscale>  2 0.24459763E+03</rscale>
<asrwt>0</asrwt>
<pdfrwt beam="1">  1       21 0.65906724E-01 0.24459763E+03</pdfrwt>
<pdfrwt beam="2">  1       21 0.39164726E-01 0.24459763E+03</pdfrwt>
<totfact> 0.12881988E+04</totfact>
</mgrwt>
</event>
<event>
 4    1  0.3945814E+000  0.1881299E+03  0.7546771E-02  0.1160159E+00
         21   -1    0    0  503  502  0.00000000000E+00  0.00000000000E+00  0.63347496322E+03  0.63347496322E+03  0.00000000000E+00 0.  1.
         21   -1    0    0  501  503 -0.00000000000E+00 -0.00000000000E+00 -0.12055824338E+03  0.12055824338E+03  0.00000000000E+00 0.  1.
          6    1    1    2  501    0 -0.45158223365E+02 -0.58519949126E+02 -0.19708462047E+02  0.18915938533E+03  0.17300000000E+03 0.  1.
         -6    1    1    2    0  502  0.45158223365E+02  0.58519949126E+02  0.53262518188E+03  0.56487382127E+03  0.17300000000E+03 0.  1.
<mgrwt>
<rscale>  2 0.18812987E+03</rscale>
<asrwt>0</asrwt>
<pdfrwt beam="1">  1       21 0.97457684E-01 0.18812987E+03</pdfrwt>
<pdfrwt beam="2">  1       21 0.18547423E-01 0.18812987E+03</pdfrwt>
<totfact> 0.23234932E+04</totfact>
</mgrwt>
</event>
<event>
 4    1  0.3945814E+000  0.1838203E+03  0.7546771E-02  0.1164156E+00
         21   -1    0    0  501  502  0.00000000000E+00  0.00000000000E+00  0.73769065306E+03  0.73769065306E+03  0.00000000000E+00 0.  1.
         21   -1    0    0  502  503 -0.00000000000E+00 -0.00000000000E+00 -0.80926522648E+02  0.80926522648E+02  0.00000000000E+00 0.  1.
          6    1    1    2  501    0 -0.12707733635E+02  0.60822750082E+02  0.59802702747E+03  0.62564064687E+03  0.17300000000E+03 0.  1.
         -6    1    1    2    0  503  0.12707733635E+02 -0.60822750082E+02  0.58737102935E+02  0.19297652884E+03  0.17300000000E+03 0.  1.
<mgrwt>
<rscale>  2 0.18382027E+03</rscale>
<asrwt>0</asrwt>
<pdfrwt beam="1">  1       21 0.11349087E+00 0.18382027E+03</pdfrwt>
<pdfrwt beam="2">  1       21 0.12450235E-01 0.18382027E+03</pdfrwt>
<totfact> 0.33424318E+04</totfact>
</mgrwt>
</event>
<event>
 4    1  0.3945814E+000  0.1743153E+03  0.7546771E-02  0.1173421E+00
         21   -1    0    0  501  502  0.00000000000E+00  0.00000000000E+00  0.25740009340E+03  0.25740009340E+03  0.00000000000E+00 0.  1.
         21   -1    0    0  502  503 -0.00000000000E+00 -0.00000000000E+00 -0.11918891161E+03  0.11918891161E+03  0.00000000000E+00 0.  1.
          6    1    1    2  501    0  0.17292120044E+02 -0.12561762292E+02  0.87520156255E+02  0.19505279552E+03  0.17300000000E+03 0. -1.
         -6    1    1    2    0  503 -0.17292120044E+02  0.12561762292E+02  0.50691025530E+02  0.18153620949E+03  0.17300000000E+03 0. -1.
<mgrwt>
<rscale>  2 0.17431528E+03</rscale>
<asrwt>0</asrwt>
<pdfrwt beam="1">  1       21 0.39600014E-01 0.17431528E+03</pdfrwt>
<pdfrwt beam="2">  1       21 0.18336756E-01 0.17431528E+03</pdfrwt>
<totfact> 0.16771520E+05</totfact>
</mgrwt>
</event>
<event>
 4    1  0.3945814E+000  0.1765659E+03  0.7546771E-02  0.1171169E+00
         21   -1    0    0  503  502  0.00000000000E+00  0.00000000000E+00  0.67797470914E+03  0.67797470914E+03  0.00000000000E+00 0. -1.
         21   -1    0    0  501  503 -0.00000000000E+00 -0.00000000000E+00 -0.19338246713E+03  0.19338246713E+03  0.00000000000E+00 0. -1.
          6    1    1    2  501    0 -0.24147153814E+01 -0.35223498676E+02 -0.13807291740E+03  0.22414204476E+03  0.17300000000E+03 0. -1.
         -6    1    1    2    0  502  0.24147153814E+01  0.35223498676E+02  0.62266515942E+03  0.64721513151E+03  0.17300000000E+03 0. -1.
<mgrwt>
<rscale>  2 0.17656592E+03</rscale>
<asrwt>0</asrwt>
<pdfrwt beam="1">  1       21 0.10430380E+00 0.17656592E+03</pdfrwt>
<pdfrwt beam="2">  1       21 0.29751149E-01 0.17656592E+03</pdfrwt>
<totfact> 0.81377057E+03</totfact>
</mgrwt>
</event>
<event>
 4    1  0.3945814E+000  0.1853617E+03  0.7546771E-02  0.1162713E+00
         21   -1    0    0  501  502  0.00000000000E+00  0.00000000000E+00  0.25350025601E+03  0.25350025601E+03  0.00000000000E+00 0. -1.
         21   -1    0    0  502  503 -0.00000000000E+00 -0.00000000000E+00 -0.22989561143E+03  0.22989561143E+03  0.00000000000E+00 0. -1.
          6    1    1    2  501    0  0.13315193091E+02  0.65212605336E+02  0.16664672697E+03  0.24925912194E+03  0.17300000000E+03 0. -1.
         -6    1    1    2    0  503 -0.13315193091E+02 -0.65212605336E+02 -0.14304208239E+03  0.23413674550E+03  0.17300000000E+03 0. -1.
<mgrwt>
<rscale>  2 0.18536175E+03</rscale>
<asrwt>0</asrwt>
<pdfrwt beam="1">  1       21 0.39000039E-01 0.18536175E+03</pdfrwt>
<pdfrwt beam="2">  1       21 0.35368556E-01 0.18536175E+03</pdfrwt>
<totfact> 0.49024575E+04</totfact>
</mgrwt>
</event>
<event>
 4    1  0.3945814E+000  0.2576566E+03  0.7546771E-02  0.1108559E+00
         21   -1    0    0  501  502  0.00000000000E+00  0.00000000000E+00  0.36604457020E+03  0.36604457020E+03  0.00000000000E+00 0.  1.
         21   -1    0    0  502  503 -0.00000000000E+00 -0.00000000000E+00 -0.45296178767E+03  0.45296178767E+03  0.00000000000E+00 0.  1.
          6    1    1    2  501    0  0.13941690364E+03 -0.13046401113E+03  0.27363714780E+03  0.37585132683E+03  0.17300000000E+03 0.  1.
         -6    1    1    2    0  503 -0.13941690364E+03  0.13046401113E+03 -0.36055436527E+03  0.44315503104E+03  0.17300000000E+03 0.  1.
<mgrwt>
<rscale>  2 0.25765661E+03</rscale>
<asrwt>0</asrwt>
<pdfrwt beam="1">  1       21 0.56314549E-01 0.25765661E+03</pdfrwt>
<pdfrwt beam="2">  1       21 0.69686429E-01 0.25765661E+03</pdfrwt>
<totfact> 0.53106711E+03</totfact>
</mgrwt>
</event>
<event>
 4    1  0.3945814E+000  0.2516846E+03  0.7546771E-02  0.1112245E+00
         21   -1    0    0  503  502  0.00000000000E+00  0.00000000000E+00  0.20907557351E+03  0.20907557351E+03  0.00000000000E+00 0.  1.
         21   -1    0    0  501  503 -0.00000000000E+00 -0.00000000000E+00 -0.35495849259E+03  0.35495849259E+03  0.00000000000E+00 0.  1.
          6    1    1    2  501    0 -0.16572323931E+03 -0.77148906114E+02 -0.18086341678E+03  0.30993018777E+03  0.17300000000E+03 0.  1.
         -6    1    1    2    0  502  0.16572323931E+03  0.77148906114E+02  0.34980497697E+02  0.25410387833E+03  0.17300000000E+03 0.  1.
<mgrwt>
<rscale>  2 0.25168462E+03</rscale>
<asrwt>0</asrwt>
<pdfrwt beam="1">  1       21 0.32165473E-01 0.25168462E+03</pdfrwt>
<pdfrwt beam="2">  1       21 0.54608998E-01 0.25168462E+03</pdfrwt>
<totfact> 0.28577801E+04</totfact>
</mgrwt>
</event>
<event>
 4    1  0.3945814E+000  0.1772312E+03  0.7546771E-02  0.1170510E+00
         21   -1    0    0  501  502  0.00000000000E+00  0.00000000000E+00  0.14395288816E+03  0.14395288816E+03  0.00000000000E+00 0. -1.
         21   -1    0    0  502  503 -0.00000000000E+00 -0.00000000000E+00 -0.41064403556E+03  0.41064403556E+03  0.00000000000E+00 0. -1.
          6    1    1    2  501    0  0.38321542429E+02  0.36537794096E+01  0.56484066426E+02  0.18601435557E+03  0.17300000000E+03 0. -1.
         -6    1    1    2    0  503 -0.38321542429E+02 -0.36537794096E+01 -0.32317521383E+03  0.36858256816E+03  0.17300000000E+03 0. -1.
<mgrwt>
<rscale>  2 0.17723118E+03</rscale>
<asrwt>0</asrwt>
<pdfrwt beam="1">  1       21 0.22146599E-01 0.17723118E+03</pdfrwt>
<pdfrwt beam="2">  1       21 0.63176005E-01 0.17723118E+03</pdfrwt>
<totfact> 0.44533760E+04</totfact>
</mgrwt>
</event>
<event>
 4    1  0.3945814E+000  0.1778733E+03  0.7546771E-02  0.1169877E+00
         21   -1    0    0  503  502  0.00000000000E+00  0.00000000000E+00  0.47806171232E+03  0.47806171232E+03  0.00000000000E+00 0. -1.
         21   -1    0    0  501  503 -0.00000000000E+00 -0.00000000000E+00 -0.20951004609E+03  0.20951004609E+03  0.00000000000E+00 0. -1.
          6    1    1    2  501    0 -0.22494857626E+02  0.34697365892E+02 -0.15007315542E+03  0.23272489724E+03  0.17300000000E+03 0. -1.
         -6    1    1    2    0  502  0.22494857626E+02 -0.34697365892E+02  0.41862482165E+03  0.45484686117E+03  0.17300000000E+03 0. -1.
<mgrwt>
<rscale>  2 0.17787334E+03</rscale>
<asrwt>0</asrwt>
<pdfrwt beam="1">  1       21 0.73547955E-01 0.17787334E+03</pdfrwt>
<pdfrwt beam="2">  1       21 0.32232315E-01 0.17787334E+03</pdfrwt>
<totfact> 0.15524041E+04</totfact>
</mgrwt>
</event>
<event>
 4    1  0.3945814E+000  0.1938520E+03  0.7546771E-02  0.1155032E+00
         21   -1    0    0  501  502  0.00000000000E+00  0.00000000000E+00  0.81371543321E+02  0.81371543321E+02  0.00000000000E+00 0. -1.
         21   -1    0    0  502  503 -0.00000000000E+00 -0.00000000000E+00 -0.72617716975E+03  0.72617716975E+03  0.00000000000E+00 0. -1.
          6    1    1    2  501    0  0.87230272187E+02 -0.63635117765E+01 -0.78780570599E+02  0.20924863912E+03  0.17300000000E+03 0. -1.
         -6    1    1    2    0  503 -0.87230272187E+02  0.63635117765E+01 -0.56602505583E+03  0.59830007395E+03  0.17300000000E+03 0. -1.
<mgrwt>
<rscale>  2 0.19385204E+03</rscale>
<asrwt>0</asrwt>
<pdfrwt beam="1">  1       21 0.12518699E-01 0.19385204E+03</pdfrwt>
<pdfrwt beam="2">  1       21 0.11171957E+00 0.19385204E+03</pdfrwt>
<totfact> 0.34194874E+04</totfact>
</mgrwt>
</event>
<event>
 4    1  0.3945814E+000  0.2024207E+03  0.7546771E-02  0.1147713E+00
         21   -1    0    0  503  502  0.00000000000E+00  0.00000000000E+00  0.11653406074E+03  0.11653406074E+03  0.00000000000E+00 0.  1.
         21   -1    0    0  501  503 -0.00000000000E+00 -0.00000000000E+00 -0.84892288429E+03  0.84892288429E+03  0.00000000000E+00 0. -1.
          6    1    1    2  501    0 -0.96289891321E+02  0.42111890853E+02 -0.73566944666E+03  0.76300962594E+03  0.17300000000E+03 0. -1.
         -6    1    1    2    0  502  0.96289891321E+02 -0.42111890853E+02  0.32806231138E+01  0.20244731910E+03  0.17300000000E+03 0.  1.
<mgrwt>
<rscale>  2 0.20242074E+03</rscale>
<asrwt>0</asrwt>
<pdfrwt beam="1">  1       21 0.17928317E-01 0.20242074E+03</pdfrwt>
<pdfrwt beam="2">  1       21 0.13060352E+00 0.20242074E+03</pdfrwt>
<totfact> 0.11999959E+04</totfact>
</mgrwt>
</event>
<event>
 4    1  0.3945814E+000  0.1942119E+03  0.7546771E-02  0.1154716E+00
         21   -1    0    0  503  502  0.00000000000E+00  0.00000000000E+00  0.84827834174E+03  0.84827834174E+03  0.00000000000E+00 0. -1.
         21   -1    0    0  501  503 -0.00000000000E+00 -0.00000000000E+00 -0.44490165681E+02  0.44490165681E+02  0.00000000000E+00 0. -1.
          6    1    1    2  501    0  0.87815691067E+02 -0.88124760221E+01  0.41261971517E+03  0.45604088049E+03  0.17300000000E+03 0. -1.
         -6    1    1    2    0  502 -0.87815691067E+02  0.88124760221E+01  0.39116846089E+03  0.43672762693E+03  0.17300000000E+03 0. -1.
<mgrwt>
<rscale>  2 0.19421188E+03</rscale>
<asrwt>0</asrwt>
<pdfrwt beam="1">  1       21 0.13050435E+00 0.19421188E+03</pdfrwt>
<pdfrwt beam="2">  1       21 0.68446415E-02 0.19421188E+03</pdfrwt>
<totfact> 0.67256161E+04</totfact>
</mgrwt>
</event>
<event>
 4    1  0.3945814E+000  0.1889264E+03  0.7546771E-02  0.1159433E+00
         21   -1    0    0  503  502  0.00000000000E+00  0.00000000000E+00  0.10455661693E+04  0.10455661693E+04  0.00000000000E+00 0. -1.
         21   -1    0    0  501  503 -0.00000000000E+00 -0.00000000000E+00 -0.14199299672E+03  0.14199299672E+03  0.00000000000E+00 0. -1.
          6    1    1    2  501    0  0.44486933614E+02  0.61523147078E+02 -0.65716104918E+02  0.20002947616E+03  0.17300000000E+03 0. -1.
         -6    1    1    2    0  502 -0.44486933614E+02 -0.61523147078E+02  0.96928927746E+03  0.98752968982E+03  0.17300000000E+03 0. -1.
<mgrwt>
<rscale>  2 0.18892640E+03</rscale>
<asrwt>0</asrwt>
<pdfrwt beam="1">  1       21 0.16085633E+00 0.18892640E+03</pdfrwt>
<pdfrwt beam="2">  1       21 0.21845077E-01 0.18892640E+03</pdfrwt>
<totfact> 0.48689479E+03</totfact>
</mgrwt>
</event>
<event>
 4    1  0.3945814E+000  0.1737757E+03  0.7546771E-02  0.1173967E+00
         21   -1    0    0  503  502  0.00000000000E+00  0.00000000000E+00  0.17471275070E+03  0.17471275070E+03  0.00000000000E+00 0.  1.
         21   -1    0    0  501  503 -0.00000000000E+00 -0.00000000000E+00 -0.17288245869E+03  0.17288245869E+03  0.00000000000E+00 0. -1.
          6    1    1    2  501    0  0.85488883160E+01  0.13996287651E+02  0.35210111735E+01  0.17381132610E+03  0.17300000000E+03 0.  1.
         -6    1    1    2    0  502 -0.85488883160E+01 -0.13996287651E+02 -0.16907191654E+01  0.17378388329E+03  0.17300000000E+03 0. -1.
<mgrwt>
<rscale>  2 0.17377566E+03</rscale>
<asrwt>0</asrwt>
<pdfrwt beam="1">  1       21 0.26878885E-01 0.17377566E+03</pdfrwt>
<pdfrwt beam="2">  1       21 0.26597301E-01 0.17377566E+03</pdfrwt>
<totfact> 0.17835084E+05</totfact>
</mgrwt>
</event>
<event>
 4    1  0.3945814E+000  0.2446731E+03  0.7546771E-02  0.1116718E+00
         21   -1    0    0  503  502  0.00000000000E+00  0.00000000000E+00  0.96688247944E+03  0.96688247944E+03  0.00000000000E+00 0. -1.
         21   -1    0    0  501  503 -0.00000000000E+00 -0.00000000000E+00 -0.62282350606E+02  0.62282350606E+02  0.00000000000E+00 0.  1.
          6    1    1    2  501    0  0.80509865872E+02 -0.15314727398E+03  0.41280254843E+03  0.47986547075E+03  0.17300000000E+03 0.  1.
         -6    1    1    2    0  502 -0.80509865872E+02  0.15314727398E+03  0.49179758041E+03  0.54929935930E+03  0.17300000000E+03 0.  1.
<mgrwt>
<rscale>  2 0.24467310E+03</rscale>
<asrwt>0</asrwt>
<pdfrwt beam="1">  1       21 0.14875114E+00 0.24467310E+03</pdfrwt>
<pdfrwt beam="2">  1       21 0.95819008E-02 0.24467310E+03</pdfrwt>
<totfact> 0.25925600E+04</totfact>
</mgrwt>
</event>
<event>
 4    1  0.3945814E+000  0.1922482E+03  0.7546771E-02  0.1156449E+00
         21   -1    0    0  501  502  0.00000000000E+00  0.00000000000E+00  0.72488527906E+02  0.72488527906E+02  0.00000000000E+00 0. -1.
         21   -1    0    0  502  503 -0.00000000000E+00 -0.00000000000E+00 -0.56275846386E+03  0.56275846386E+03  0.00000000000E+00 0. -1.
          6    1    1    2  501    0  0.75080518818E+02  0.37326883668E+02 -0.34251090057E+03  0.39277614179E+03  0.17300000000E+03 0. -1.
         -6    1    1    2    0  503 -0.75080518818E+02 -0.37326883668E+02 -0.14775903538E+03  0.24247084998E+03  0.17300000000E+03 0. -1.
<mgrwt>
<rscale>  2 0.19224823E+03</rscale>
<asrwt>0</asrwt>
<pdfrwt beam="1">  1       21 0.11152081E-01 0.19224823E+03</pdfrwt>
<pdfrwt beam="2">  1       21 0.86578227E-01 0.19224823E+03</pdfrwt>
<totfact> 0.76847314E+04</totfact>
</mgrwt>
</event>
<event>
 4    1  0.3945814E+000  0.2217834E+03  0.7546771E-02  0.1132560E+00
         21   -1    0    0  501  502  0.00000000000E+00  0.00000000000E+00  0.16798423121E+03  0.16798423121E+03  0.00000000000E+00 0. -1.
         21   -1    0    0  502  503 -0.00000000000E+00 -0.00000000000E+00 -0.29661261090E+03  0.29661261090E+03  0.00000000000E+00 0. -1.
          6    1    1    2  501    0 -0.67992285046E+02 -0.12097904084E+03 -0.38020544820E+02  0.22501875695E+03  0.17300000000E+03 0.  1.
         -6    1    1    2    0  503  0.67992285046E+02  0.12097904084E+03 -0.90607834875E+02  0.23957808516E+03  0.17300000000E+03 0.  1.
<mgrwt>
<rscale>  2 0.22178341E+03</rscale>
<asrwt>0</asrwt>
<pdfrwt beam="1">  1       21 0.25843728E-01 0.22178341E+03</pdfrwt>
<pdfrwt beam="2">  1       21 0.45632709E-01 0.22178341E+03</pdfrwt>
<totfact> 0.64617093E+04</totfact>
</mgrwt>
</event>
<event>
 4    1  0.3945814E+000  0.1756471E+03  0.7546771E-02  0.1172084E+00
         21   -1    0    0  501  502  0.00000000000E+00  0.00000000000E+00  0.44474333542E+03  0.44474333542E+03  0.00000000000E+00 0.  1.
         21   -1    0    0  502  503 -0.00000000000E+00 -0.00000000000E+00 -0.78717471061E+02  0.78717471061E+02  0.00000000000E+00 0.  1.
          6    1    1    2  501    0  0.19798514124E+02  0.23042016072E+02  0.27320368053E+03  0.32479557682E+03  0.17300000000E+03 0.  1.
         -6    1    1    2    0  503 -0.19798514124E+02 -0.23042016072E+02  0.92822183830E+02  0.19866522966E+03  0.17300000000E+03 0.  1.
<mgrwt>
<rscale>  2 0.17564713E+03</rscale>
<asrwt>0</asrwt>
<pdfrwt beam="1">  1       21 0.68422050E-01 0.17564713E+03</pdfrwt>
<pdfrwt beam="2">  1       21 0.12110380E-01 0.17564713E+03</pdfrwt>
<totfact> 0.11318626E+05</totfact>
</mgrwt>
</event>
<event>
 4    1  0.3945814E+000  0.2177011E+03  0.7546771E-02  0.1135609E+00
         21   -1    0    0  503  502  0.00000000000E+00  0.00000000000E+00  0.40039177941E+03  0.40039177941E+03  0.00000000000E+00 0. -1.
         21   -1    0    0  501  503 -0.00000000000E+00 -0.00000000000E+00 -0.19256654391E+03  0.19256654391E+03  0.00000000000E+00 0.  1.
          6    1    1    2  501    0 -0.12476261913E+03  0.43578116610E+02 -0.80122229109E+02  0.23197701390E+03  0.17300000000E+03 0.  1.
         -6    1    1    2    0  502  0.12476261913E+03 -0.43578116610E+02  0.28794746460E+03  0.36098130942E+03  0.17300000000E+03 0. -1.
<mgrwt>
<rscale>  2 0.21770109E+03</rscale>
<asrwt>0</asrwt>
<pdfrwt beam="1">  1       21 0.61598735E-01 0.21770109E+03</pdfrwt>
<pdfrwt beam="2">  1       21 0.29625622E-01 0.21770109E+03</pdfrwt>
<totfact> 0.26370516E+04</totfact>
</mgrwt>
</event>
<event>
 4    1  0.3945814E+000  0.1785256E+03  0.7546771E-02  0.1169238E+00
         21   -1    0    0  503  502  0.00000000000E+00  0.00000000000E+00  0.24579956550E+03  0.24579956550E+03  0.00000000000E+00 0. -1.
         21   -1    0    0  501  503 -0.00000000000E+00 -0.00000000000E+00 -0.13920058168E+03  0.13920058168E+03  0.00000000000E+00 0. -1.
          6    1    1    2  501    0  0.42255976651E+02 -0.12523312969E+02  0.29143514413E+01  0.17854941718E+03  0.17300000000E+03 0. -1.
         -6    1    1    2    0  502 -0.42255976651E+02  0.12523312969E+02  0.10368463238E+03  0.20645073001E+03  0.17300000000E+03 0. -1.
<mgrwt>
<rscale>  2 0.17852563E+03</rscale>
<asrwt>0</asrwt>
<pdfrwt beam="1">  1       21 0.37815318E-01 0.17852563E+03</pdfrwt>
<pdfrwt beam="2">  1       21 0.21415474E-01 0.17852563E+03</pdfrwt>
<totfact> 0.13760020E+05</totfact>
</mgrwt>
</event>
<event>
 4    1  0.3945814E+000  0.2338108E+03  0.7546771E-02  0.1123986E+00
         21   -1    0    0  503  502  0.00000000000E+00  0.00000000000E+00  0.24900864213E+03  0.24900864213E+03  0.00000000000E+00 0. -1.
         21   -1    0    0  501  503 -0.00000000000E+00 -0.00000000000E+00 -0.22537400877E+03  0.22537400877E+03  0.00000000000E+00 0. -1.
          6    1    1    2  501    0 -0.12783546897E+03  0.91632979927E+02 -0.26342614110E+02  0.23529012613E+03  0.17300000000E+03 0. -1.
         -6    1    1    2    0  502  0.12783546897E+03 -0.91632979927E+02  0.49977247465E+02  0.23909252477E+03  0.17300000000E+03 0. -1.
<mgrwt>
<rscale>  2 0.23381084E+03</rscale>
<asrwt>0</asrwt>
<pdfrwt beam="1">  1       21 0.38309022E-01 0.23381084E+03</pdfrwt>
<pdfrwt beam="2">  1       21 0.34672924E-01 0.23381084E+03</pdfrwt>
<totfact> 0.51702834E+04</totfact>
</mgrwt>
</event>
<event>
 4    1  0.3945814E+000  0.1927866E+03  0.7546771E-02  0.1155972E+00
         21   -1    0    0  503  502  0.00000000000E+00  0.00000000000E+00  0.51416238630E+03  0.51416238630E+03  0.00000000000E+00 0. -1.
         21   -1    0    0  501  503 -0.00000000000E+00 -0.00000000000E+00 -0.72939170215E+02  0.72939170215E+02  0.00000000000E+00 0. -1.
          6    1    1    2  501    0  0.84948542213E+02  0.46270645984E+01  0.19282943253E+03  0.27267169747E+03  0.17300000000E+03 0. -1.
         -6    1    1    2    0  502 -0.84948542213E+02 -0.46270645984E+01  0.24839378356E+03  0.31442985905E+03  0.17300000000E+03 0. -1.
<mgrwt>
<rscale>  2 0.19278658E+03</rscale>
<asrwt>0</asrwt>
<pdfrwt beam="1">  1       21 0.79101903E-01 0.19278658E+03</pdfrwt>
<pdfrwt beam="2">  1       21 0.11221411E-01 0.19278658E+03</pdfrwt>
<totfact> 0.93323122E+04</totfact>
</mgrwt>
</event>
<event>
 4    1  0.3945814E+000  0.2617511E+03  0.7546771E-02  0.1106096E+00
         21   -1    0    0  503  502  0.00000000000E+00  0.00000000000E+00  0.10769148289E+03  0.10769148289E+03  0.00000000000E+00 0. -1.
         21   -1    0    0  501  503 -0.00000000000E+00 -0.00000000000E+00 -0.77393493679E+03  0.77393493679E+03  0.00000000000E+00 0. -1.
          6    1    1    2  501    0 -0.17814648343E+03 -0.82755569761E+02 -0.14716171547E+03  0.30028357328E+03  0.17300000000E+03 0. -1.
         -6    1    1    2    0  502  0.17814648343E+03  0.82755569761E+02 -0.51908173843E+03  0.58134284640E+03  0.17300000000E+03 0. -1.
<mgrwt>
<rscale>  2 0.26175113E+03</rscale>
<asrwt>0</asrwt>
<pdfrwt beam="1">  1       21 0.16567920E-01 0.26175113E+03</pdfrwt>
<pdfrwt beam="2">  1       21 0.11906692E+00 0.26175113E+03</pdfrwt>
<totfact> 0.16917572E+04</totfact>
</mgrwt>
</event>
<event>
 4    1  0.3945814E+000  0.2128027E+03  0.7546771E-02  0.1139366E+00
         21   -1    0    0  501  502  0.00000000000E+00  0.00000000000E+00  0.13800179510E+04  0.13800179510E+04  0.00000000000E+00 0.  1.
         21   -1    0    0  502  503 -0.00000000000E+00 -0.00000000000E+00 -0.70976263028E+02  0.70976263028E+02  0.00000000000E+00 0.  1.
          6    1    1    2  501    0  0.10255179657E+03  0.69563641611E+02  0.11864965516E+04  0.12054289851E+04  0.17300000000E+03 0.  1.
         -6    1    1    2    0  503 -0.10255179657E+03 -0.69563641611E+02  0.12254513644E+03  0.24556522897E+03  0.17300000000E+03 0.  1.
<mgrwt>
<rscale>  2 0.21280266E+03</rscale>
<asrwt>0</asrwt>
<pdfrwt beam="1">  1       21 0.21231043E+00 0.21280266E+03</pdfrwt>
<pdfrwt beam="2">  1       21 0.10919426E-01 0.21280266E+03</pdfrwt>
<totfact> 0.76575025E+03</totfact>
</mgrwt>
</event>
<event>
 4    1  0.3945814E+000  0.1825202E+03  0.7546771E-02  0.1165386E+00
         21   -1    0    0  503  502  0.00000000000E+00  0.00000000000E+00  0.21265410430E+04  0.21265410430E+04  0.00000000000E+00 0. -1.
         21   -1    0    0  501  503 -0.00000000000E+00 -0.00000000000E+00 -0.34524002876E+02  0.34524002876E+02  0.00000000000E+00 0.  1.
          6    1    1    2  501    0 -0.37065125429E+02 -0.44841845639E+02  0.24740847732E+03  0.30744848234E+03  0.17300000000E+03 0.  1.
         -6    1    1    2    0  502  0.37065125429E+02  0.44841845639E+02  0.18446085628E+04  0.18536165635E+04  0.17300000000E+03 0. -1.
<mgrwt>
<rscale>  2 0.18252018E+03</rscale>
<asrwt>0</asrwt>
<pdfrwt beam="1">  1       21 0.32716006E+00 0.18252018E+03</pdfrwt>
<pdfrwt beam="2">  1       21 0.53113867E-02 0.18252018E+03</pdfrwt>
<totfact> 0.58477687E+03</totfact>
</mgrwt>
</event>
<event>
 4    1  0.3945814E+000  0.2560230E+03  0.7546771E-02  0.1109556E+00
         21   -1    0    0  503  502  0.00000000000E+00  0.00000000000E+00  0.55541235846E+03  0.55541235846E+03  0.00000000000E+00 0.  1.
         21   -1    0    0  501  503 -0.00000000000E+00 -0.00000000000E+00 -0.12046458929E+03  0.12046458929E+03  0.00000000000E+00 0.  1.
          6    1    1    2  501    0 -0.54020918851E+02 -0.18083286409E+03  0.26564954345E+03  0.36894100388E+03  0.17300000000E+03 0.  1.
         -6    1    1    2    0  502  0.54020918851E+02  0.18083286409E+03  0.16929822572E+03  0.30693594387E+03  0.17300000000E+03 0.  1.
<mgrwt>
<rscale>  2 0.25602302E+03</rscale>
<asrwt>0</asrwt>
<pdfrwt beam="1">  1       21 0.85448053E-01 0.25602302E+03</pdfrwt>
<pdfrwt beam="2">  1       21 0.18533014E-01 0.25602302E+03</pdfrwt>
<totfact> 0.30502044E+04</totfact>
</mgrwt>
</event>
<event>
 4    1  0.3945814E+000  0.2381353E+03  0.7546771E-02  0.1121041E+00
         21   -1    0    0  501  502  0.00000000000E+00  0.00000000000E+00  0.77276513609E+03  0.77276513609E+03  0.00000000000E+00 0. -1.
         21   -1    0    0  502  503 -0.00000000000E+00 -0.00000000000E+00 -0.10987471386E+03  0.10987471386E+03  0.00000000000E+00 0.  1.
          6    1    1    2  501    0 -0.15719346159E+03 -0.45493178714E+02  0.58577500928E+03  0.63232964122E+03  0.17300000000E+03 0. -1.
         -6    1    1    2    0  503  0.15719346159E+03  0.45493178714E+02  0.77115412956E+02  0.25031020872E+03  0.17300000000E+03 0.  1.
<mgrwt>
<rscale>  2 0.23813528E+03</rscale>
<asrwt>0</asrwt>
<pdfrwt beam="1">  1       21 0.11888694E+00 0.23813528E+03</pdfrwt>
<pdfrwt beam="2">  1       21 0.16903803E-01 0.23813528E+03</pdfrwt>
<totfact> 0.16567356E+04</totfact>
</mgrwt>
</event>
<event>
 4    1  0.3945814E+000  0.1765144E+03  0.7546771E-02  0.1171220E+00
         21   -1    0    0  503  502  0.00000000000E+00  0.00000000000E+00  0.20671998970E+03  0.20671998970E+03  0.00000000000E+00 0. -1.
         21   -1    0    0  501  503 -0.00000000000E+00 -0.00000000000E+00 -0.65154042076E+03  0.65154042076E+03  0.00000000000E+00 0. -1.
          6    1    1    2  501    0 -0.20658634623E+02 -0.28311504584E+02 -0.59864452954E+03  0.62412546273E+03  0.17300000000E+03 0. -1.
         -6    1    1    2    0  502  0.20658634623E+02  0.28311504584E+02  0.15382409848E+03  0.23413494773E+03  0.17300000000E+03 0. -1.
<mgrwt>
<rscale>  2 0.17651436E+03</rscale>
<asrwt>0</asrwt>
<pdfrwt beam="1">  1       21 0.31803076E-01 0.17651436E+03</pdfrwt>
<pdfrwt beam="2">  1       21 0.10023699E+00 0.17651436E+03</pdfrwt>
<totfact> 0.78555623E+03</totfact>
</mgrwt>
</event>
<event>
 4    1  0.3945814E+000  0.1759729E+03  0.7546771E-02  0.1171758E+00
         21   -1    0    0  503  502  0.00000000000E+00  0.00000000000E+00  0.54402708546E+03  0.54402708546E+03  0.00000000000E+00 0. -1.
         21   -1    0    0  501  503 -0.00000000000E+00 -0.00000000000E+00 -0.11192985925E+03  0.11192985925E+03  0.00000000000E+00 0. -1.
          6    1    1    2  501    0  0.31663213615E+02 -0.59071912104E+01 -0.13878131260E+02  0.17651928091E+03  0.17300000000E+03 0. -1.
         -6    1    1    2    0  502 -0.31663213615E+02  0.59071912104E+01  0.44597535747E+03  0.47943766380E+03  0.17300000000E+03 0. -1.
<mgrwt>
<rscale>  2 0.17597288E+03</rscale>
<asrwt>0</asrwt>
<pdfrwt beam="1">  1       21 0.83696473E-01 0.17597288E+03</pdfrwt>
<pdfrwt beam="2">  1       21 0.17219979E-01 0.17597288E+03</pdfrwt>
<totfact> 0.38152819E+04</totfact>
</mgrwt>
</event>
<event>
 4    1  0.3945814E+000  0.1965944E+03  0.7546771E-02  0.1152645E+00
         21   -1    0    0  503  502  0.00000000000E+00  0.00000000000E+00  0.34824734792E+03  0.34824734792E+03  0.00000000000E+00 0.  1.
         21   -1    0    0  501  503 -0.00000000000E+00 -0.00000000000E+00 -0.23129058501E+03  0.23129058501E+03  0.00000000000E+00 0.  1.
          6    1    1    2  501    0 -0.26928534799E+02  0.89415937686E+02 -0.15050912752E+03  0.24759312059E+03  0.17300000000E+03 0.  1.
         -6    1    1    2    0  502  0.26928534799E+02 -0.89415937686E+02  0.26746589043E+03  0.33194481234E+03  0.17300000000E+03 0.  1.
<mgrwt>
<rscale>  2 0.19659439E+03</rscale>
<asrwt>0</asrwt>
<pdfrwt beam="1">  1       21 0.53576515E-01 0.19659439E+03</pdfrwt>
<pdfrwt beam="2">  1       21 0.35583167E-01 0.19659439E+03</pdfrwt>
<totfact> 0.25049088E+04</totfact>
</mgrwt>
</event>
<event>
 4    1  0.3945814E+000  0.2703044E+03  0.7546771E-02  0.1101106E+00
         21   -1    0    0  501  502  0.00000000000E+00  0.00000000000E+00  0.26480629475E+04  0.26480629475E+04  0.00000000000E+00 0.  1.
         21   -1    0    0  502  503 -0.00000000000E+00 -0.00000000000E+00 -0.29704087803E+02  0.29704087803E+02  0.00000000000E+00 0. -1.
          6    1    1    2  501    0 -0.20765411957E+03 -0.39040440340E+01  0.16662259067E+04  0.16880086632E+04  0.17300000000E+03 0.  1.
         -6    1    1    2    0  503  0.20765411957E+03  0.39040440340E+01  0.95213295297E+03  0.98975837206E+03  0.17300000000E+03 0. -1.
<mgrwt>
<rscale>  2 0.27030441E+03</rscale>
<asrwt>0</asrwt>
<pdfrwt beam="1">  1       21 0.40739411E+00 0.27030441E+03</pdfrwt>
<pdfrwt beam="2">  1       21 0.45698618E-02 0.27030441E+03</pdfrwt>
<totfact> 0.22311403E+03</totfact>
</mgrwt>
</event>
<event>
 4    1  0.3945814E+000  0.2304250E+03  0.7546771E-02  0.1126341E+00
         21   -1    0    0  503  502  0.00000000000E+00  0.00000000000E+00  0.53558545189E+03  0.53558545189E+03  0.00000000000E+00 0. -1.
         21   -1    0    0  501  503 -0.00000000000E+00 -0.00000000000E+00 -0.15495452762E+03  0.15495452762E+03  0.00000000000E+00 0. -1.
          6    1    1    2  501    0  0.33893265043E+02  0.14838439285E+03 -0.16911729451E+02  0.23104477499E+03  0.17300000000E+03 0. -1.
         -6    1    1    2    0  502 -0.33893265043E+02 -0.14838439285E+03  0.39754265371E+03  0.45949520452E+03  0.17300000000E+03 0. -1.
<mgrwt>
<rscale>  2 0.23042500E+03</rscale>
<asrwt>0</asrwt>
<pdfrwt beam="1">  1       21 0.82397761E-01 0.23042500E+03</pdfrwt>
<pdfrwt beam="2">  1       21 0.23839158E-01 0.23042500E+03</pdfrwt>
<totfact> 0.20872423E+04</totfact>
</mgrwt>
</event>
<event>
 4    1  0.3945814E+000  0.1814409E+03  0.7546771E-02  0.1166416E+00
         21   -1    0    0  501  502  0.00000000000E+00  0.00000000000E+00  0.42245518450E+02  0.42245518450E+02  0.00000000000E+00 0.  1.
         21   -1    0    0  502  503 -0.00000000000E+00 -0.00000000000E+00 -0.88555885750E+03  0.88555885750E+03  0.00000000000E+00 0.  1.
          6    1    1    2  501    0  0.28596395804E+02 -0.46626600641E+02 -0.58237127871E+03  0.60998122922E+03  0.17300000000E+03 0.  1.
         -6    1    1    2    0  503 -0.28596395804E+02  0.46626600641E+02 -0.26094206035E+03  0.31782314673E+03  0.17300000000E+03 0.  1.
<mgrwt>
<rscale>  2 0.18144088E+03</rscale>
<asrwt>0</asrwt>
<pdfrwt beam="1">  1       21 0.64993109E-02 0.18144088E+03</pdfrwt>
<pdfrwt beam="2">  1       21 0.13623982E+00 0.18144088E+03</pdfrwt>
<totfact> 0.66350930E+04</totfact>
</mgrwt>
</event>
<event>
 4    1  0.3945814E+000  0.1803182E+03  0.7546771E-02  0.1167495E+00
         21   -1    0    0  503  502  0.00000000000E+00  0.00000000000E+00  0.10092351147E+03  0.10092351147E+03  0.00000000000E+00 0. -1.
         21   -1    0    0  501  503 -0.00000000000E+00 -0.00000000000E+00 -0.34122444781E+03  0.34122444781E+03  0.00000000000E+00 0. -1.
          6    1    1    2  501    0  0.50811980297E+02  0.19482128279E+01 -0.17239028039E+03  0.24946555203E+03  0.17300000000E+03 0. -1.
         -6    1    1    2    0  502 -0.50811980297E+02 -0.19482128279E+01 -0.67910655948E+02  0.19268240726E+03  0.17300000000E+03 0. -1.
<mgrwt>
<rscale>  2 0.18031820E+03</rscale>
<asrwt>0</asrwt>
<pdfrwt beam="1">  1       21 0.15526694E-01 0.18031820E+03</pdfrwt>
<pdfrwt beam="2">  1       21 0.52496069E-01 0.18031820E+03</pdfrwt>
<totfact> 0.12730098E+05</totfact>
</mgrwt>
</event>
<event>
 4    1  0.3945814E+000  0.2070912E+03  0.7546771E-02  0.1143890E+00
         21   -1    0    0  503  502  0.00000000000E+00  0.00000000000E+00  0.43918549499E+02  0.43918549499E+02  0.00000000000E+00 0.  1.
         21   -1    0    0  501  503 -0.00000000000E+00 -0.00000000000E+00 -0.11688462613E+04  0.11688462613E+04  0.00000000000E+00 0.  1.
          6    1    1    2  501    0 -0.11209717586E+03  0.19798478559E+02 -0.31648247336E+03  0.37821675337E+03  0.17300000000E+03 0.  1.
         -6    1    1    2    0  502  0.11209717586E+03 -0.19798478559E+02 -0.80844523841E+03  0.83454805739E+03  0.17300000000E+03 0.  1.
<mgrwt>
<rscale>  2 0.20709118E+03</rscale>
<asrwt>0</asrwt>
<pdfrwt beam="1">  1       21 0.67567006E-02 0.20709118E+03</pdfrwt>
<pdfrwt beam="2">  1       21 0.17982248E+00 0.20709118E+03</pdfrwt>
<totfact> 0.29054610E+04</totfact>
</mgrwt>
</event>
<event>
 4    1  0.3945814E+000  0.2411571E+03  0.7546771E-02  0.1119024E+00
         21   -1    0    0  503  502  0.00000000000E+00  0.00000000000E+00  0.22374698913E+04  0.22374698913E+04  0.00000000000E+00 0.  1.
         21   -1    0    0  501  503 -0.00000000000E+00 -0.00000000000E+00 -0.26399226881E+02  0.26399226881E+02  0.00000000000E+00 0.  1.
          6    1    1    2  501    0 -0.91105972833E+02 -0.14116458316E+03  0.12460894970E+04  0.12692106888E+04  0.17300000000E+03 0. -1.
         -6    1    1    2    0  502  0.91105972833E+02  0.14116458316E+03  0.96498116734E+03  0.99465842939E+03  0.17300000000E+03 0. -1.
<mgrwt>
<rscale>  2 0.24115708E+03</rscale>
<asrwt>0</asrwt>
<pdfrwt beam="1">  1       21 0.34422599E+00 0.24115708E+03</pdfrwt>
<pdfrwt beam="2">  1       21 0.40614213E-02 0.24115708E+03</pdfrwt>
<totfact> 0.68476511E+03</totfact>
</mgrwt>
</event>
<event>
 4    1  0.3945814E+000  0.2697428E+03  0.7546771E-02  0.1101427E+00
         21   -1    0    0  501  502  0.00000000000E+00  0.00000000000E+00  0.85231825714E+02  0.85231825714E+02  0.00000000000E+00 0. -1.
         21   -1    0    0  502  503 -0.00000000000E+00 -0.00000000000E+00 -0.10133300420E+04  0.10133300420E+04  0.00000000000E+00 0.  1.
          6    1    1    2  501    0  0.16037745990E+03  0.13081006221E+03 -0.68206876495E+03  0.73347051893E+03  0.17300000000E+03 0.  1.
         -6    1    1    2    0  503 -0.16037745990E+03 -0.13081006221E+03 -0.24602945129E+03  0.36509134874E+03  0.17300000000E+03 0. -1.
<mgrwt>
<rscale>  2 0.26974284E+03</rscale>
<asrwt>0</asrwt>
<pdfrwt beam="1">  1       21 0.13112589E-01 0.26974284E+03</pdfrwt>
<pdfrwt beam="2">  1       21 0.15589693E+00 0.26974284E+03</pdfrwt>
<totfact> 0.12859241E+04</totfact>
</mgrwt>
</event>
<event>
 4    1  0.3945814E+000  0.1828766E+03  0.7546771E-02  0.1165048E+00
         21   -1    0    0  503  502  0.00000000000E+00  0.00000000000E+00  0.84426103583E+03  0.84426103583E+03  0.00000000000E+00 0. -1.
         21   -1    0    0  501  503 -0.00000000000E+00 -0.00000000000E+00 -0.61906860692E+02  0.61906860692E+02  0.00000000000E+00 0. -1.
          6    1    1    2  501    0 -0.26701551334E+02 -0.52932867608E+02  0.11928272112E+03  0.21833970980E+03  0.17300000000E+03 0. -1.
         -6    1    1    2    0  502  0.26701551334E+02  0.52932867608E+02  0.66307145402E+03  0.68782818672E+03  0.17300000000E+03 0. -1.
<mgrwt>
<rscale>  2 0.18287663E+03</rscale>
<asrwt>0</asrwt>
<pdfrwt beam="1">  1       21 0.12988631E+00 0.18287663E+03</pdfrwt>
<pdfrwt beam="2">  1       21 0.95241330E-02 0.18287663E+03</pdfrwt>
<totfact> 0.38520643E+04</totfact>
</mgrwt>
</event>
<event>
 4    1  0.3945814E+000  0.1993734E+03  0.7546771E-02  0.1150269E+00
         21   -1    0    0  501  502  0.00000000000E+00  0.00000000000E+00  0.17453157665E+03  0.17453157665E+03  0.00000000000E+00 0. -1.
         21   -1    0    0  502  503 -0.00000000000E+00 -0.00000000000E+00 -0.33917398750E+03  0.33917398750E+03  0.00000000000E+00 0. -1.
          6    1    1    2  501    0 -0.37895727482E+02  0.91567885556E+02  0.64896536199E+02  0.20966955963E+03  0.17300000000E+03 0. -1.
         -6    1    1    2    0  503  0.37895727482E+02 -0.91567885556E+02 -0.22953894705E+03  0.30403600451E+03  0.17300000000E+03 0. -1.
<mgrwt>
<rscale>  2 0.19937343E+03</rscale>
<asrwt>0</asrwt>
<pdfrwt beam="1">  1       21 0.26851012E-01 0.19937343E+03</pdfrwt>
<pdfrwt beam="2">  1       21 0.52180613E-01 0.19937343E+03</pdfrwt>
<totfact> 0.45878598E+04</totfact>
</mgrwt>
</event>
<event>
 4    1  0.3945814E+000  0.1837576E+03  0.7546771E-02  0.1164215E+00
         21   -1    0    0  503  502  0.00000000000E+00  0.00000000000E+00  0.52886270390E+03  0.52886270390E+03  0.00000000000E+00 0.  1.
         21   -1    0    0  501  503 -0.00000000000E+00 -0.00000000000E+00 -0.70803525465E+02  0.70803525465E+02  0.00000000000E+00 0.  1.
          6    1    1    2  501    0 -0.18686256979E+02  0.59064894327E+02  0.32300547278E+03  0.37161724043E+03  0.17300000000E+03 0.  1.
         -6    1    1    2    0  502  0.18686256979E+02 -0.59064894327E+02  0.13505370566E+03  0.22804898893E+03  0.17300000000E+03 0.  1.
<mgrwt>
<rscale>  2 0.18375755E+03</rscale>
<asrwt>0</asrwt>
<pdfrwt beam="1">  1       21 0.81363490E-01 0.18375755E+03</pdfrwt>
<pdfrwt beam="2">  1       21 0.10892850E-01 0.18375755E+03</pdfrwt>
<totfact> 0.92643280E+04</totfact>
</mgrwt>
</event>
<event>
 4    1  0.3945814E+000  0.1778733E+03  0.7546771E-02  0.1169877E+00
         21   -1    0    0  501  502  0.00000000000E+00  0.00000000000E+00  0.64563020798E+02  0.64563020798E+02  0.00000000000E+00 0.  1.
         21   -1    0    0  502  503 -0.00000000000E+00 -0.00000000000E+00 -0.12523809784E+04  0.12523809784E+04  0.00000000000E+00 0.  1.
          6    1    1    2  501    0  0.13593866205E+02 -0.39052930388E+02 -0.80170996616E+02  0.19510590270E+03  0.17300000000E+03 0.  1.
         -6    1    1    2    0  503 -0.13593866205E+02  0.39052930388E+02 -0.11076469610E+04  0.11218380965E+04  0.17300000000E+03 0.  1.
<mgrwt>
<rscale>  2 0.17787334E+03</rscale>
<asrwt>0</asrwt>
<pdfrwt beam="1">  1       21 0.99327725E-02 0.17787334E+03</pdfrwt>
<pdfrwt beam="2">  1       21 0.19267400E+00 0.17787334E+03</pdfrwt>
<totfact> 0.12450402E+04</totfact>
</mgrwt>
</event>
<event>
 4    1  0.3945814E+000  0.2210498E+03  0.7546771E-02  0.1133103E+00
         21   -1    0    0  503  502  0.00000000000E+00  0.00000000000E+00  0.49526920909E+03  0.49526920909E+03  0.00000000000E+00 0. -1.
         21   -1    0    0  501  503 -0.00000000000E+00 -0.00000000000E+00 -0.10862529322E+03  0.10862529322E+03  0.00000000000E+00 0.  1.
          6    1    1    2  501    0  0.92830738422E+02  0.10157000067E+03  0.10186397871E+03  0.24339121018E+03  0.17300000000E+03 0.  1.
         -6    1    1    2    0  502 -0.92830738422E+02 -0.10157000067E+03  0.28477993716E+03  0.36050329214E+03  0.17300000000E+03 0. -1.
<mgrwt>
<rscale>  2 0.22104979E+03</rscale>
<asrwt>0</asrwt>
<pdfrwt beam="1">  1       21 0.76195261E-01 0.22104979E+03</pdfrwt>
<pdfrwt beam="2">  1       21 0.16711584E-01 0.22104979E+03</pdfrwt>
<totfact> 0.48731757E+04</totfact>
</mgrwt>
</event>
<event>
 4    1  0.3945814E+000  0.2480122E+03  0.7546771E-02  0.1114568E+00
         21   -1    0    0  503  502  0.00000000000E+00  0.00000000000E+00  0.25465609707E+03  0.25465609707E+03  0.00000000000E+00 0. -1.
         21   -1    0    0  501  503 -0.00000000000E+00 -0.00000000000E+00 -0.38874889692E+03  0.38874889692E+03  0.00000000000E+00 0.  1.
          6    1    1    2  501    0 -0.63635345470E+01  0.17759664119E+03 -0.26500956914E+03  0.36296023649E+03  0.17300000000E+03 0.  1.
         -6    1    1    2    0  502  0.63635345470E+01 -0.17759664119E+03  0.13091676929E+03  0.28044475751E+03  0.17300000000E+03 0.  1.
<mgrwt>
<rscale>  2 0.24801222E+03</rscale>
<asrwt>0</asrwt>
<pdfrwt beam="1">  1       21 0.39177861E-01 0.24801222E+03</pdfrwt>
<pdfrwt beam="2">  1       21 0.59807523E-01 0.24801222E+03</pdfrwt>
<totfact> 0.15876102E+04</totfact>
</mgrwt>
</event>
<event>
 4    1  0.3945814E+000  0.1744852E+03  0.7546771E-02  0.1173250E+00
         21   -1    0    0  503  502  0.00000000000E+00  0.00000000000E+00  0.80142203292E+02  0.80142203292E+02  0.00000000000E+00 0. -1.
         21   -1    0    0  501  503 -0.00000000000E+00 -0.00000000000E+00 -0.38301405144E+03  0.38301405144E+03  0.00000000000E+00 0. -1.
          6    1    1    2  501    0  0.17969069601E+02 -0.13899058981E+02 -0.17235678705E+03  0.24525891084E+03  0.17300000000E+03 0. -1.
         -6    1    1    2    0  502 -0.17969069601E+02  0.13899058981E+02 -0.13051506109E+03  0.21789734389E+03  0.17300000000E+03 0. -1.
<mgrwt>
<rscale>  2 0.17448516E+03</rscale>
<asrwt>0</asrwt>
<pdfrwt beam="1">  1       21 0.12329570E-01 0.17448516E+03</pdfrwt>
<pdfrwt beam="2">  1       21 0.58925239E-01 0.17448516E+03</pdfrwt>
<totfact> 0.15148910E+05</totfact>
</mgrwt>
</event>
<event>
 4    1  0.3945814E+000  0.1732698E+03  0.7546771E-02  0.1174480E+00
         21   -1    0    0  503  502  0.00000000000E+00  0.00000000000E+00  0.42500572052E+02  0.42500572052E+02  0.00000000000E+00 0. -1.
         21   -1    0    0  501  503 -0.00000000000E+00 -0.00000000000E+00 -0.71290323881E+03  0.71290323881E+03  0.00000000000E+00 0. -1.
          6    1    1    2  501    0  0.58367615911E+01 -0.77042219886E+01 -0.37127447953E+03  0.40971595279E+03  0.17300000000E+03 0. -1.
         -6    1    1    2    0  502 -0.58367615911E+01  0.77042219886E+01 -0.29912818723E+03  0.34568785807E+03  0.17300000000E+03 0. -1.
<mgrwt>
<rscale>  2 0.17326980E+03</rscale>
<asrwt>0</asrwt>
<pdfrwt beam="1">  1       21 0.65385495E-02 0.17326980E+03</pdfrwt>
<pdfrwt beam="2">  1       21 0.10967742E+00 0.17326980E+03</pdfrwt>
<totfact> 0.11280504E+05</totfact>
</mgrwt>
</event>
<event>
 4    1  0.3945814E+000  0.2291121E+03  0.7546771E-02  0.1127266E+00
         21   -1    0    0  501  502  0.00000000000E+00  0.00000000000E+00  0.14317767067E+03  0.14317767067E+03  0.00000000000E+00 0.  1.
         21   -1    0    0  502  503 -0.00000000000E+00 -0.00000000000E+00 -0.41129941310E+03  0.41129941310E+03  0.00000000000E+00 0. -1.
          6    1    1    2  501    0  0.82465526510E+02  0.12554996566E+03 -0.42689676348E+02  0.23305528401E+03  0.17300000000E+03 0.  1.
         -6    1    1    2    0  503 -0.82465526510E+02 -0.12554996566E+03 -0.22543206608E+03  0.32142179975E+03  0.17300000000E+03 0. -1.
<mgrwt>
<rscale>  2 0.22911211E+03</rscale>
<asrwt>0</asrwt>
<pdfrwt beam="1">  1       21 0.22027334E-01 0.22911211E+03</pdfrwt>
<pdfrwt beam="2">  1       21 0.63276832E-01 0.22911211E+03</pdfrwt>
<totfact> 0.43715546E+04</totfact>
</mgrwt>
</event>
<event>
 4    1  0.3945814E+000  0.2094713E+03  0.7546771E-02  0.1141985E+00
         21   -1    0    0  501  502  0.00000000000E+00  0.00000000000E+00  0.72236725702E+03  0.72236725702E+03  0.00000000000E+00 0. -1.
         21   -1    0    0  502  503 -0.00000000000E+00 -0.00000000000E+00 -0.10413315979E+03  0.10413315979E+03  0.00000000000E+00 0. -1.
          6    1    1    2  501    0 -0.10682484317E+03 -0.50375469516E+02  0.57587524963E+03  0.61278914660E+03  0.17300000000E+03 0. -1.
         -6    1    1    2    0  503  0.10682484317E+03  0.50375469516E+02  0.42358847599E+02  0.21371127022E+03  0.17300000000E+03 0. -1.
<mgrwt>
<rscale>  2 0.20947132E+03</rscale>
<asrwt>0</asrwt>
<pdfrwt beam="1">  1       21 0.11113342E+00 0.20947132E+03</pdfrwt>
<pdfrwt beam="2">  1       21 0.16020487E-01 0.20947132E+03</pdfrwt>
<totfact> 0.21934728E+04</totfact>
</mgrwt>
</event>
<event>
 4    1  0.3945814E+000  0.2142461E+03  0.7546771E-02  0.1138247E+00
         21   -1    0    0  503  502  0.00000000000E+00  0.00000000000E+00  0.71791829189E+02  0.71791829189E+02  0.00000000000E+00 0. -1.
         21   -1    0    0  501  503 -0.00000000000E+00 -0.00000000000E+00 -0.64073349784E+03  0.64073349784E+03  0.00000000000E+00 0.  1.
          6    1    1    2  501    0  0.97379504118E+01 -0.12600622305E+03 -0.26802400276E+03  0.34313009484E+03  0.17300000000E+03 0. -1.
         -6    1    1    2    0  502 -0.97379504118E+01  0.12600622305E+03 -0.30091766589E+03  0.36939523219E+03  0.17300000000E+03 0. -1.
<mgrwt>
<rscale>  2 0.21424611E+03</rscale>
<asrwt>0</asrwt>
<pdfrwt beam="1">  1       21 0.11044896E-01 0.21424611E+03</pdfrwt>
<pdfrwt beam="2">  1       21 0.98574389E-01 0.21424611E+03</pdfrwt>
<totfact> 0.57180736E+04</totfact>
</mgrwt>
</event>
<event>
 4    1  0.3945814E+000  0.3349468E+03  0.7546771E-02  0.1068969E+00
         21   -1    0    0  501  502  0.00000000000E+00  0.00000000000E+00  0.82264462266E+03  0.82264462266E+03  0.00000000000E+00 0.  1.
         21   -1    0    0  502  503 -0.00000000000E+00 -0.00000000000E+00 -0.15292614731E+03  0.15292614731E+03  0.00000000000E+00 0. -1.
          6    1    1    2  501    0  0.25160208647E+01  0.28679968543E+03  0.49532498859E+03  0.59794333698E+03  0.17300000000E+03 0.  1.
         -6    1    1    2    0  503 -0.25160208647E+01 -0.28679968543E+03  0.17439348676E+03  0.37762743299E+03  0.17300000000E+03 0. -1.
<mgrwt>
<rscale>  2 0.33494685E+03</rscale>
<asrwt>0</asrwt>
<pdfrwt beam="1">  1       21 0.12656071E+00 0.33494685E+03</pdfrwt>
<pdfrwt beam="2">  1       21 0.23527100E-01 0.33494685E+03</pdfrwt>
<totfact> 0.72321490E+03</totfact>
</mgrwt>
</event>
<event>
 4    1  0.3945814E+000  0.3007411E+03  0.7546771E-02  0.1084871E+00
         21   -1    0    0  501  502  0.00000000000E+00  0.00000000000E+00  0.90184780820E+03  0.90184780820E+03  0.00000000000E+00 0.  1.
         21   -1    0    0  502  503 -0.00000000000E+00 -0.00000000000E+00 -0.12924844289E+03  0.12924844289E+03  0.00000000000E+00 0. -1.
          6    1    1    2  501    0  0.11740890696E+03 -0.21617432740E+03  0.14226389912E+03  0.33269236278E+03  0.17300000000E+03 0. -1.
         -6    1    1    2    0  503 -0.11740890696E+03  0.21617432740E+03  0.63033546620E+03  0.69840388831E+03  0.17300000000E+03 0.  1.
<mgrwt>
<rscale>  2 0.30074107E+03</rscale>
<asrwt>0</asrwt>
<pdfrwt beam="1">  1       21 0.13874581E+00 0.30074107E+03</pdfrwt>
<pdfrwt beam="2">  1       21 0.19884376E-01 0.30074107E+03</pdfrwt>
<totfact> 0.79870255E+03</totfact>
</mgrwt>
</event>
<event>
 4    1  0.3945814E+000  0.1812971E+03  0.7546771E-02  0.1166554E+00
         21   -1    0    0  501  502  0.00000000000E+00  0.00000000000E+00  0.47607874879E+03  0.47607874879E+03  0.00000000000E+00 0. -1.
         21   -1    0    0  502  503 -0.00000000000E+00 -0.00000000000E+00 -0.21574590274E+03  0.21574590274E+03  0.00000000000E+00 0. -1.
          6    1    1    2  501    0 -0.53942203317E+02 -0.54650699963E+01  0.41541145035E+03  0.45324971194E+03  0.17300000000E+03 0. -1.
         -6    1    1    2    0  503  0.53942203317E+02  0.54650699963E+01 -0.15507860430E+03  0.23857493959E+03  0.17300000000E+03 0. -1.
<mgrwt>
<rscale>  2 0.18129707E+03</rscale>
<asrwt>0</asrwt>
<pdfrwt beam="1">  1       21 0.73242884E-01 0.18129707E+03</pdfrwt>
<pdfrwt beam="2">  1       21 0.33191677E-01 0.18129707E+03</pdfrwt>
<totfact> 0.14757130E+04</totfact>
</mgrwt>
</event>
<event>
 4    1  0.3945814E+000  0.1984612E+03  0.7546771E-02  0.1151044E+00
         21   -1    0    0  501  502  0.00000000000E+00  0.00000000000E+00  0.14748880748E+03  0.14748880748E+03  0.00000000000E+00 0.  1.
         21   -1    0    0  502  503 -0.00000000000E+00 -0.00000000000E+00 -0.36195315449E+03  0.36195315449E+03  0.00000000000E+00 0. -1.
          6    1    1    2  501    0  0.39603482866E+02  0.88822348858E+02  0.23198425391E+02  0.19981244319E+03  0.17300000000E+03 0.  1.
         -6    1    1    2    0  503 -0.39603482866E+02 -0.88822348858E+02 -0.23766277240E+03  0.30962951878E+03  0.17300000000E+03 0. -1.
<mgrwt>
<rscale>  2 0.19846119E+03</rscale>
<asrwt>0</asrwt>
<pdfrwt beam="1">  1       21 0.22690586E-01 0.19846119E+03</pdfrwt>
<pdfrwt beam="2">  1       21 0.55685099E-01 0.19846119E+03</pdfrwt>
<totfact> 0.55174754E+04</totfact>
</mgrwt>
</event>
<event>
 4    1  0.3945814E+000  0.1806371E+03  0.7546771E-02  0.1167188E+00
         21   -1    0    0  501  502  0.00000000000E+00  0.00000000000E+00  0.82386082949E+02  0.82386082949E+02  0.00000000000E+00 0.  1.
         21   -1    0    0  502  503 -0.00000000000E+00 -0.00000000000E+00 -0.68001681827E+03  0.68001681827E+03  0.00000000000E+00 0.  1.
          6    1    1    2  501    0 -0.32268811068E+02 -0.40736637807E+02 -0.52482914911E+02  0.18810690095E+03  0.17300000000E+03 0.  1.
         -6    1    1    2    0  503  0.32268811068E+02  0.40736637807E+02 -0.54514782041E+03  0.57429600027E+03  0.17300000000E+03 0.  1.
<mgrwt>
<rscale>  2 0.18063707E+03</rscale>
<asrwt>0</asrwt>
<pdfrwt beam="1">  1       21 0.12674782E-01 0.18063707E+03</pdfrwt>
<pdfrwt beam="2">  1       21 0.10461797E+00 0.18063707E+03</pdfrwt>
<totfact> 0.39462604E+04</totfact>
</mgrwt>
</event>
<event>
 4    1  0.3945814E+000  0.2604199E+03  0.7546771E-02  0.1106891E+00
         21   -1    0    0  503  502  0.00000000000E+00  0.00000000000E+00  0.27917275479E+03  0.27917275479E+03  0.00000000000E+00 0. -1.
         21   -1    0    0  501  503 -0.00000000000E+00 -0.00000000000E+00 -0.54645874379E+03  0.54645874379E+03  0.00000000000E+00 0. -1.
          6    1    1    2  501    0 -0.72335471564E+02 -0.18071270802E+03 -0.44130925554E+03  0.51241815182E+03  0.17300000000E+03 0. -1.
         -6    1    1    2    0  502  0.72335471564E+02  0.18071270802E+03  0.17402326655E+03  0.31321334676E+03  0.17300000000E+03 0. -1.
<mgrwt>
<rscale>  2 0.26041986E+03</rscale>
<asrwt>0</asrwt>
<pdfrwt beam="1">  1       21 0.42949655E-01 0.26041986E+03</pdfrwt>
<pdfrwt beam="2">  1       21 0.84070574E-01 0.26041986E+03</pdfrwt>
<totfact> 0.61223497E+03</totfact>
</mgrwt>
</event>
<event>
 4    1  0.3945814E+000  0.3405072E+03  0.7546771E-02  0.1066580E+00
         21   -1    0    0  501  502  0.00000000000E+00  0.00000000000E+00  0.45224741319E+02  0.45224741319E+02  0.00000000000E+00 0. -1.
         21   -1    0    0  502  503 -0.00000000000E+00 -0.00000000000E+00 -0.25885716092E+04  0.25885716092E+04  0.00000000000E+00 0.  1.
          6    1    1    2  501    0  0.27530622426E+03  0.10110688619E+03 -0.11427296210E+04  0.11923825335E+04  0.17300000000E+03 0.  1.
         -6    1    1    2    0  503 -0.27530622426E+03 -0.10110688619E+03 -0.14006172469E+04  0.14414138170E+04  0.17300000000E+03 0.  1.
<mgrwt>
<rscale>  2 0.34050715E+03</rscale>
<asrwt>0</asrwt>
<pdfrwt beam="1">  1       21 0.69576524E-02 0.34050715E+03</pdfrwt>
<pdfrwt beam="2">  1       21 0.39824179E+00 0.34050715E+03</pdfrwt>
<totfact> 0.11592049E+03</totfact>
</mgrwt>
</event>
<event>
 4    1  0.3945814E+000  0.2078768E+03  0.7546771E-02  0.1143258E+00
         21   -1    0    0  501  502  0.00000000000E+00  0.00000000000E+00  0.13117146734E+03  0.13117146734E+03  0.00000000000E+00 0.  1.
         21   -1    0    0  502  503 -0.00000000000E+00 -0.00000000000E+00 -0.33025004784E+03  0.33025004784E+03  0.00000000000E+00 0.  1.
          6    1    1    2  501    0 -0.53383013804E+01 -0.11513150574E+03 -0.88093370105E+02  0.22577245831E+03  0.17300000000E+03 0.  1.
         -6    1    1    2    0  503  0.53383013804E+01  0.11513150574E+03 -0.11098521040E+03  0.23564905687E+03  0.17300000000E+03 0.  1.
<mgrwt>
<rscale>  2 0.20787679E+03</rscale>
<asrwt>0</asrwt>
<pdfrwt beam="1">  1       21 0.20180226E-01 0.20787679E+03</pdfrwt>
<pdfrwt beam="2">  1       21 0.50807698E-01 0.20787679E+03</pdfrwt>
<totfact> 0.83108303E+04</totfact>
</mgrwt>
</event>
<event>
 4    1  0.3945814E+000  0.2106194E+03  0.7546771E-02  0.1141076E+00
         21   -1    0    0  503  502  0.00000000000E+00  0.00000000000E+00  0.34226571473E+03  0.34226571473E+03  0.00000000000E+00 0. -1.
         21   -1    0    0  501  503 -0.00000000000E+00 -0.00000000000E+00 -0.25582442469E+03  0.25582442469E+03  0.00000000000E+00 0.  1.
          6    1    1    2  501    0  0.58013185074E+02  0.10519506036E+03 -0.16682940937E+03  0.26868677340E+03  0.17300000000E+03 0.  1.
         -6    1    1    2    0  502 -0.58013185074E+02 -0.10519506036E+03  0.25327069942E+03  0.32940336603E+03  0.17300000000E+03 0. -1.
<mgrwt>
<rscale>  2 0.21061940E+03</rscale>
<asrwt>0</asrwt>
<pdfrwt beam="1">  1       21 0.52656264E-01 0.21061940E+03</pdfrwt>
<pdfrwt beam="2">  1       21 0.39357604E-01 0.21061940E+03</pdfrwt>
<totfact> 0.21055937E+04</totfact>
</mgrwt>
</event>
<event>
 4    1  0.3945814E+000  0.1873127E+03  0.7546771E-02  0.1160908E+00
         21   -1    0    0  503  502  0.00000000000E+00  0.00000000000E+00  0.16120626571E+03  0.16120626571E+03  0.00000000000E+00 0. -1.
         21   -1    0    0  501  503 -0.00000000000E+00 -0.00000000000E+00 -0.24490649459E+03  0.24490649459E+03  0.00000000000E+00 0. -1.
          6    1    1    2  501    0 -0.44879083599E+02  0.56061629745E+02 -0.10959499129E+03  0.21701866415E+03  0.17300000000E+03 0. -1.
         -6    1    1    2    0  502  0.44879083599E+02 -0.56061629745E+02  0.25894762416E+02  0.18909409614E+03  0.17300000000E+03 0. -1.
<mgrwt>
<rscale>  2 0.18731268E+03</rscale>
<asrwt>0</asrwt>
<pdfrwt beam="1">  1       21 0.24800964E-01 0.18731268E+03</pdfrwt>
<pdfrwt beam="2">  1       21 0.37677922E-01 0.18731268E+03</pdfrwt>
<totfact> 0.10468777E+05</totfact>
</mgrwt>
</event>
<event>
 4    1  0.3945814E+000  0.2156193E+03  0.7546771E-02  0.1137192E+00
         21   -1    0    0  501  502  0.00000000000E+00  0.00000000000E+00  0.22809025269E+04  0.22809025269E+04  0.00000000000E+00 0. -1.
         21   -1    0    0  502  503 -0.00000000000E+00 -0.00000000000E+00 -0.22404966356E+02  0.22404966356E+02  0.00000000000E+00 0. -1.
          6    1    1    2  501    0  0.12734891760E+03 -0.18572616519E+02  0.14752154477E+04  0.14908897699E+04  0.17300000000E+03 0. -1.
         -6    1    1    2    0  503 -0.12734891760E+03  0.18572616519E+02  0.78328211283E+03  0.81241772333E+03  0.17300000000E+03 0. -1.
<mgrwt>
<rscale>  2 0.21561931E+03</rscale>
<asrwt>0</asrwt>
<pdfrwt beam="1">  1       21 0.35090790E+00 0.21561931E+03</pdfrwt>
<pdfrwt beam="2">  1       21 0.34469197E-02 0.21561931E+03</pdfrwt>
<totfact> 0.84518260E+03</totfact>
</mgrwt>
</event>
<event>
 4    1  0.3945814E+000  0.2565967E+03  0.7546771E-02  0.1109205E+00
         21   -1    0    0  503  502  0.00000000000E+00  0.00000000000E+00  0.26925516745E+03  0.26925516745E+03  0.00000000000E+00 0.  1.
         21   -1    0    0  501  503 -0.00000000000E+00 -0.00000000000E+00 -0.25595933350E+03  0.25595933350E+03  0.00000000000E+00 0.  1.
          6    1    1    2  501    0  0.38433129035E+02 -0.18556878147E+03 -0.48836026464E+02  0.26120267139E+03  0.17300000000E+03 0.  1.
         -6    1    1    2    0  502 -0.38433129035E+02  0.18556878147E+03  0.62131860415E+02  0.26401182955E+03  0.17300000000E+03 0.  1.
<mgrwt>
<rscale>  2 0.25659672E+03</rscale>
<asrwt>0</asrwt>
<pdfrwt beam="1">  1       21 0.41423872E-01 0.25659672E+03</pdfrwt>
<pdfrwt beam="2">  1       21 0.39378359E-01 0.25659672E+03</pdfrwt>
<totfact> 0.33833242E+04</totfact>
</mgrwt>
</event>
<event>
 4    1  0.3945814E+000  0.1737191E+03  0.7546771E-02  0.1174024E+00
         21   -1    0    0  503  502  0.00000000000E+00  0.00000000000E+00  0.15912880953E+03  0.15912880953E+03  0.00000000000E+00 0.  1.
         21   -1    0    0  501  503 -0.00000000000E+00 -0.00000000000E+00 -0.26175677504E+03  0.26175677504E+03  0.00000000000E+00 0.  1.
          6    1    1    2  501    0 -0.51715457940E+01 -0.14918716993E+02 -0.16176810777E+03  0.23737572263E+03  0.17300000000E+03 0.  1.
         -6    1    1    2    0  502  0.51715457940E+01  0.14918716993E+02  0.59140142257E+02  0.18350986194E+03  0.17300000000E+03 0.  1.
<mgrwt>
<rscale>  2 0.17371906E+03</rscale>
<asrwt>0</asrwt>
<pdfrwt beam="1">  1       21 0.24481355E-01 0.17371906E+03</pdfrwt>
<pdfrwt beam="2">  1       21 0.40270273E-01 0.17371906E+03</pdfrwt>
<totfact> 0.94366888E+04</totfact>
</mgrwt>
</event>
<event>
 4    1  0.3945814E+000  0.2101167E+03  0.7546771E-02  0.1141474E+00
         21   -1    0    0  501  502  0.00000000000E+00  0.00000000000E+00  0.56724481179E+03  0.56724481179E+03  0.00000000000E+00 0.  1.
         21   -1    0    0  502  503 -0.00000000000E+00 -0.00000000000E+00 -0.91119211155E+02  0.91119211155E+02  0.00000000000E+00 0.  1.
          6    1    1    2  501    0 -0.88205760359E+02 -0.80248087533E+02  0.36377305174E+03  0.42009504268E+03  0.17300000000E+03 0.  1.
         -6    1    1    2    0  503  0.88205760359E+02  0.80248087533E+02  0.11235254890E+03  0.23826898027E+03  0.17300000000E+03 0.  1.
<mgrwt>
<rscale>  2 0.21011666E+03</rscale>
<asrwt>0</asrwt>
<pdfrwt beam="1">  1       21 0.87268430E-01 0.21011666E+03</pdfrwt>
<pdfrwt beam="2">  1       21 0.14018341E-01 0.21011666E+03</pdfrwt>
<totfact> 0.49602234E+04</totfact>
</mgrwt>
</event>
<event>
 4    1  0.3945814E+000  0.2666011E+03  0.7546771E-02  0.1103241E+00
         21   -1    0    0  501  502  0.00000000000E+00  0.00000000000E+00  0.19954606062E+03  0.19954606062E+03  0.00000000000E+00 0. -1.
         21   -1    0    0  502  503 -0.00000000000E+00 -0.00000000000E+00 -0.48234799257E+03  0.48234799257E+03  0.00000000000E+00 0. -1.
          6    1    1    2  501    0 -0.13117664228E+03  0.15472501432E+03  0.32966525285E+02  0.26863159406E+03  0.17300000000E+03 0. -1.
         -6    1    1    2    0  503  0.13117664228E+03 -0.15472501432E+03 -0.31576845724E+03  0.41326245913E+03  0.17300000000E+03 0. -1.
<mgrwt>
<rscale>  2 0.26660109E+03</rscale>
<asrwt>0</asrwt>
<pdfrwt beam="1">  1       21 0.30699394E-01 0.26660109E+03</pdfrwt>
<pdfrwt beam="2">  1       21 0.74207383E-01 0.26660109E+03</pdfrwt>
<totfact> 0.15918680E+04</totfact>
</mgrwt>
</event>
<event>
 4    1  0.3945814E+000  0.1759522E+03  0.7546771E-02  0.1171779E+00
         21   -1    0    0  501  502  0.00000000000E+00  0.00000000000E+00  0.78113884977E+02  0.78113884977E+02  0.00000000000E+00 0. -1.
         21   -1    0    0  502  503 -0.00000000000E+00 -0.00000000000E+00 -0.43250121147E+03  0.43250121147E+03  0.00000000000E+00 0. -1.
          6    1    1    2  501    0  0.22049381334E+02 -0.23323700945E+02 -0.25102298963E+03  0.30654805751E+03  0.17300000000E+03 0. -1.
         -6    1    1    2    0  503 -0.22049381334E+02  0.23323700945E+02 -0.10336433686E+03  0.20406703893E+03  0.17300000000E+03 0. -1.
<mgrwt>
<rscale>  2 0.17595218E+03</rscale>
<asrwt>0</asrwt>
<pdfrwt beam="1">  1       21 0.12017521E-01 0.17595218E+03</pdfrwt>
<pdfrwt beam="2">  1       21 0.66538647E-01 0.17595218E+03</pdfrwt>
<totfact> 0.12195551E+05</totfact>
</mgrwt>
</event>
<event>
 4    1  0.3945814E+000  0.1866710E+03  0.7546771E-02  0.1161499E+00
         21   -1    0    0  503  502  0.00000000000E+00  0.00000000000E+00  0.50250785830E+03  0.50250785830E+03  0.00000000000E+00 0.  1.
         21   -1    0    0  501  503 -0.00000000000E+00 -0.00000000000E+00 -0.83509957236E+02  0.83509957236E+02  0.00000000000E+00 0.  1.
          6    1    1    2  501    0 -0.43125448352E+02 -0.55292473760E+02  0.88820460889E+02  0.20672478376E+03  0.17300000000E+03 0.  1.
         -6    1    1    2    0  502  0.43125448352E+02  0.55292473760E+02  0.33017744018E+03  0.37929303177E+03  0.17300000000E+03 0.  1.
<mgrwt>
<rscale>  2 0.18667100E+03</rscale>
<asrwt>0</asrwt>
<pdfrwt beam="1">  1       21 0.77308899E-01 0.18667100E+03</pdfrwt>
<pdfrwt beam="2">  1       21 0.12847686E-01 0.18667100E+03</pdfrwt>
<totfact> 0.77326916E+04</totfact>
</mgrwt>
</event>
<event>
 4    1  0.3945814E+000  0.2643218E+03  0.7546771E-02  0.1104574E+00
         21   -1    0    0  501  502  0.00000000000E+00  0.00000000000E+00  0.10039535945E+03  0.10039535945E+03  0.00000000000E+00 0.  1.
         21   -1    0    0  502  503 -0.00000000000E+00 -0.00000000000E+00 -0.90298140205E+03  0.90298140205E+03  0.00000000000E+00 0.  1.
          6    1    1    2  501    0 -0.10685851537E+03 -0.16887354166E+03 -0.64153890049E+03  0.69385746103E+03  0.17300000000E+03 0.  1.
         -6    1    1    2    0  503  0.10685851537E+03  0.16887354166E+03 -0.16104714212E+03  0.30951930047E+03  0.17300000000E+03 0.  1.
<mgrwt>
<rscale>  2 0.26432180E+03</rscale>
<asrwt>0</asrwt>
<pdfrwt beam="1">  1       21 0.15445440E-01 0.26432180E+03</pdfrwt>
<pdfrwt beam="2">  1       21 0.13892021E+00 0.26432180E+03</pdfrwt>
<totfact> 0.12982834E+04</totfact>
</mgrwt>
</event>
<event>
 4    1  0.3945814E+000  0.2419040E+03  0.7546771E-02  0.1118531E+00
         21   -1    0    0  501  502  0.00000000000E+00  0.00000000000E+00  0.93891880623E+03  0.93891880623E+03  0.00000000000E+00 0. -1.
         21   -1    0    0  502  503 -0.00000000000E+00 -0.00000000000E+00 -0.90059170505E+02  0.90059170505E+02  0.00000000000E+00 0.  1.
          6    1    1    2  501    0 -0.16455237564E+03 -0.38872097828E+02  0.70994198833E+03  0.75002343370E+03  0.17300000000E+03 0. -1.
         -6    1    1    2    0  503  0.16455237564E+03  0.38872097828E+02  0.13891764740E+03  0.27895454303E+03  0.17300000000E+03 0.  1.
<mgrwt>
<rscale>  2 0.24190396E+03</rscale>
<asrwt>0</asrwt>
<pdfrwt beam="1">  1       21 0.14444904E+00 0.24190396E+03</pdfrwt>
<pdfrwt beam="2">  1       21 0.13855258E-01 0.24190396E+03</pdfrwt>
<totfact> 0.14477494E+04</totfact>
</mgrwt>
</event>
<event>
 4    1  0.3945814E+000  0.1790682E+03  0.7546771E-02  0.1168708E+00
         21   -1    0    0  503  502  0.00000000000E+00  0.00000000000E+00  0.38270202292E+03  0.38270202292E+03  0.00000000000E+00 0.  1.
         21   -1    0    0  501  503 -0.00000000000E+00 -0.00000000000E+00 -0.22102098775E+03  0.22102098775E+03  0.00000000000E+00 0.  1.
          6    1    1    2  501    0  0.20561758121E+02 -0.41395887660E+02 -0.15701981396E+03  0.23816092750E+03  0.17300000000E+03 0.  1.
         -6    1    1    2    0  502 -0.20561758121E+02  0.41395887660E+02  0.31870084914E+03  0.36556208317E+03  0.17300000000E+03 0.  1.
<mgrwt>
<rscale>  2 0.17906816E+03</rscale>
<asrwt>0</asrwt>
<pdfrwt beam="1">  1       21 0.58877234E-01 0.17906816E+03</pdfrwt>
<pdfrwt beam="2">  1       21 0.34003229E-01 0.17906816E+03</pdfrwt>
<totfact> 0.22663331E+04</totfact>
</mgrwt>
</event>
<event>
 4    1  0.3945814E+000  0.1980752E+03  0.7546771E-02  0.1151373E+00
         21   -1    0    0  501  502  0.00000000000E+00  0.00000000000E+00  0.93643032214E+02  0.93643032214E+02  0.00000000000E+00 0. -1.
         21   -1    0    0  502  503 -0.00000000000E+00 -0.00000000000E+00 -0.86120682210E+03  0.86120682210E+03  0.00000000000E+00 0. -1.
          6    1    1    2  501    0 -0.86576797015E+01  0.96071906675E+02 -0.41662222691E+02  0.20240925737E+03  0.17300000000E+03 0. -1.
         -6    1    1    2    0  503  0.86576797015E+01 -0.96071906675E+02 -0.72590156720E+03  0.75244059694E+03  0.17300000000E+03 0. -1.
<mgrwt>
<rscale>  2 0.19807515E+03</rscale>
<asrwt>0</asrwt>
<pdfrwt beam="1">  1       21 0.14406621E-01 0.19807515E+03</pdfrwt>
<pdfrwt beam="2">  1       21 0.13249336E+00 0.19807515E+03</pdfrwt>
<totfact> 0.17328693E+04</totfact>
</mgrwt>
</event>
<event>
 4    1  0.3945814E+000  0.1915226E+03  0.7546771E-02  0.1157095E+00
         21   -1    0    0  503  502  0.00000000000E+00  0.00000000000E+00  0.95119229400E+03  0.95119229400E+03  0.00000000000E+00 0.  1.
         21   -1    0    0  501  503 -0.00000000000E+00 -0.00000000000E+00 -0.68180078514E+02  0.68180078514E+02  0.00000000000E+00 0.  1.
          6    1    1    2  501    0 -0.80033260131E+02 -0.18616458762E+02  0.10557926515E+03  0.21869585386E+03  0.17300000000E+03 0.  1.
         -6    1    1    2    0  502  0.80033260131E+02  0.18616458762E+02  0.77743295034E+03  0.80067651866E+03  0.17300000000E+03 0.  1.
<mgrwt>
<rscale>  2 0.19152257E+03</rscale>
<asrwt>0</asrwt>
<pdfrwt beam="1">  1       21 0.14633727E+00 0.19152257E+03</pdfrwt>
<pdfrwt beam="2">  1       21 0.10489244E-01 0.19152257E+03</pdfrwt>
<totfact> 0.23800084E+04</totfact>
</mgrwt>
</event>
<event>
 4    1  0.3945814E+000  0.1740749E+03  0.7546771E-02  0.1173664E+00
         21   -1    0    0  501  502  0.00000000000E+00  0.00000000000E+00  0.15413769518E+03  0.15413769518E+03  0.00000000000E+00 0. -1.
         21   -1    0    0  502  503 -0.00000000000E+00 -0.00000000000E+00 -0.33400247030E+03  0.33400247030E+03  0.00000000000E+00 0. -1.
          6    1    1    2  501    0  0.16168777464E+02 -0.10565894617E+02  0.66616998109E+02  0.18638640490E+03  0.17300000000E+03 0. -1.
         -6    1    1    2    0  503 -0.16168777464E+02  0.10565894617E+02 -0.24648177322E+03  0.30175376058E+03  0.17300000000E+03 0. -1.
<mgrwt>
<rscale>  2 0.17407489E+03</rscale>
<asrwt>0</asrwt>
<pdfrwt beam="1">  1       21 0.23713492E-01 0.17407489E+03</pdfrwt>
<pdfrwt beam="2">  1       21 0.51384995E-01 0.17407489E+03</pdfrwt>
<totfact> 0.60789106E+04</totfact>
</mgrwt>
</event>
<event>
 4    1  0.3945814E+000  0.1732062E+03  0.7546771E-02  0.1174545E+00
         21   -1    0    0  501  502  0.00000000000E+00  0.00000000000E+00  0.62675168030E+02  0.62675168030E+02  0.00000000000E+00 0.  1.
         21   -1    0    0  502  503 -0.00000000000E+00 -0.00000000000E+00 -0.51602758531E+03  0.51602758531E+03  0.00000000000E+00 0.  1.
          6    1    1    2  501    0 -0.83979412501E+01 -0.93335399906E+00 -0.14881722416E+03  0.22835709486E+03  0.17300000000E+03 0.  1.
         -6    1    1    2    0  503  0.83979412501E+01  0.93335399906E+00 -0.30453519311E+03  0.35034565847E+03  0.17300000000E+03 0.  1.
<mgrwt>
<rscale>  2 0.17320623E+03</rscale>
<asrwt>0</asrwt>
<pdfrwt beam="1">  1       21 0.96423334E-02 0.17320623E+03</pdfrwt>
<pdfrwt beam="2">  1       21 0.79388861E-01 0.17320623E+03</pdfrwt>
<totfact> 0.12197233E+05</totfact>
</mgrwt>
</event>
<event>
 4    1  0.3945814E+000  0.2004181E+03  0.7546771E-02  0.1149387E+00
         21   -1    0    0  503  502  0.00000000000E+00  0.00000000000E+00  0.43762794862E+03  0.43762794862E+03  0.00000000000E+00 0.  1.
         21   -1    0    0  501  503 -0.00000000000E+00 -0.00000000000E+00 -0.39252322982E+03  0.39252322982E+03  0.00000000000E+00 0.  1.
          6    1    1    2  501    0 -0.52838128625E+02  0.86293318985E+02 -0.34076762511E+03  0.39533527424E+03  0.17300000000E+03 0.  1.
         -6    1    1    2    0  502  0.52838128625E+02 -0.86293318985E+02  0.38587234391E+03  0.43481590419E+03  0.17300000000E+03 0.  1.
<mgrwt>
<rscale>  2 0.20041807E+03</rscale>
<asrwt>0</asrwt>
<pdfrwt beam="1">  1       21 0.67327376E-01 0.20041807E+03</pdfrwt>
<pdfrwt beam="2">  1       21 0.60388189E-01 0.20041807E+03</pdfrwt>
<totfact> 0.51270422E+03</totfact>
</mgrwt>
</event>
<event>
 4    1  0.3945814E+000  0.1804445E+03  0.7546771E-02  0.1167374E+00
         21   -1    0    0  503  502  0.00000000000E+00  0.00000000000E+00  0.65895341470E+03  0.65895341470E+03  0.00000000000E+00 0. -1.
         21   -1    0    0  501  503 -0.00000000000E+00 -0.00000000000E+00 -0.67525986926E+02  0.67525986926E+02  0.00000000000E+00 0. -1.
          6    1    1    2  501    0 -0.49157345909E+02  0.14655696950E+02  0.48384644278E+03  0.51639869704E+03  0.17300000000E+03 0. -1.
         -6    1    1    2    0  502  0.49157345909E+02 -0.14655696950E+02  0.10758098500E+03  0.21008070459E+03  0.17300000000E+03 0. -1.
<mgrwt>
<rscale>  2 0.18044455E+03</rscale>
<asrwt>0</asrwt>
<pdfrwt beam="1">  1       21 0.10137744E+00 0.18044455E+03</pdfrwt>
<pdfrwt beam="2">  1       21 0.10388614E-01 0.18044455E+03</pdfrwt>
<totfact> 0.60628123E+04</totfact>
</mgrwt>
</event>
<event>
 4    1  0.3945814E+000  0.1836784E+03  0.7546771E-02  0.1164290E+00
         21   -1    0    0  501  502  0.00000000000E+00  0.00000000000E+00  0.14258912367E+04  0.14258912367E+04  0.00000000000E+00 0.  1.
         21   -1    0    0  502  503 -0.00000000000E+00 -0.00000000000E+00 -0.26813830750E+02  0.26813830750E+02  0.00000000000E+00 0.  1.
          6    1    1    2  501    0 -0.40597635236E+02 -0.46481914153E+02  0.94861459503E+03  0.96623360852E+03  0.17300000000E+03 0.  1.
         -6    1    1    2    0  503  0.40597635236E+02  0.46481914153E+02  0.45046281090E+03  0.48647145891E+03  0.17300000000E+03 0.  1.
<mgrwt>
<rscale>  2 0.18367835E+03</rscale>
<asrwt>0</asrwt>
<pdfrwt beam="1">  1       21 0.21936782E+00 0.18367835E+03</pdfrwt>
<pdfrwt beam="2">  1       21 0.41252059E-02 0.18367835E+03</pdfrwt>
<totfact> 0.38018457E+04</totfact>
</mgrwt>
</event>
<event>
 4    1  0.3945814E+000  0.2686972E+03  0.7546771E-02  0.1102028E+00
         21   -1    0    0  503  502  0.00000000000E+00  0.00000000000E+00  0.13016542069E+04  0.13016542069E+04  0.00000000000E+00 0. -1.
         21   -1    0    0  501  503 -0.00000000000E+00 -0.00000000000E+00 -0.57745751906E+02  0.57745751906E+02  0.00000000000E+00 0.  1.
          6    1    1    2  501    0  0.19185987414E+03 -0.73885043627E+02  0.75699123979E+03  0.80326455673E+03  0.17300000000E+03 0. -1.
         -6    1    1    2    0  502 -0.19185987414E+03  0.73885043627E+02  0.48691721516E+03  0.55613540204E+03  0.17300000000E+03 0.  1.
<mgrwt>
<rscale>  2 0.26869725E+03</rscale>
<asrwt>0</asrwt>
<pdfrwt beam="1">  1       21 0.20025447E+00 0.26869725E+03</pdfrwt>
<pdfrwt beam="2">  1       21 0.88839628E-02 0.26869725E+03</pdfrwt>
<totfact> 0.12669963E+04</totfact>
</mgrwt>
</event>
<event>
 4    1  0.3945814E+000  0.2404661E+03  0.7546771E-02  0.1119483E+00
         21   -1    0    0  503  502  0.00000000000E+00  0.00000000000E+00  0.10462547231E+04  0.10462547231E+04  0.00000000000E+00 0. -1.
         21   -1    0    0  501  503 -0.00000000000E+00 -0.00000000000E+00 -0.13998198638E+03  0.13998198638E+03  0.00000000000E+00 0.  1.
          6    1    1    2  501    0  0.11708087930E+03 -0.11910921613E+03 -0.82704361321E+01  0.24060826623E+03  0.17300000000E+03 0.  1.
         -6    1    1    2    0  502 -0.11708087930E+03  0.11910921613E+03  0.91454317285E+03  0.94562844324E+03  0.17300000000E+03 0. -1.
<mgrwt>
<rscale>  2 0.24046608E+03</rscale>
<asrwt>0</asrwt>
<pdfrwt beam="1">  1       21 0.16096226E+00 0.24046608E+03</pdfrwt>
<pdfrwt beam="2">  1       21 0.21535691E-01 0.24046608E+03</pdfrwt>
<totfact> 0.47912700E+03</totfact>
</mgrwt>
</event>
<event>
 4    1  0.3945814E+000  0.1773698E+03  0.7546771E-02  0.1170373E+00
         21   -1    0    0  501  502  0.00000000000E+00  0.00000000000E+00  0.23939170176E+04  0.23939170176E+04  0.00000000000E+00 0.  1.
         21   -1    0    0  502  503 -0.00000000000E+00 -0.00000000000E+00 -0.18544296207E+03  0.18544296207E+03  0.00000000000E+00 0. -1.
          6    1    1    2  501    0  0.13602801082E+02 -0.36687848037E+02  0.23473799687E+04  0.23540715265E+04  0.17300000000E+03 0.  1.
         -6    1    1    2    0  503 -0.13602801082E+02  0.36687848037E+02 -0.13890591322E+03  0.22528845314E+03  0.17300000000E+03 0. -1.
<mgrwt>
<rscale>  2 0.17736977E+03</rscale>
<asrwt>0</asrwt>
<pdfrwt beam="1">  1       21 0.36829490E+00 0.17736977E+03</pdfrwt>
<pdfrwt beam="2">  1       21 0.28529688E-01 0.17736977E+03</pdfrwt>
<totfact> 0.16438917E+02</totfact>
</mgrwt>
</event>
<event>
 4    1  0.3945814E+000  0.1863163E+03  0.7546771E-02  0.1161826E+00
         21   -1    0    0  501  502  0.00000000000E+00  0.00000000000E+00  0.67615881378E+03  0.67615881378E+03  0.00000000000E+00 0.  1.
         21   -1    0    0  502  503 -0.00000000000E+00 -0.00000000000E+00 -0.52420021474E+02  0.52420021474E+02  0.00000000000E+00 0. -1.
          6    1    1    2  501    0 -0.69161391902E+02  0.12042821665E+01  0.36416762908E+03  0.40906211080E+03  0.17300000000E+03 0. -1.
         -6    1    1    2    0  503  0.69161391902E+02 -0.12042821665E+01  0.25957116323E+03  0.31951672446E+03  0.17300000000E+03 0. -1.
<mgrwt>
<rscale>  2 0.18631626E+03</rscale>
<asrwt>0</asrwt>
<pdfrwt beam="1">  1       21 0.10402443E+00 0.18631626E+03</pdfrwt>
<pdfrwt beam="2">  1       21 0.80646191E-02 0.18631626E+03</pdfrwt>
<totfact> 0.88653653E+04</totfact>
</mgrwt>
</event>
<event>
 4    1  0.3945814E+000  0.2150374E+03  0.7546771E-02  0.1137638E+00
         21   -1    0    0  501  502  0.00000000000E+00  0.00000000000E+00  0.18737982501E+04  0.18737982501E+04  0.00000000000E+00 0. -1.
         21   -1    0    0  502  503 -0.00000000000E+00 -0.00000000000E+00 -0.26233516228E+02  0.26233516228E+02  0.00000000000E+00 0. -1.
          6    1    1    2  501    0  0.10274258799E+03  0.75868677917E+02  0.11551363338E+04  0.11749812957E+04  0.17300000000E+03 0. -1.
         -6    1    1    2    0  503 -0.10274258799E+03 -0.75868677917E+02  0.69242840014E+03  0.72505047065E+03  0.17300000000E+03 0. -1.
<mgrwt>
<rscale>  2 0.21503743E+03</rscale>
<asrwt>0</asrwt>
<pdfrwt beam="1">  1       21 0.28827655E+00 0.21503743E+03</pdfrwt>
<pdfrwt beam="2">  1       21 0.40359271E-02 0.21503743E+03</pdfrwt>
<totfact> 0.15064630E+04</totfact>
</mgrwt>
</event>
<event>
 4    1  0.3945814E+000  0.1874272E+03  0.7546771E-02  0.1160803E+00
         21   -1    0    0  503  502  0.00000000000E+00  0.00000000000E+00  0.10801103703E+04  0.10801103703E+04  0.00000000000E+00 0. -1.
         21   -1    0    0  501  503 -0.00000000000E+00 -0.00000000000E+00 -0.32720676334E+02  0.32720676334E+02  0.00000000000E+00 0. -1.
          6    1    1    2  501    0 -0.44740229663E+02 -0.56553117249E+02  0.48049895762E+03  0.51575981958E+03  0.17300000000E+03 0. -1.
         -6    1    1    2    0  502  0.44740229663E+02  0.56553117249E+02  0.56689073638E+03  0.59707122709E+03  0.17300000000E+03 0. -1.
<mgrwt>
<rscale>  2 0.18742717E+03</rscale>
<asrwt>0</asrwt>
<pdfrwt beam="1">  1       21 0.16617080E+00 0.18742717E+03</pdfrwt>
<pdfrwt beam="2">  1       21 0.50339510E-02 0.18742717E+03</pdfrwt>
<totfact> 0.60576070E+04</totfact>
</mgrwt>
</event>
<event>
 4    1  0.3945814E+000  0.1799378E+03  0.7546771E-02  0.1167863E+00
         21   -1    0    0  501  502  0.00000000000E+00  0.00000000000E+00  0.17939973927E+03  0.17939973927E+03  0.00000000000E+00 0. -1.
         21   -1    0    0  502  503 -0.00000000000E+00 -0.00000000000E+00 -0.21387756730E+03  0.21387756730E+03  0.00000000000E+00 0. -1.
          6    1    1    2  501    0  0.19953944640E+02  0.45282057866E+02  0.60467997140E+02  0.18982624515E+03  0.17300000000E+03 0. -1.
         -6    1    1    2    0  503 -0.19953944640E+02 -0.45282057866E+02 -0.94945825168E+02  0.20345106141E+03  0.17300000000E+03 0. -1.
<mgrwt>
<rscale>  2 0.17993784E+03</rscale>
<asrwt>0</asrwt>
<pdfrwt beam="1">  1       21 0.27599960E-01 0.17993784E+03</pdfrwt>
<pdfrwt beam="2">  1       21 0.32904241E-01 0.17993784E+03</pdfrwt>
<totfact> 0.11189382E+05</totfact>
</mgrwt>
</event>
<event>
 4    1  0.3945814E+000  0.2161009E+03  0.7546771E-02  0.1136824E+00
         21   -1    0    0  503  502  0.00000000000E+00  0.00000000000E+00  0.45052352696E+03  0.45052352696E+03  0.00000000000E+00 0.  1.
         21   -1    0    0  501  503 -0.00000000000E+00 -0.00000000000E+00 -0.11117382993E+03  0.11117382993E+03  0.00000000000E+00 0. -1.
          6    1    1    2  501    0  0.10760989528E+02  0.12905349513E+03  0.96643624570E+02  0.23672683344E+03  0.17300000000E+03 0. -1.
         -6    1    1    2    0  502 -0.10760989528E+02 -0.12905349513E+03  0.24270607246E+03  0.32497052345E+03  0.17300000000E+03 0.  1.
<mgrwt>
<rscale>  2 0.21610091E+03</rscale>
<asrwt>0</asrwt>
<pdfrwt beam="1">  1       21 0.69311311E-01 0.21610091E+03</pdfrwt>
<pdfrwt beam="2">  1       21 0.17103666E-01 0.21610091E+03</pdfrwt>
<totfact> 0.57783915E+04</totfact>
</mgrwt>
</event>
<event>
 4    1  0.3945814E+000  0.2032037E+03  0.7546771E-02  0.1147064E+00
         21   -1    0    0  501  502  0.00000000000E+00  0.00000000000E+00  0.32674767569E+02  0.32674767569E+02  0.00000000000E+00 0. -1.
         21   -1    0    0  502  503 -0.00000000000E+00 -0.00000000000E+00 -0.13367256195E+04  0.13367256195E+04  0.00000000000E+00 0. -1.
          6    1    1    2  501    0 -0.10160643065E+03  0.32231796450E+02 -0.49201155718E+03  0.53232239090E+03  0.17300000000E+03 0. -1.
         -6    1    1    2    0  503  0.10160643065E+03 -0.32231796450E+02 -0.81203929471E+03  0.83707799613E+03  0.17300000000E+03 0. -1.
<mgrwt>
<rscale>  2 0.20320373E+03</rscale>
<asrwt>0</asrwt>
<pdfrwt beam="1">  1       21 0.50268863E-02 0.20320373E+03</pdfrwt>
<pdfrwt beam="2">  1       21 0.20565014E+00 0.20320373E+03</pdfrwt>
<totfact> 0.32696459E+04</totfact>
</mgrwt>
</event>
<event>
 4    1  0.3945814E+000  0.2263590E+03  0.7546771E-02  0.1129229E+00
         21   -1    0    0  501  502  0.00000000000E+00  0.00000000000E+00  0.90958134948E+02  0.90958134948E+02  0.00000000000E+00 0. -1.
         21   -1    0    0  502  503 -0.00000000000E+00 -0.00000000000E+00 -0.56885660071E+03  0.56885660071E+03  0.00000000000E+00 0. -1.
          6    1    1    2  501    0 -0.11179715488E+02  0.14554858306E+03 -0.27150151310E+03  0.35348472058E+03  0.17300000000E+03 0.  1.
         -6    1    1    2    0  503  0.11179715488E+02 -0.14554858306E+03 -0.20639695267E+03  0.30633001508E+03  0.17300000000E+03 0.  1.
<mgrwt>
<rscale>  2 0.22635895E+03</rscale>
<asrwt>0</asrwt>
<pdfrwt beam="1">  1       21 0.13993560E-01 0.22635895E+03</pdfrwt>
<pdfrwt beam="2">  1       21 0.87516398E-01 0.22635895E+03</pdfrwt>
<totfact> 0.49061591E+04</totfact>
</mgrwt>
</event>
<event>
 4    1  0.3945814E+000  0.2023129E+03  0.7546771E-02  0.1147802E+00
         21   -1    0    0  503  502  0.00000000000E+00  0.00000000000E+00  0.10658604297E+04  0.10658604297E+04  0.00000000000E+00 0. -1.
         21   -1    0    0  501  503 -0.00000000000E+00 -0.00000000000E+00 -0.12314119412E+03  0.12314119412E+03  0.00000000000E+00 0.  1.
          6    1    1    2  501    0  0.84988854432E+02  0.61468780667E+02 -0.21807955590E+02  0.20348489699E+03  0.17300000000E+03 0.  1.
         -6    1    1    2    0  502 -0.84988854432E+02 -0.61468780667E+02  0.96452719113E+03  0.98551672680E+03  0.17300000000E+03 0. -1.
<mgrwt>
<rscale>  2 0.20231292E+03</rscale>
<asrwt>0</asrwt>
<pdfrwt beam="1">  1       21 0.16397852E+00 0.20231292E+03</pdfrwt>
<pdfrwt beam="2">  1       21 0.18944800E-01 0.20231292E+03</pdfrwt>
<totfact> 0.59652680E+03</totfact>
</mgrwt>
</event>
<event>
 4    1  0.3945814E+000  0.1738150E+03  0.7546771E-02  0.1173927E+00
         21   -1    0    0  501  502  0.00000000000E+00  0.00000000000E+00  0.61900999586E+03  0.61900999586E+03  0.00000000000E+00 0. -1.
         21   -1    0    0  502  503 -0.00000000000E+00 -0.00000000000E+00 -0.51495292782E+02  0.51495292782E+02  0.00000000000E+00 0. -1.
          6    1    1    2  501    0  0.10733139691E+02  0.12940410008E+02  0.36036542340E+03  0.40009360515E+03  0.17300000000E+03 0. -1.
         -6    1    1    2    0  503 -0.10733139691E+02 -0.12940410008E+02  0.20714927968E+03  0.27041168349E+03  0.17300000000E+03 0. -1.
<mgrwt>
<rscale>  2 0.17381500E+03</rscale>
<asrwt>0</asrwt>
<pdfrwt beam="1">  1       21 0.95232302E-01 0.17381500E+03</pdfrwt>
<pdfrwt beam="2">  1       21 0.79223532E-02 0.17381500E+03</pdfrwt>
<totfact> 0.11326287E+05</totfact>
</mgrwt>
</event>
<event>
 4    1  0.3945814E+000  0.2307778E+03  0.7546771E-02  0.1126093E+00
         21   -1    0    0  501  502  0.00000000000E+00  0.00000000000E+00  0.56177479106E+03  0.56177479106E+03  0.00000000000E+00 0.  1.
         21   -1    0    0  502  503 -0.00000000000E+00 -0.00000000000E+00 -0.10630314088E+03  0.10630314088E+03  0.00000000000E+00 0. -1.
          6    1    1    2  501    0  0.59582183786E+02  0.14063916886E+03  0.33760089385E+03  0.40894104217E+03  0.17300000000E+03 0. -1.
         -6    1    1    2    0  503 -0.59582183786E+02 -0.14063916886E+03  0.11787075633E+03  0.25913688977E+03  0.17300000000E+03 0. -1.
<mgrwt>
<rscale>  2 0.23077784E+03</rscale>
<asrwt>0</asrwt>
<pdfrwt beam="1">  1       21 0.86426889E-01 0.23077784E+03</pdfrwt>
<pdfrwt beam="2">  1       21 0.16354330E-01 0.23077784E+03</pdfrwt>
<totfact> 0.37892426E+04</totfact>
</mgrwt>
</event>
<event>
 4    1  0.3945814E+000  0.1733426E+03  0.7546771E-02  0.1174406E+00
         21   -1    0    0  503  502  0.00000000000E+00  0.00000000000E+00  0.79236582368E+03  0.79236582368E+03  0.00000000000E+00 0.  1.
         21   -1    0    0  501  503 -0.00000000000E+00 -0.00000000000E+00 -0.10995330326E+03  0.10995330326E+03  0.00000000000E+00 0.  1.
          6    1    1    2  501    0  0.43280081281E+01  0.99961820603E+01 -0.23958065465E+02  0.17499041177E+03  0.17300000000E+03 0.  1.
         -6    1    1    2    0  502 -0.43280081281E+01 -0.99961820603E+01  0.70637058588E+03  0.72732871517E+03  0.17300000000E+03 0.  1.
<mgrwt>
<rscale>  2 0.17334260E+03</rscale>
<asrwt>0</asrwt>
<pdfrwt beam="1">  1       21 0.12190243E+00 0.17334260E+03</pdfrwt>
<pdfrwt beam="2">  1       21 0.16915893E-01 0.17334260E+03</pdfrwt>
<totfact> 0.16199519E+04</totfact>
</mgrwt>
</event>
<event>
 4    1  0.3945814E+000  0.2243363E+03  0.7546771E-02  0.1130691E+00
         21   -1    0    0  501  502  0.00000000000E+00  0.00000000000E+00  0.57329809581E+02  0.57329809581E+02  0.00000000000E+00 0. -1.
         21   -1    0    0  502  503 -0.00000000000E+00 -0.00000000000E+00 -0.10314367746E+04  0.10314367746E+04  0.00000000000E+00 0.  1.
          6    1    1    2  501    0 -0.95681944486E+02  0.10603171910E+03 -0.27698269952E+03  0.35643537393E+03  0.17300000000E+03 0. -1.
         -6    1    1    2    0  503  0.95681944486E+02 -0.10603171910E+03 -0.69712426550E+03  0.73233121025E+03  0.17300000000E+03 0.  1.
<mgrwt>
<rscale>  2 0.22433627E+03</rscale>
<asrwt>0</asrwt>
<pdfrwt beam="1">  1       21 0.88199705E-02 0.22433627E+03</pdfrwt>
<pdfrwt beam="2">  1       21 0.15868259E+00 0.22433627E+03</pdfrwt>
<totfact> 0.25529432E+04</totfact>
</mgrwt>
</event>
<event>
 4    1  0.3945814E+000  0.1875100E+03  0.7546771E-02  0.1160726E+00
         21   -1    0    0  503  502  0.00000000000E+00  0.00000000000E+00  0.26305338756E+03  0.26305338756E+03  0.00000000000E+00 0. -1.
         21   -1    0    0  501  503 -0.00000000000E+00 -0.00000000000E+00 -0.16076780003E+03  0.16076780003E+03  0.00000000000E+00 0.  1.
          6    1    1    2  501    0 -0.52084831475E+02 -0.50181501832E+02 -0.35871625432E+02  0.19091041435E+03  0.17300000000E+03 0.  1.
         -6    1    1    2    0  502  0.52084831475E+02  0.50181501832E+02  0.13815721296E+03  0.23291077324E+03  0.17300000000E+03 0. -1.
<mgrwt>
<rscale>  2 0.18751003E+03</rscale>
<asrwt>0</asrwt>
<pdfrwt beam="1">  1       21 0.40469752E-01 0.18751003E+03</pdfrwt>
<pdfrwt beam="2">  1       21 0.24733508E-01 0.18751003E+03</pdfrwt>
<totfact> 0.91130641E+04</totfact>
</mgrwt>
</event>
<event>
 4    1  0.3945814E+000  0.2262299E+03  0.7546771E-02  0.1129322E+00
         21   -1    0    0  501  502  0.00000000000E+00  0.00000000000E+00  0.22238049230E+03  0.22238049230E+03  0.00000000000E+00 0. -1.
         21   -1    0    0  502  503 -0.00000000000E+00 -0.00000000000E+00 -0.33414101686E+03  0.33414101686E+03  0.00000000000E+00 0. -1.
          6    1    1    2  501    0 -0.14533040869E+02 -0.14505081018E+03  0.99356167964E+02  0.24708620950E+03  0.17300000000E+03 0. -1.
         -6    1    1    2    0  503  0.14533040869E+02  0.14505081018E+03 -0.21111669252E+03  0.30943529966E+03  0.17300000000E+03 0. -1.
<mgrwt>
<rscale>  2 0.22622985E+03</rscale>
<asrwt>0</asrwt>
<pdfrwt beam="1">  1       21 0.34212383E-01 0.22622985E+03</pdfrwt>
<pdfrwt beam="2">  1       21 0.51406311E-01 0.22622985E+03</pdfrwt>
<totfact> 0.29079785E+04</totfact>
</mgrwt>
</event>
<event>
 4    1  0.3945814E+000  0.3036612E+03  0.7546771E-02  0.1083425E+00
         21   -1    0    0  501  502  0.00000000000E+00  0.00000000000E+00  0.25903563268E+03  0.25903563268E+03  0.00000000000E+00 0. -1.
         21   -1    0    0  502  503 -0.00000000000E+00 -0.00000000000E+00 -0.95146535274E+03  0.95146535274E+03  0.00000000000E+00 0. -1.
          6    1    1    2  501    0 -0.23633354428E+03  0.80172152227E+02  0.13260941078E+03  0.33135385009E+03  0.17300000000E+03 0. -1.
         -6    1    1    2    0  503  0.23633354428E+03 -0.80172152227E+02 -0.82503913083E+03  0.87914713533E+03  0.17300000000E+03 0. -1.
<mgrwt>
<rscale>  2 0.30366119E+03</rscale>
<asrwt>0</asrwt>
<pdfrwt beam="1">  1       21 0.39851636E-01 0.30366119E+03</pdfrwt>
<pdfrwt beam="2">  1       21 0.14637929E+00 0.30366119E+03</pdfrwt>
<totfact> 0.17749549E+03</totfact>
</mgrwt>
</event>
<event>
 4    1  0.3945814E+000  0.1831122E+03  0.7546771E-02  0.1164825E+00
         21   -1    0    0  503  502  0.00000000000E+00  0.00000000000E+00  0.51917441478E+03  0.51917441478E+03  0.00000000000E+00 0.  1.
         21   -1    0    0  501  503 -0.00000000000E+00 -0.00000000000E+00 -0.13683859236E+03  0.13683859236E+03  0.00000000000E+00 0.  1.
          6    1    1    2  501    0  0.30419330184E+02  0.51727526800E+02 -0.47180657834E+02  0.18909280037E+03  0.17300000000E+03 0.  1.
         -6    1    1    2    0  502 -0.30419330184E+02 -0.51727526800E+02  0.42951648025E+03  0.46692020677E+03  0.17300000000E+03 0.  1.
<mgrwt>
<rscale>  2 0.18311219E+03</rscale>
<asrwt>0</asrwt>
<pdfrwt beam="1">  1       21 0.79872986E-01 0.18311219E+03</pdfrwt>
<pdfrwt beam="2">  1       21 0.21052091E-01 0.18311219E+03</pdfrwt>
<totfact> 0.29098298E+04</totfact>
</mgrwt>
</event>
<event>
 4    1  0.3945814E+000  0.2084460E+03  0.7546771E-02  0.1142803E+00
         21   -1    0    0  501  502  0.00000000000E+00  0.00000000000E+00  0.37481209448E+03  0.37481209448E+03  0.00000000000E+00 0.  1.
         21   -1    0    0  502  503 -0.00000000000E+00 -0.00000000000E+00 -0.11979360414E+03  0.11979360414E+03  0.00000000000E+00 0.  1.
          6    1    1    2  501    0  0.20212917290E+02  0.11450836761E+03  0.17195639543E+03  0.27021978130E+03  0.17300000000E+03 0.  1.
         -6    1    1    2    0  503 -0.20212917290E+02 -0.11450836761E+03  0.83062094912E+02  0.22438591732E+03  0.17300000000E+03 0.  1.
<mgrwt>
<rscale>  2 0.20844598E+03</rscale>
<asrwt>0</asrwt>
<pdfrwt beam="1">  1       21 0.57663399E-01 0.20844598E+03</pdfrwt>
<pdfrwt beam="2">  1       21 0.18429785E-01 0.20844598E+03</pdfrwt>
<totfact> 0.75297028E+04</totfact>
</mgrwt>
</event>
<event>
 4    1  0.3945814E+000  0.3647370E+03  0.7546771E-02  0.1056724E+00
         21   -1    0    0  501  502  0.00000000000E+00  0.00000000000E+00  0.22671513304E+03  0.22671513304E+03  0.00000000000E+00 0. -1.
         21   -1    0    0  502  503 -0.00000000000E+00 -0.00000000000E+00 -0.64391198242E+03  0.64391198242E+03  0.00000000000E+00 0.  1.
          6    1    1    2  501    0 -0.87515859161E+02 -0.30894186375E+03 -0.33825918142E+03  0.49744585092E+03  0.17300000000E+03 0. -1.
         -6    1    1    2    0  503  0.87515859161E+02  0.30894186375E+03 -0.78937667961E+02  0.37318126454E+03  0.17300000000E+03 0. -1.
<mgrwt>
<rscale>  2 0.36473703E+03</rscale>
<asrwt>0</asrwt>
<pdfrwt beam="1">  1       21 0.34879252E-01 0.36473703E+03</pdfrwt>
<pdfrwt beam="2">  1       21 0.99063380E-01 0.36473703E+03</pdfrwt>
<totfact> 0.60438935E+03</totfact>
</mgrwt>
</event>
<event>
 4    1  0.3945814E+000  0.1952475E+03  0.7546771E-02  0.1153812E+00
         21   -1    0    0  501  502  0.00000000000E+00  0.00000000000E+00  0.18130811053E+03  0.18130811053E+03  0.00000000000E+00 0. -1.
         21   -1    0    0  502  503 -0.00000000000E+00 -0.00000000000E+00 -0.22002419673E+03  0.22002419673E+03  0.00000000000E+00 0.  1.
          6    1    1    2  501    0 -0.39791112164E+02  0.81297340840E+02 -0.61633489853E+02  0.20474441948E+03  0.17300000000E+03 0.  1.
         -6    1    1    2    0  503  0.39791112164E+02 -0.81297340840E+02  0.22917403652E+02  0.19658788779E+03  0.17300000000E+03 0. -1.
<mgrwt>
<rscale>  2 0.19524751E+03</rscale>
<asrwt>0</asrwt>
<pdfrwt beam="1">  1       21 0.27893556E-01 0.19524751E+03</pdfrwt>
<pdfrwt beam="2">  1       21 0.33849876E-01 0.19524751E+03</pdfrwt>
<totfact> 0.10309249E+05</totfact>
</mgrwt>
</event>
<event>
 4    1  0.3945814E+000  0.1740605E+03  0.7546771E-02  0.1173678E+00
         21   -1    0    0  503  502  0.00000000000E+00  0.00000000000E+00  0.31492165057E+03  0.31492165057E+03  0.00000000000E+00 0. -1.
         21   -1    0    0  501  503 -0.00000000000E+00 -0.00000000000E+00 -0.15877710494E+03  0.15877710494E+03  0.00000000000E+00 0. -1.
          6    1    1    2  501    0  0.89828784279E+01  0.16952254588E+02 -0.70613125394E+02  0.18783845325E+03  0.17300000000E+03 0. -1.
         -6    1    1    2    0  502 -0.89828784279E+01 -0.16952254588E+02  0.22675767102E+03  0.28586030226E+03  0.17300000000E+03 0. -1.
<mgrwt>
<rscale>  2 0.17406054E+03</rscale>
<asrwt>0</asrwt>
<pdfrwt beam="1">  1       21 0.48449484E-01 0.17406054E+03</pdfrwt>
<pdfrwt beam="2">  1       21 0.24427247E-01 0.17406054E+03</pdfrwt>
<totfact> 0.64939801E+04</totfact>
</mgrwt>
</event>
<event>
 4    1  0.3945814E+000  0.2689931E+03  0.7546771E-02  0.1101857E+00
         21   -1    0    0  503  502  0.00000000000E+00  0.00000000000E+00  0.33424895487E+03  0.33424895487E+03  0.00000000000E+00 0. -1.
         21   -1    0    0  501  503 -0.00000000000E+00 -0.00000000000E+00 -0.21652113295E+03  0.21652113295E+03  0.00000000000E+00 0. -1.
          6    1    1    2  501    0 -0.20327534778E+03 -0.33277908982E+02  0.54942328562E+02  0.27454680058E+03  0.17300000000E+03 0. -1.
         -6    1    1    2    0  502  0.20327534778E+03  0.33277908982E+02  0.62785493354E+02  0.27622328725E+03  0.17300000000E+03 0. -1.
<mgrwt>
<rscale>  2 0.26899310E+03</rscale>
<asrwt>0</asrwt>
<pdfrwt beam="1">  1       21 0.51422916E-01 0.26899310E+03</pdfrwt>
<pdfrwt beam="2">  1       21 0.33310944E-01 0.26899310E+03</pdfrwt>
<totfact> 0.30061380E+04</totfact>
</mgrwt>
</event>
<event>
 4    1  0.3945814E+000  0.1823093E+03  0.7546771E-02  0.1165587E+00
         21   -1    0    0  501  502  0.00000000000E+00  0.00000000000E+00  0.19724152623E+03  0.19724152623E+03  0.00000000000E+00 0.  1.
         21   -1    0    0  502  503 -0.00000000000E+00 -0.00000000000E+00 -0.68459865842E+03  0.68459865842E+03  0.00000000000E+00 0.  1.
          6    1    1    2  501    0 -0.38146932912E+02 -0.43040736729E+02  0.13915062076E+03  0.22934600229E+03  0.17300000000E+03 0.  1.
         -6    1    1    2    0  503  0.38146932912E+02  0.43040736729E+02 -0.62650775295E+03  0.65249418236E+03  0.17300000000E+03 0.  1.
<mgrwt>
<rscale>  2 0.18230933E+03</rscale>
<asrwt>0</asrwt>
<pdfrwt beam="1">  1       21 0.30344850E-01 0.18230933E+03</pdfrwt>
<pdfrwt beam="2">  1       21 0.10532287E+00 0.18230933E+03</pdfrwt>
<totfact> 0.76168159E+03</totfact>
</mgrwt>
</event>
<event>
 4    1  0.3945814E+000  0.1893171E+03  0.7546771E-02  0.1159079E+00
         21   -1    0    0  503  502  0.00000000000E+00  0.00000000000E+00  0.62526768969E+02  0.62526768969E+02  0.00000000000E+00 0. -1.
         21   -1    0    0  501  503 -0.00000000000E+00 -0.00000000000E+00 -0.81542865750E+03  0.81542865750E+03  0.00000000000E+00 0. -1.
          6    1    1    2  501    0 -0.35714441193E+02  0.68091471004E+02 -0.61570167669E+03  0.64415023435E+03  0.17300000000E+03 0. -1.
         -6    1    1    2    0  502  0.35714441193E+02 -0.68091471004E+02 -0.13720021184E+03  0.23380519212E+03  0.17300000000E+03 0. -1.
<mgrwt>
<rscale>  2 0.18931711E+03</rscale>
<asrwt>0</asrwt>
<pdfrwt beam="1">  1       21 0.96195031E-02 0.18931711E+03</pdfrwt>
<pdfrwt beam="2">  1       21 0.12545056E+00 0.18931711E+03</pdfrwt>
<totfact> 0.41154022E+04</totfact>
</mgrwt>
</event>
<event>
 4    1  0.3945814E+000  0.1838485E+03  0.7546771E-02  0.1164130E+00
         21   -1    0    0  501  502  0.00000000000E+00  0.00000000000E+00  0.27922185924E+03  0.27922185924E+03  0.00000000000E+00 0. -1.
         21   -1    0    0  502  503 -0.00000000000E+00 -0.00000000000E+00 -0.13376127648E+03  0.13376127648E+03  0.00000000000E+00 0. -1.
          6    1    1    2  501    0 -0.30648400443E+02  0.54147381532E+02  0.90795126684E+01  0.18407254257E+03  0.17300000000E+03 0. -1.
         -6    1    1    2    0  503  0.30648400443E+02 -0.54147381532E+02  0.13638107009E+03  0.22891059315E+03  0.17300000000E+03 0. -1.
<mgrwt>
<rscale>  2 0.18384848E+03</rscale>
<asrwt>0</asrwt>
<pdfrwt beam="1">  1       21 0.42957209E-01 0.18384848E+03</pdfrwt>
<pdfrwt beam="2">  1       21 0.20578658E-01 0.18384848E+03</pdfrwt>
<totfact> 0.11440551E+05</totfact>
</mgrwt>
</event>
<event>
 4    1  0.3945814E+000  0.2073549E+03  0.7546771E-02  0.1143678E+00
         21   -1    0    0  503  502  0.00000000000E+00  0.00000000000E+00  0.30380974701E+03  0.30380974701E+03  0.00000000000E+00 0.  1.
         21   -1    0    0  501  503 -0.00000000000E+00 -0.00000000000E+00 -0.37804156864E+03  0.37804156864E+03  0.00000000000E+00 0.  1.
          6    1    1    2  501    0  0.10730873531E+03  0.39393824532E+02 -0.30677969009E+03  0.37028342704E+03  0.17300000000E+03 0.  1.
         -6    1    1    2    0  502 -0.10730873531E+03 -0.39393824532E+02  0.23254786847E+03  0.31156788861E+03  0.17300000000E+03 0.  1.
<mgrwt>
<rscale>  2 0.20735486E+03</rscale>
<asrwt>0</asrwt>
<pdfrwt beam="1">  1       21 0.46739961E-01 0.20735486E+03</pdfrwt>
<pdfrwt beam="2">  1       21 0.58160241E-01 0.20735486E+03</pdfrwt>
<totfact> 0.12022034E+04</totfact>
</mgrwt>
</event>
<event>
 4    1  0.3945814E+000  0.2294910E+03  0.7546771E-02  0.1126999E+00
         21   -1    0    0  503  502  0.00000000000E+00  0.00000000000E+00  0.12517229423E+03  0.12517229423E+03  0.00000000000E+00 0. -1.
         21   -1    0    0  501  503 -0.00000000000E+00 -0.00000000000E+00 -0.51554970263E+03  0.51554970263E+03  0.00000000000E+00 0. -1.
          6    1    1    2  501    0 -0.39449643572E+02  0.14553641066E+03 -0.33256445555E+03  0.40406093389E+03  0.17300000000E+03 0. -1.
         -6    1    1    2    0  502  0.39449643572E+02 -0.14553641066E+03 -0.57812952847E+02  0.23666106297E+03  0.17300000000E+03 0. -1.
<mgrwt>
<rscale>  2 0.22949100E+03</rscale>
<asrwt>0</asrwt>
<pdfrwt beam="1">  1       21 0.19257275E-01 0.22949100E+03</pdfrwt>
<pdfrwt beam="2">  1       21 0.79315342E-01 0.22949100E+03</pdfrwt>
<totfact> 0.34079265E+04</totfact>
</mgrwt>
</event>
<event>
 4    1  0.3945814E+000  0.2634449E+03  0.7546771E-02  0.1105091E+00
         21   -1    0    0  503  502  0.00000000000E+00  0.00000000000E+00  0.28438890797E+03  0.28438890797E+03  0.00000000000E+00 0. -1.
         21   -1    0    0  501  503 -0.00000000000E+00 -0.00000000000E+00 -0.30782724279E+03  0.30782724279E+03  0.00000000000E+00 0.  1.
          6    1    1    2  501    0  0.14262288635E+03 -0.13832182609E+03  0.12306916923E+03  0.29077351272E+03  0.17300000000E+03 0. -1.
         -6    1    1    2    0  502 -0.14262288635E+03  0.13832182609E+03 -0.14650750405E+03  0.30144263804E+03  0.17300000000E+03 0.  1.
<mgrwt>
<rscale>  2 0.26344490E+03</rscale>
<asrwt>0</asrwt>
<pdfrwt beam="1">  1       21 0.43752140E-01 0.26344490E+03</pdfrwt>
<pdfrwt beam="2">  1       21 0.47358037E-01 0.26344490E+03</pdfrwt>
<totfact> 0.20627553E+04</totfact>
</mgrwt>
</event>
<event>
 4    1  0.3945814E+000  0.2178069E+03  0.7546771E-02  0.1135529E+00
         21   -1    0    0  503  502  0.00000000000E+00  0.00000000000E+00  0.62822051785E+02  0.62822051785E+02  0.00000000000E+00 0.  1.
         21   -1    0    0  501  503 -0.00000000000E+00 -0.00000000000E+00 -0.90204557843E+03  0.90204557843E+03  0.00000000000E+00 0. -1.
          6    1    1    2  501    0  0.12952955393E+03  0.27072873123E+02 -0.61429707824E+03  0.65176740186E+03  0.17300000000E+03 0.  1.
         -6    1    1    2    0  502 -0.12952955393E+03 -0.27072873123E+02 -0.22492644841E+03  0.31310022835E+03  0.17300000000E+03 0. -1.
<mgrwt>
<rscale>  2 0.21780690E+03</rscale>
<asrwt>0</asrwt>
<pdfrwt beam="1">  1       21 0.96649312E-02 0.21780690E+03</pdfrwt>
<pdfrwt beam="2">  1       21 0.13877624E+00 0.21780690E+03</pdfrwt>
<totfact> 0.31076480E+04</totfact>
</mgrwt>
</event>
<event>
 4    1  0.3945814E+000  0.1807401E+03  0.7546771E-02  0.1167089E+00
         21   -1    0    0  503  502  0.00000000000E+00  0.00000000000E+00  0.19662281341E+03  0.19662281341E+03  0.00000000000E+00 0.  1.
         21   -1    0    0  501  503 -0.00000000000E+00 -0.00000000000E+00 -0.17000367846E+03  0.17000367846E+03  0.00000000000E+00 0.  1.
          6    1    1    2  501    0 -0.85397427137E+01  0.51624222772E+02 -0.14324461319E+02  0.18130686080E+03  0.17300000000E+03 0. -1.
         -6    1    1    2    0  502  0.85397427137E+01 -0.51624222772E+02  0.40943596271E+02  0.18531963106E+03  0.17300000000E+03 0. -1.
<mgrwt>
<rscale>  2 0.18074011E+03</rscale>
<asrwt>0</asrwt>
<pdfrwt beam="1">  1       21 0.30249664E-01 0.18074011E+03</pdfrwt>
<pdfrwt beam="2">  1       21 0.26154412E-01 0.18074011E+03</pdfrwt>
<totfact> 0.14623836E+05</totfact>
</mgrwt>
</event>
<event>
 4    1  0.3945814E+000  0.1964038E+03  0.7546771E-02  0.1152809E+00
         21   -1    0    0  501  502  0.00000000000E+00  0.00000000000E+00  0.76545766104E+03  0.76545766104E+03  0.00000000000E+00 0.  1.
         21   -1    0    0  502  503 -0.00000000000E+00 -0.00000000000E+00 -0.17048104131E+03  0.17048104131E+03  0.00000000000E+00 0.  1.
          6    1    1    2  501    0 -0.33744962131E+02 -0.86641297831E+02  0.69024855679E+03  0.71764720240E+03  0.17300000000E+03 0.  1.
         -6    1    1    2    0  503  0.33744962131E+02  0.86641297831E+02 -0.95271937058E+02  0.21829149995E+03  0.17300000000E+03 0.  1.
<mgrwt>
<rscale>  2 0.19640376E+03</rscale>
<asrwt>0</asrwt>
<pdfrwt beam="1">  1       21 0.11776271E+00 0.19640376E+03</pdfrwt>
<pdfrwt beam="2">  1       21 0.26227853E-01 0.19640376E+03</pdfrwt>
<totfact> 0.76232999E+03</totfact>
</mgrwt>
</event>
<event>
 4    1  0.3945814E+000  0.2071057E+03  0.7546771E-02  0.1143879E+00
         21   -1    0    0  501  502  0.00000000000E+00  0.00000000000E+00  0.53279893459E+03  0.53279893459E+03  0.00000000000E+00 0. -1.
         21   -1    0    0  502  503 -0.00000000000E+00 -0.00000000000E+00 -0.38135744475E+03  0.38135744475E+03  0.00000000000E+00 0. -1.
          6    1    1    2  501    0 -0.92991289508E+02  0.65699138747E+02  0.48169776982E+03  0.52433338460E+03  0.17300000000E+03 0. -1.
         -6    1    1    2    0  503  0.92991289508E+02 -0.65699138747E+02 -0.33025627999E+03  0.38982299474E+03  0.17300000000E+03 0. -1.
<mgrwt>
<rscale>  2 0.20710567E+03</rscale>
<asrwt>0</asrwt>
<pdfrwt beam="1">  1       21 0.81969067E-01 0.20710567E+03</pdfrwt>
<pdfrwt beam="2">  1       21 0.58670376E-01 0.20710567E+03</pdfrwt>
<totfact> 0.34970618E+03</totfact>
</mgrwt>
</event>
<event>
 4    1  0.3945814E+000  0.2253341E+03  0.7546771E-02  0.1129968E+00
         21   -1    0    0  501  502  0.00000000000E+00  0.00000000000E+00  0.58219174885E+02  0.58219174885E+02  0.00000000000E+00 0.  1.
         21   -1    0    0  502  503 -0.00000000000E+00 -0.00000000000E+00 -0.14051527749E+04  0.14051527749E+04  0.00000000000E+00 0. -1.
          6    1    1    2  501    0  0.13678941091E+03 -0.46207128620E+02 -0.22282593301E+03  0.31690193766E+03  0.17300000000E+03 0.  1.
         -6    1    1    2    0  503 -0.13678941091E+03  0.46207128620E+02 -0.11241076670E+04  0.11464700121E+04  0.17300000000E+03 0. -1.
<mgrwt>
<rscale>  2 0.22533407E+03</rscale>
<asrwt>0</asrwt>
<pdfrwt beam="1">  1       21 0.89567970E-02 0.22533407E+03</pdfrwt>
<pdfrwt beam="2">  1       21 0.21617733E+00 0.22533407E+03</pdfrwt>
<totfact> 0.10182312E+04</totfact>
</mgrwt>
</event>
<event>
 4    1  0.3945814E+000  0.1780537E+03  0.7546771E-02  0.1169700E+00
         21   -1    0    0  501  502  0.00000000000E+00  0.00000000000E+00  0.64591547467E+02  0.64591547467E+02  0.00000000000E+00 0. -1.
         21   -1    0    0  502  503 -0.00000000000E+00 -0.00000000000E+00 -0.49083007101E+03  0.49083007101E+03  0.00000000000E+00 0.  1.
          6    1    1    2  501    0  0.41985790276E+02  0.33610941280E+01 -0.21217016398E+03  0.27698245797E+03  0.17300000000E+03 0.  1.
         -6    1    1    2    0  503 -0.41985790276E+02 -0.33610941280E+01 -0.21406835956E+03  0.27843916051E+03  0.17300000000E+03 0.  1.
<mgrwt>
<rscale>  2 0.17805365E+03</rscale>
<asrwt>0</asrwt>
<pdfrwt beam="1">  1       21 0.99371612E-02 0.17805365E+03</pdfrwt>
<pdfrwt beam="2">  1       21 0.75512318E-01 0.17805365E+03</pdfrwt>
<totfact> 0.12916603E+05</totfact>
</mgrwt>
</event>
<event>
 4    1  0.3945814E+000  0.1770449E+03  0.7546771E-02  0.1170694E+00
         21   -1    0    0  501  502  0.00000000000E+00  0.00000000000E+00  0.18462170485E+04  0.18462170485E+04  0.00000000000E+00 0. -1.
         21   -1    0    0  502  503 -0.00000000000E+00 -0.00000000000E+00 -0.57983876133E+02  0.57983876133E+02  0.00000000000E+00 0. -1.
          6    1    1    2  501    0 -0.29965472046E+02 -0.22759173088E+02  0.16947849538E+04  0.17040073208E+04  0.17300000000E+03 0. -1.
         -6    1    1    2    0  503  0.29965472046E+02  0.22759173088E+02  0.93448218494E+02  0.20019360383E+03  0.17300000000E+03 0. -1.
<mgrwt>
<rscale>  2 0.17704494E+03</rscale>
<asrwt>0</asrwt>
<pdfrwt beam="1">  1       21 0.28403335E+00 0.17704494E+03</pdfrwt>
<pdfrwt beam="2">  1       21 0.89205977E-02 0.17704494E+03</pdfrwt>
<totfact> 0.42631292E+03</totfact>
</mgrwt>
</event>
<event>
 4    1  0.3945814E+000  0.1792565E+03  0.7546771E-02  0.1168525E+00
         21   -1    0    0  501  502  0.00000000000E+00  0.00000000000E+00  0.66100558351E+03  0.66100558351E+03  0.00000000000E+00 0.  1.
         21   -1    0    0  502  503 -0.00000000000E+00 -0.00000000000E+00 -0.70677318728E+02  0.70677318728E+02  0.00000000000E+00 0.  1.
          6    1    1    2  501    0  0.38370985415E+02 -0.27047515320E+02  0.49957620137E+03  0.53076292409E+03  0.17300000000E+03 0.  1.
         -6    1    1    2    0  503 -0.38370985415E+02  0.27047515320E+02  0.90752063407E+02  0.20091997815E+03  0.17300000000E+03 0.  1.
<mgrwt>
<rscale>  2 0.17925652E+03</rscale>
<asrwt>0</asrwt>
<pdfrwt beam="1">  1       21 0.10169316E+00 0.17925652E+03</pdfrwt>
<pdfrwt beam="2">  1       21 0.10873434E-01 0.17925652E+03</pdfrwt>
<totfact> 0.55543304E+04</totfact>
</mgrwt>
</event>
<event>
 4    1  0.3945814E+000  0.1895462E+03  0.7546771E-02  0.1158871E+00
         21   -1    0    0  501  502  0.00000000000E+00  0.00000000000E+00  0.14822914416E+03  0.14822914416E+03  0.00000000000E+00 0.  1.
         21   -1    0    0  502  503 -0.00000000000E+00 -0.00000000000E+00 -0.41746345125E+03  0.41746345125E+03  0.00000000000E+00 0.  1.
          6    1    1    2  501    0  0.39927427788E+02  0.66366758607E+02 -0.31779126827E+03  0.37002572387E+03  0.17300000000E+03 0.  1.
         -6    1    1    2    0  503 -0.39927427788E+02 -0.66366758607E+02  0.48556961181E+02  0.19566687154E+03  0.17300000000E+03 0.  1.
<mgrwt>
<rscale>  2 0.18954616E+03</rscale>
<asrwt>0</asrwt>
<pdfrwt beam="1">  1       21 0.22804484E-01 0.18954616E+03</pdfrwt>
<pdfrwt beam="2">  1       21 0.64225146E-01 0.18954616E+03</pdfrwt>
<totfact> 0.40414777E+04</totfact>
</mgrwt>
</event>
<event>
 4    1  0.3945814E+000  0.2557026E+03  0.7546771E-02  0.1109753E+00
         21   -1    0    0  503  502  0.00000000000E+00  0.00000000000E+00  0.54356544462E+03  0.54356544462E+03  0.00000000000E+00 0.  1.
         21   -1    0    0  501  503 -0.00000000000E+00 -0.00000000000E+00 -0.15479433444E+03  0.15479433444E+03  0.00000000000E+00 0. -1.
          6    1    1    2  501    0 -0.18821380816E+03  0.55103427933E+01  0.29520717955E+02  0.25740099893E+03  0.17300000000E+03 0. -1.
         -6    1    1    2    0  502  0.18821380816E+03 -0.55103427933E+01  0.35925039222E+03  0.44095878013E+03  0.17300000000E+03 0.  1.
<mgrwt>
<rscale>  2 0.25570256E+03</rscale>
<asrwt>0</asrwt>
<pdfrwt beam="1">  1       21 0.83625453E-01 0.25570256E+03</pdfrwt>
<pdfrwt beam="2">  1       21 0.23814513E-01 0.25570256E+03</pdfrwt>
<totfact> 0.19962877E+04</totfact>
</mgrwt>
</event>
<event>
 4    1  0.3945814E+000  0.3959676E+03  0.7546771E-02  0.1045185E+00
         21   -1    0    0  503  502  0.00000000000E+00  0.00000000000E+00  0.83553380566E+02  0.83553380566E+02  0.00000000000E+00 0. -1.
         21   -1    0    0  501  503 -0.00000000000E+00 -0.00000000000E+00 -0.22336130490E+04  0.22336130490E+04  0.00000000000E+00 0.  1.
          6    1    1    2  501    0  0.35516813881E+03 -0.26775810711E+02 -0.15382723609E+04  0.15884181462E+04  0.17300000000E+03 0. -1.
         -6    1    1    2    0  502 -0.35516813881E+03  0.26775810711E+02 -0.61178730761E+03  0.72874828344E+03  0.17300000000E+03 0.  1.
<mgrwt>
<rscale>  2 0.39596761E+03</rscale>
<asrwt>0</asrwt>
<pdfrwt beam="1">  1       21 0.12854367E-01 0.39596761E+03</pdfrwt>
<pdfrwt beam="2">  1       21 0.34363276E+00 0.39596761E+03</pdfrwt>
<totfact> 0.81083210E+02</totfact>
</mgrwt>
</event>
<event>
 4    1  0.3945814E+000  0.1963929E+03  0.7546771E-02  0.1152818E+00
         21   -1    0    0  503  502  0.00000000000E+00  0.00000000000E+00  0.61134172485E+02  0.61134172485E+02  0.00000000000E+00 0. -1.
         21   -1    0    0  501  503 -0.00000000000E+00 -0.00000000000E+00 -0.64216923913E+03  0.64216923913E+03  0.00000000000E+00 0. -1.
          6    1    1    2  501    0 -0.81714155423E+02  0.44316716215E+02 -0.24395483320E+03  0.31318386800E+03  0.17300000000E+03 0. -1.
         -6    1    1    2    0  502  0.81714155423E+02 -0.44316716215E+02 -0.33708023344E+03  0.39011954361E+03  0.17300000000E+03 0. -1.
<mgrwt>
<rscale>  2 0.19639291E+03</rscale>
<asrwt>0</asrwt>
<pdfrwt beam="1">  1       21 0.94052582E-02 0.19639291E+03</pdfrwt>
<pdfrwt beam="2">  1       21 0.98795258E-01 0.19639291E+03</pdfrwt>
<totfact> 0.76250359E+04</totfact>
</mgrwt>
</event>
<event>
 4    1  0.3945814E+000  0.1923194E+03  0.7546771E-02  0.1156386E+00
         21   -1    0    0  501  502  0.00000000000E+00  0.00000000000E+00  0.55314468509E+03  0.55314468509E+03  0.00000000000E+00 0.  1.
         21   -1    0    0  502  503 -0.00000000000E+00 -0.00000000000E+00 -0.72908261486E+02  0.72908261486E+02  0.00000000000E+00 0. -1.
          6    1    1    2  501    0 -0.36167953148E+02  0.75826338879E+02  0.33022979723E+03  0.38214980502E+03  0.17300000000E+03 0.  1.
         -6    1    1    2    0  503  0.36167953148E+02 -0.75826338879E+02  0.15000662638E+03  0.24390314155E+03  0.17300000000E+03 0. -1.
<mgrwt>
<rscale>  2 0.19231941E+03</rscale>
<asrwt>0</asrwt>
<pdfrwt beam="1">  1       21 0.85099180E-01 0.19231941E+03</pdfrwt>
<pdfrwt beam="2">  1       21 0.11216656E-01 0.19231941E+03</pdfrwt>
<totfact> 0.79123334E+04</totfact>
</mgrwt>
</event>
<event>
 4    1  0.3945814E+000  0.2110057E+03  0.7546771E-02  0.1140772E+00
         21   -1    0    0  501  502  0.00000000000E+00  0.00000000000E+00  0.24104955008E+03  0.24104955008E+03  0.00000000000E+00 0.  1.
         21   -1    0    0  502  503 -0.00000000000E+00 -0.00000000000E+00 -0.28785177456E+03  0.28785177456E+03  0.00000000000E+00 0.  1.
          6    1    1    2  501    0  0.84133739411E+02 -0.86694403494E+02  0.13490037143E+03  0.25044263997E+03  0.17300000000E+03 0.  1.
         -6    1    1    2    0  503 -0.84133739411E+02  0.86694403494E+02 -0.18170259591E+03  0.27845868467E+03  0.17300000000E+03 0.  1.
<mgrwt>
<rscale>  2 0.21100570E+03</rscale>
<asrwt>0</asrwt>
<pdfrwt beam="1">  1       21 0.37084546E-01 0.21100570E+03</pdfrwt>
<pdfrwt beam="2">  1       21 0.44284888E-01 0.21100570E+03</pdfrwt>
<totfact> 0.34009949E+04</totfact>
</mgrwt>
</event>
<event>
 4    1  0.3945814E+000  0.1848852E+03  0.7546771E-02  0.1163157E+00
         21   -1    0    0  501  502  0.00000000000E+00  0.00000000000E+00  0.34654282293E+03  0.34654282293E+03  0.00000000000E+00 0.  1.
         21   -1    0    0  502  503 -0.00000000000E+00 -0.00000000000E+00 -0.98653871761E+02  0.98653871761E+02  0.00000000000E+00 0.  1.
          6    1    1    2  501    0  0.64971839004E+02  0.56732267054E+01  0.12670709202E+03  0.22413659347E+03  0.17300000000E+03 0.  1.
         -6    1    1    2    0  503 -0.64971839004E+02 -0.56732267054E+01  0.12118185915E+03  0.22106010122E+03  0.17300000000E+03 0.  1.
<mgrwt>
<rscale>  2 0.18488517E+03</rscale>
<asrwt>0</asrwt>
<pdfrwt beam="1">  1       21 0.53314280E-01 0.18488517E+03</pdfrwt>
<pdfrwt beam="2">  1       21 0.15177519E-01 0.18488517E+03</pdfrwt>
<totfact> 0.12824228E+05</totfact>
</mgrwt>
</event>
<event>
 4    1  0.3945814E+000  0.1865980E+03  0.7546771E-02  0.1161566E+00
         21   -1    0    0  501  502  0.00000000000E+00  0.00000000000E+00  0.39427272232E+03  0.39427272232E+03  0.00000000000E+00 0.  1.
         21   -1    0    0  502  503 -0.00000000000E+00 -0.00000000000E+00 -0.12512936983E+03  0.12512936983E+03  0.00000000000E+00 0. -1.
          6    1    1    2  501    0 -0.13431174583E+02  0.68625121151E+02  0.27544331798E+03  0.33269779850E+03  0.17300000000E+03 0.  1.
         -6    1    1    2    0  503  0.13431174583E+02 -0.68625121151E+02 -0.62999654900E+01  0.18670429365E+03  0.17300000000E+03 0. -1.
<mgrwt>
<rscale>  2 0.18659797E+03</rscale>
<asrwt>0</asrwt>
<pdfrwt beam="1">  1       21 0.60657341E-01 0.18659797E+03</pdfrwt>
<pdfrwt beam="2">  1       21 0.19250672E-01 0.18659797E+03</pdfrwt>
<totfact> 0.62908422E+04</totfact>
</mgrwt>
</event>
<event>
 4    1  0.3945814E+000  0.2139589E+03  0.7546771E-02  0.1138469E+00
         21   -1    0    0  501  502  0.00000000000E+00  0.00000000000E+00  0.20841932426E+03  0.20841932426E+03  0.00000000000E+00 0.  1.
         21   -1    0    0  502  503 -0.00000000000E+00 -0.00000000000E+00 -0.33886946652E+03  0.33886946652E+03  0.00000000000E+00 0.  1.
          6    1    1    2  501    0 -0.13670113824E+02 -0.12515002506E+03  0.97087375223E+02  0.23495607932E+03  0.17300000000E+03 0.  1.
         -6    1    1    2    0  503  0.13670113824E+02  0.12515002506E+03 -0.22753751749E+03  0.31233271146E+03  0.17300000000E+03 0.  1.
<mgrwt>
<rscale>  2 0.21395888E+03</rscale>
<asrwt>0</asrwt>
<pdfrwt beam="1">  1       21 0.32064512E-01 0.21395888E+03</pdfrwt>
<pdfrwt beam="2">  1       21 0.52133764E-01 0.21395888E+03</pdfrwt>
<totfact> 0.32295162E+04</totfact>
</mgrwt>
</event>
<event>
 4    1  0.3945814E+000  0.3124839E+03  0.7546771E-02  0.1079161E+00
         21   -1    0    0  503  502  0.00000000000E+00  0.00000000000E+00  0.72108794876E+02  0.72108794876E+02  0.00000000000E+00 0. -1.
         21   -1    0    0  501  503 -0.00000000000E+00 -0.00000000000E+00 -0.14157750742E+04  0.14157750742E+04  0.00000000000E+00 0. -1.
          6    1    1    2  501    0 -0.85394214704E+02  0.24581502693E+03 -0.82704216861E+03  0.88410686460E+03  0.17300000000E+03 0. -1.
         -6    1    1    2    0  502  0.85394214704E+02 -0.24581502693E+03 -0.51662411072E+03  0.60377700448E+03  0.17300000000E+03 0. -1.
<mgrwt>
<rscale>  2 0.31248392E+03</rscale>
<asrwt>0</asrwt>
<pdfrwt beam="1">  1       21 0.11093661E-01 0.31248392E+03</pdfrwt>
<pdfrwt beam="2">  1       21 0.21781154E+00 0.31248392E+03</pdfrwt>
<totfact> 0.64150383E+03</totfact>
</mgrwt>
</event>
<event>
 4    1  0.3945814E+000  0.1990193E+03  0.7546771E-02  0.1150569E+00
         21   -1    0    0  503  502  0.00000000000E+00  0.00000000000E+00  0.37244899942E+02  0.37244899942E+02  0.00000000000E+00 0. -1.
         21   -1    0    0  501  503 -0.00000000000E+00 -0.00000000000E+00 -0.19088350897E+04  0.19088350897E+04  0.00000000000E+00 0.  1.
          6    1    1    2  501    0 -0.84376082136E+02  0.50599918171E+02 -0.15833397695E+04  0.15957987031E+04  0.17300000000E+03 0.  1.
         -6    1    1    2    0  502  0.84376082136E+02 -0.50599918171E+02 -0.28825042020E+03  0.35028128654E+03  0.17300000000E+03 0. -1.
<mgrwt>
<rscale>  2 0.19901928E+03</rscale>
<asrwt>0</asrwt>
<pdfrwt beam="1">  1       21 0.57299848E-02 0.19901928E+03</pdfrwt>
<pdfrwt beam="2">  1       21 0.29366693E+00 0.19901928E+03</pdfrwt>
<totfact> 0.78653616E+03</totfact>
</mgrwt>
</event>
<event>
 4    1  0.3945814E+000  0.2036673E+03  0.7546771E-02  0.1146681E+00
         21   -1    0    0  501  502  0.00000000000E+00  0.00000000000E+00  0.10118147815E+04  0.10118147815E+04  0.00000000000E+00 0.  1.
         21   -1    0    0  502  503 -0.00000000000E+00 -0.00000000000E+00 -0.25957384554E+03  0.25957384554E+03  0.00000000000E+00 0.  1.
          6    1    1    2  501    0 -0.89905397327E+02 -0.58893077135E+02  0.95945933732E+03  0.98083770063E+03  0.17300000000E+03 0.  1.
         -6    1    1    2    0  503  0.89905397327E+02  0.58893077135E+02 -0.20721840133E+03  0.29055092644E+03  0.17300000000E+03 0.  1.
<mgrwt>
<rscale>  2 0.20366731E+03</rscale>
<asrwt>0</asrwt>
<pdfrwt beam="1">  1       21 0.15566381E+00 0.20366731E+03</pdfrwt>
<pdfrwt beam="2">  1       21 0.39934438E-01 0.20366731E+03</pdfrwt>
<totfact> 0.16199866E+03</totfact>
</mgrwt>
</event>
<event>
 4    1  0.3945814E+000  0.1777237E+03  0.7546771E-02  0.1170024E+00
         21   -1    0    0  501  502  0.00000000000E+00  0.00000000000E+00  0.22504807178E+03  0.22504807178E+03  0.00000000000E+00 0.  1.
         21   -1    0    0  502  503 -0.00000000000E+00 -0.00000000000E+00 -0.14042236925E+03  0.14042236925E+03  0.00000000000E+00 0. -1.
          6    1    1    2  501    0 -0.40593311999E+02  0.29850751396E+01  0.46431760284E+02  0.18368896542E+03  0.17300000000E+03 0.  1.
         -6    1    1    2    0  503  0.40593311999E+02 -0.29850751396E+01  0.38193942249E+02  0.18178147562E+03  0.17300000000E+03 0.  1.
<mgrwt>
<rscale>  2 0.17772374E+03</rscale>
<asrwt>0</asrwt>
<pdfrwt beam="1">  1       21 0.34622780E-01 0.17772374E+03</pdfrwt>
<pdfrwt beam="2">  1       21 0.21603441E-01 0.17772374E+03</pdfrwt>
<totfact> 0.16136413E+05</totfact>
</mgrwt>
</event>
<event>
 4    1  0.3945814E+000  0.2076878E+03  0.7546771E-02  0.1143410E+00
         21   -1    0    0  501  502  0.00000000000E+00  0.00000000000E+00  0.27666748554E+03  0.27666748554E+03  0.00000000000E+00 0. -1.
         21   -1    0    0  502  503 -0.00000000000E+00 -0.00000000000E+00 -0.23353679744E+03  0.23353679744E+03  0.00000000000E+00 0.  1.
          6    1    1    2  501    0  0.18626182674E+02  0.11339432212E+03  0.16864499777E+03  0.26753568406E+03  0.17300000000E+03 0. -1.
         -6    1    1    2    0  503 -0.18626182674E+02 -0.11339432212E+03 -0.12551430967E+03  0.24266859892E+03  0.17300000000E+03 0.  1.
<mgrwt>
<rscale>  2 0.20768776E+03</rscale>
<asrwt>0</asrwt>
<pdfrwt beam="1">  1       21 0.42564229E-01 0.20768776E+03</pdfrwt>
<pdfrwt beam="2">  1       21 0.35928738E-01 0.20768776E+03</pdfrwt>
<totfact> 0.39361203E+04</totfact>
</mgrwt>
</event>
<event>
 4    1  0.3945814E+000  0.2304674E+03  0.7546771E-02  0.1126311E+00
         21   -1    0    0  503  502  0.00000000000E+00  0.00000000000E+00  0.86659903000E+02  0.86659903000E+02  0.00000000000E+00 0.  1.
         21   -1    0    0  501  503 -0.00000000000E+00 -0.00000000000E+00 -0.96675814917E+03  0.96675814917E+03  0.00000000000E+00 0.  1.
          6    1    1    2  501    0  0.14013965343E+03  0.59557654301E+02 -0.75870112678E+03  0.79293293312E+03  0.17300000000E+03 0.  1.
         -6    1    1    2    0  502 -0.14013965343E+03 -0.59557654301E+02 -0.12139711939E+03  0.26048511905E+03  0.17300000000E+03 0.  1.
<mgrwt>
<rscale>  2 0.23046743E+03</rscale>
<asrwt>0</asrwt>
<pdfrwt beam="1">  1       21 0.13332293E-01 0.23046743E+03</pdfrwt>
<pdfrwt beam="2">  1       21 0.14873202E+00 0.23046743E+03</pdfrwt>
<totfact> 0.14472188E+04</totfact>
</mgrwt>
</event>
<event>
 4    1  0.3945814E+000  0.2266605E+03  0.7546771E-02  0.1129013E+00
         21   -1    0    0  503  502  0.00000000000E+00  0.00000000000E+00  0.70372405770E+03  0.70372405770E+03  0.00000000000E+00 0. -1.
         21   -1    0    0  501  503 -0.00000000000E+00 -0.00000000000E+00 -0.12323263679E+03  0.12323263679E+03  0.00000000000E+00 0.  1.
          6    1    1    2  501    0  0.12618120638E+03  0.74325536416E+02  0.26270171225E+02  0.22817779056E+03  0.17300000000E+03 0.  1.
         -6    1    1    2    0  502 -0.12618120638E+03 -0.74325536416E+02  0.55422124968E+03  0.59877890394E+03  0.17300000000E+03 0. -1.
<mgrwt>
<rscale>  2 0.22666050E+03</rscale>
<asrwt>0</asrwt>
<pdfrwt beam="1">  1       21 0.10826524E+00 0.22666050E+03</pdfrwt>
<pdfrwt beam="2">  1       21 0.18958868E-01 0.22666050E+03</pdfrwt>
<totfact> 0.16946466E+04</totfact>
</mgrwt>
</event>
<event>
 4    1  0.3945814E+000  0.2077736E+03  0.7546771E-02  0.1143341E+00
         21   -1    0    0  501  502  0.00000000000E+00  0.00000000000E+00  0.89823520679E+02  0.89823520679E+02  0.00000000000E+00 0. -1.
         21   -1    0    0  502  503 -0.00000000000E+00 -0.00000000000E+00 -0.83336402381E+03  0.83336402381E+03  0.00000000000E+00 0.  1.
          6    1    1    2  501    0 -0.53529165774E+02 -0.10186014379E+03 -0.67208736077E+03  0.70347088141E+03  0.17300000000E+03 0.  1.
         -6    1    1    2    0  503  0.53529165774E+02  0.10186014379E+03 -0.71453142359E+02  0.21971666308E+03  0.17300000000E+03 0. -1.
<mgrwt>
<rscale>  2 0.20777358E+03</rscale>
<asrwt>0</asrwt>
<pdfrwt beam="1">  1       21 0.13819002E-01 0.20777358E+03</pdfrwt>
<pdfrwt beam="2">  1       21 0.12820986E+00 0.20777358E+03</pdfrwt>
<totfact> 0.20180872E+04</totfact>
</mgrwt>
</event>
<event>
 4    1  0.3945814E+000  0.1939974E+03  0.7546771E-02  0.1154905E+00
         21   -1    0    0  503  502  0.00000000000E+00  0.00000000000E+00  0.42410473408E+03  0.42410473408E+03  0.00000000000E+00 0.  1.
         21   -1    0    0  501  503 -0.00000000000E+00 -0.00000000000E+00 -0.16167649178E+03  0.16167649178E+03  0.00000000000E+00 0. -1.
          6    1    1    2  501    0  0.20173212958E+02 -0.85434302867E+02 -0.65508806649E+02  0.20475932793E+03  0.17300000000E+03 0. -1.
         -6    1    1    2    0  502 -0.20173212958E+02  0.85434302867E+02  0.32793704895E+03  0.38102189793E+03  0.17300000000E+03 0.  1.
<mgrwt>
<rscale>  2 0.19399737E+03</rscale>
<asrwt>0</asrwt>
<pdfrwt beam="1">  1       21 0.65246882E-01 0.19399737E+03</pdfrwt>
<pdfrwt beam="2">  1       21 0.24873307E-01 0.19399737E+03</pdfrwt>
<totfact> 0.33037772E+04</totfact>
</mgrwt>
</event>
<event>
 4    1  0.3945814E+000  0.2566635E+03  0.7546771E-02  0.1109165E+00
         21   -1    0    0  501  502  0.00000000000E+00  0.00000000000E+00  0.46252332413E+02  0.46252332413E+02  0.00000000000E+00 0. -1.
         21   -1    0    0  502  503 -0.00000000000E+00 -0.00000000000E+00 -0.14809697123E+04  0.14809697123E+04  0.00000000000E+00 0. -1.
          6    1    1    2  501    0 -0.47801238778E+02  0.18347265602E+03 -0.56795567951E+03  0.62325743303E+03  0.17300000000E+03 0. -1.
         -6    1    1    2    0  503  0.47801238778E+02 -0.18347265602E+03 -0.86676170040E+03  0.90396461170E+03  0.17300000000E+03 0. -1.
<mgrwt>
<rscale>  2 0.25666354E+03</rscale>
<asrwt>0</asrwt>
<pdfrwt beam="1">  1       21 0.71157434E-02 0.25666354E+03</pdfrwt>
<pdfrwt beam="2">  1       21 0.22784150E+00 0.25666354E+03</pdfrwt>
<totfact> 0.12612313E+04</totfact>
</mgrwt>
</event>
<event>
 4    1  0.3945814E+000  0.2056337E+03  0.7546771E-02  0.1145071E+00
         21   -1    0    0  503  502  0.00000000000E+00  0.00000000000E+00  0.14616029159E+03  0.14616029159E+03  0.00000000000E+00 0. -1.
         21   -1    0    0  501  503 -0.00000000000E+00 -0.00000000000E+00 -0.39353050544E+03  0.39353050544E+03  0.00000000000E+00 0. -1.
          6    1    1    2  501    0  0.11035304098E+03  0.13358013373E+02 -0.26255501836E+03  0.33349717816E+03  0.17300000000E+03 0. -1.
         -6    1    1    2    0  502 -0.11035304098E+03 -0.13358013373E+02  0.15184804516E+02  0.20619361887E+03  0.17300000000E+03 0. -1.
<mgrwt>
<rscale>  2 0.20563373E+03</rscale>
<asrwt>0</asrwt>
<pdfrwt beam="1">  1       21 0.22486199E-01 0.20563373E+03</pdfrwt>
<pdfrwt beam="2">  1       21 0.60543154E-01 0.20563373E+03</pdfrwt>
<totfact> 0.46773270E+04</totfact>
</mgrwt>
</event>
<event>
 4    1  0.3945814E+000  0.2287845E+03  0.7546771E-02  0.1127498E+00
         21   -1    0    0  501  502  0.00000000000E+00  0.00000000000E+00  0.19607478841E+04  0.19607478841E+04  0.00000000000E+00 0.  1.
         21   -1    0    0  502  503 -0.00000000000E+00 -0.00000000000E+00 -0.26851428352E+02  0.26851428352E+02  0.00000000000E+00 0. -1.
          6    1    1    2  501    0  0.39287698143E+02  0.14446394517E+03  0.10427777615E+04  0.10675803551E+04  0.17300000000E+03 0. -1.
         -6    1    1    2    0  503 -0.39287698143E+02 -0.14446394517E+03  0.89111869425E+03  0.92001895737E+03  0.17300000000E+03 0. -1.
<mgrwt>
<rscale>  2 0.22878452E+03</rscale>
<asrwt>0</asrwt>
<pdfrwt beam="1">  1       21 0.30165341E+00 0.22878452E+03</pdfrwt>
<pdfrwt beam="2">  1       21 0.41309905E-02 0.22878452E+03</pdfrwt>
<totfact> 0.11961727E+04</totfact>
</mgrwt>
</event>
<event>
 4    1  0.3945814E+000  0.1930911E+03  0.7546771E-02  0.1155703E+00
         21   -1    0    0  503  502  0.00000000000E+00  0.00000000000E+00  0.29083981642E+02  0.29083981642E+02  0.00000000000E+00 0.  1.
         21   -1    0    0  501  503 -0.00000000000E+00 -0.00000000000E+00 -0.14770331857E+04  0.14770331857E+04  0.00000000000E+00 0. -1.
          6    1    1    2  501    0 -0.55704064175E+02 -0.65209149648E+02 -0.99765574119E+03  0.10161698450E+04  0.17300000000E+03 0. -1.
         -6    1    1    2    0  502  0.55704064175E+02  0.65209149648E+02 -0.45029346283E+03  0.48994732230E+03  0.17300000000E+03 0.  1.
<mgrwt>
<rscale>  2 0.19309111E+03</rscale>
<asrwt>0</asrwt>
<pdfrwt beam="1">  1       21 0.44744578E-02 0.19309111E+03</pdfrwt>
<pdfrwt beam="2">  1       21 0.22723592E+00 0.19309111E+03</pdfrwt>
<totfact> 0.29486924E+04</totfact>
</mgrwt>
</event>
<event>
 4    1  0.3945814E+000  0.1782529E+03  0.7546771E-02  0.1169505E+00
         21   -1    0    0  503  502  0.00000000000E+00  0.00000000000E+00  0.39203367320E+02  0.39203367320E+02  0.00000000000E+00 0. -1.
         21   -1    0    0  501  503 -0.00000000000E+00 -0.00000000000E+00 -0.11311411661E+04  0.11311411661E+04  0.00000000000E+00 0. -1.
          6    1    1    2  501    0  0.42150216230E+02 -0.82729824019E+01 -0.85752712707E+03  0.87585778333E+03  0.17300000000E+03 0. -1.
         -6    1    1    2    0  502 -0.42150216230E+02  0.82729824019E+01 -0.23441067172E+03  0.29448675010E+03  0.17300000000E+03 0. -1.
<mgrwt>
<rscale>  2 0.17825286E+03</rscale>
<asrwt>0</asrwt>
<pdfrwt beam="1">  1       21 0.60312878E-02 0.17825286E+03</pdfrwt>
<pdfrwt beam="2">  1       21 0.17402170E+00 0.17825286E+03</pdfrwt>
<totfact> 0.39451080E+04</totfact>
</mgrwt>
</event>
<event>
 4    1  0.3945814E+000  0.2293602E+03  0.7546771E-02  0.1127091E+00
         21   -1    0    0  503  502  0.00000000000E+00  0.00000000000E+00  0.48365400853E+03  0.48365400853E+03  0.00000000000E+00 0. -1.
         21   -1    0    0  501  503 -0.00000000000E+00 -0.00000000000E+00 -0.19624726916E+03  0.19624726916E+03  0.00000000000E+00 0.  1.
          6    1    1    2  501    0 -0.98617456381E+02  0.11380559030E+03 -0.83265575563E+02  0.24400670311E+03  0.17300000000E+03 0.  1.
         -6    1    1    2    0  502  0.98617456381E+02 -0.11380559030E+03  0.37067231494E+03  0.43589457458E+03  0.17300000000E+03 0. -1.
<mgrwt>
<rscale>  2 0.22936023E+03</rscale>
<asrwt>0</asrwt>
<pdfrwt beam="1">  1       21 0.74408308E-01 0.22936023E+03</pdfrwt>
<pdfrwt beam="2">  1       21 0.30191888E-01 0.22936023E+03</pdfrwt>
<totfact> 0.16662020E+04</totfact>
</mgrwt>
</event>
<event>
 4    1  0.3945814E+000  0.1857362E+03  0.7546771E-02  0.1162364E+00
         21   -1    0    0  503  502  0.00000000000E+00  0.00000000000E+00  0.16198633088E+03  0.16198633088E+03  0.00000000000E+00 0.  1.
         21   -1    0    0  501  503 -0.00000000000E+00 -0.00000000000E+00 -0.27795109654E+03  0.27795109654E+03  0.00000000000E+00 0. -1.
          6    1    1    2  501    0 -0.67520484730E+02 -0.31499531254E+01 -0.16434187050E+03  0.24800441218E+03  0.17300000000E+03 0. -1.
         -6    1    1    2    0  502  0.67520484730E+02  0.31499531254E+01  0.48377104843E+02  0.19193301523E+03  0.17300000000E+03 0.  1.
<mgrwt>
<rscale>  2 0.18573621E+03</rscale>
<asrwt>0</asrwt>
<pdfrwt beam="1">  1       21 0.24920974E-01 0.18573621E+03</pdfrwt>
<pdfrwt beam="2">  1       21 0.42761707E-01 0.18573621E+03</pdfrwt>
<totfact> 0.80381052E+04</totfact>
</mgrwt>
</event>
<event>
 4    1  0.3945814E+000  0.2115023E+03  0.7546771E-02  0.1140382E+00
         21   -1    0    0  501  502  0.00000000000E+00  0.00000000000E+00  0.79189580643E+02  0.79189580643E+02  0.00000000000E+00 0.  1.
         21   -1    0    0  502  503 -0.00000000000E+00 -0.00000000000E+00 -0.66642824503E+03  0.66642824503E+03  0.00000000000E+00 0. -1.
          6    1    1    2  501    0  0.65272522972E+02  0.10268257560E+03 -0.14809704593E+03  0.25819749922E+03  0.17300000000E+03 0.  1.
         -6    1    1    2    0  503 -0.65272522972E+02 -0.10268257560E+03 -0.43914161845E+03  0.48742032646E+03  0.17300000000E+03 0. -1.
<mgrwt>
<rscale>  2 0.21150228E+03</rscale>
<asrwt>0</asrwt>
<pdfrwt beam="1">  1       21 0.12183012E-01 0.21150228E+03</pdfrwt>
<pdfrwt beam="2">  1       21 0.10252742E+00 0.21150228E+03</pdfrwt>
<totfact> 0.43745036E+04</totfact>
</mgrwt>
</event>
<event>
 4    1  0.3945814E+000  0.2147712E+03  0.7546771E-02  0.1137842E+00
         21   -1    0    0  501  502  0.00000000000E+00  0.00000000000E+00  0.13549372827E+03  0.13549372827E+03  0.00000000000E+00 0. -1.
         21   -1    0    0  502  503 -0.00000000000E+00 -0.00000000000E+00 -0.40515869221E+03  0.40515869221E+03  0.00000000000E+00 0.  1.
          6    1    1    2  501    0  0.11827681281E+03  0.46992253487E+02 -0.26786041834E+02  0.21643513664E+03  0.17300000000E+03 0. -1.
         -6    1    1    2    0  503 -0.11827681281E+03 -0.46992253487E+02 -0.24287892210E+03  0.32421728383E+03  0.17300000000E+03 0.  1.
<mgrwt>
<rscale>  2 0.21477122E+03</rscale>
<asrwt>0</asrwt>
<pdfrwt beam="1">  1       21 0.20845189E-01 0.21477122E+03</pdfrwt>
<pdfrwt beam="2">  1       21 0.62332107E-01 0.21477122E+03</pdfrwt>
<totfact> 0.50448925E+04</totfact>
</mgrwt>
</event>
<event>
 4    1  0.3945814E+000  0.2030857E+03  0.7546771E-02  0.1147161E+00
         21   -1    0    0  503  502  0.00000000000E+00  0.00000000000E+00  0.18428641140E+03  0.18428641140E+03  0.00000000000E+00 0. -1.
         21   -1    0    0  501  503 -0.00000000000E+00 -0.00000000000E+00 -0.23035252970E+03  0.23035252970E+03  0.00000000000E+00 0.  1.
          6    1    1    2  501    0 -0.10396148929E+03 -0.22512767463E+02  0.11925626246E+02  0.20343558321E+03  0.17300000000E+03 0.  1.
         -6    1    1    2    0  502  0.10396148929E+03  0.22512767463E+02 -0.57991744546E+02  0.21120335790E+03  0.17300000000E+03 0.  1.
<mgrwt>
<rscale>  2 0.20308574E+03</rscale>
<asrwt>0</asrwt>
<pdfrwt beam="1">  1       21 0.28351756E-01 0.20308574E+03</pdfrwt>
<pdfrwt beam="2">  1       21 0.35438851E-01 0.20308574E+03</pdfrwt>
<totfact> 0.90906448E+04</totfact>
</mgrwt>
</event>
<event>
 4    1  0.3945814E+000  0.2194734E+03  0.7546771E-02  0.1134276E+00
         21   -1    0    0  503  502  0.00000000000E+00  0.00000000000E+00  0.38243452293E+03  0.38243452293E+03  0.00000000000E+00 0.  1.
         21   -1    0    0  501  503 -0.00000000000E+00 -0.00000000000E+00 -0.12615866794E+03  0.12615866794E+03  0.00000000000E+00 0.  1.
          6    1    1    2  501    0 -0.33201932872E+00  0.13505353946E+03  0.11785693055E+03  0.24911608707E+03  0.17300000000E+03 0.  1.
         -6    1    1    2    0  502  0.33201932872E+00 -0.13505353946E+03  0.13841892443E+03  0.25947710380E+03  0.17300000000E+03 0.  1.
<mgrwt>
<rscale>  2 0.21947339E+03</rscale>
<asrwt>0</asrwt>
<pdfrwt beam="1">  1       21 0.58836080E-01 0.21947339E+03</pdfrwt>
<pdfrwt beam="2">  1       21 0.19409026E-01 0.21947339E+03</pdfrwt>
<totfact> 0.65182256E+04</totfact>
</mgrwt>
</event>
<event>
 4    1  0.3945814E+000  0.1943073E+03  0.7546771E-02  0.1154633E+00
         21   -1    0    0  501  502  0.00000000000E+00  0.00000000000E+00  0.51733397154E+03  0.51733397154E+03  0.00000000000E+00 0.  1.
         21   -1    0    0  502  503 -0.00000000000E+00 -0.00000000000E+00 -0.12733708865E+03  0.12733708865E+03  0.00000000000E+00 0. -1.
          6    1    1    2  501    0  0.46956806921E+02 -0.74975817202E+02  0.40559760416E+03  0.44973851445E+03  0.17300000000E+03 0.  1.
         -6    1    1    2    0  503 -0.46956806921E+02  0.74975817202E+02 -0.15600721267E+02  0.19493254573E+03  0.17300000000E+03 0. -1.
<mgrwt>
<rscale>  2 0.19430727E+03</rscale>
<asrwt>0</asrwt>
<pdfrwt beam="1">  1       21 0.79589841E-01 0.19430727E+03</pdfrwt>
<pdfrwt beam="2">  1       21 0.19590322E-01 0.19430727E+03</pdfrwt>
<totfact> 0.33354425E+04</totfact>
</mgrwt>
</event>
<event>
 4    1  0.3945814E+000  0.2693285E+03  0.7546771E-02  0.1101665E+00
         21   -1    0    0  503  502  0.00000000000E+00  0.00000000000E+00  0.10480556494E+04  0.10480556494E+04  0.00000000000E+00 0. -1.
         21   -1    0    0  501  503 -0.00000000000E+00 -0.00000000000E+00 -0.71098228336E+02  0.71098228336E+02  0.00000000000E+00 0.  1.
          6    1    1    2  501    0  0.15592757573E+03 -0.13526069965E+03  0.39733109112E+03  0.48001027251E+03  0.17300000000E+03 0.  1.
         -6    1    1    2    0  502 -0.15592757573E+03  0.13526069965E+03  0.57962632997E+03  0.63914360526E+03  0.17300000000E+03 0. -1.
<mgrwt>
<rscale>  2 0.26932855E+03</rscale>
<asrwt>0</asrwt>
<pdfrwt beam="1">  1       21 0.16123932E+00 0.26932855E+03</pdfrwt>
<pdfrwt beam="2">  1       21 0.10938190E-01 0.26932855E+03</pdfrwt>
<totfact> 0.16269498E+04</totfact>
</mgrwt>
</event>
<event>
 4    1  0.3945814E+000  0.1902056E+03  0.7546771E-02  0.1158276E+00
         21   -1    0    0  503  502  0.00000000000E+00  0.00000000000E+00  0.12448887011E+03  0.12448887011E+03  0.00000000000E+00 0. -1.
         21   -1    0    0  501  503 -0.00000000000E+00 -0.00000000000E+00 -0.56537068595E+03  0.56537068595E+03  0.00000000000E+00 0. -1.
          6    1    1    2  501    0 -0.74763917504E+02 -0.25681283240E+02 -0.46089845580E+03  0.49860360832E+03  0.17300000000E+03 0. -1.
         -6    1    1    2    0  502  0.74763917504E+02  0.25681283240E+02  0.20016639958E+02  0.19125594774E+03  0.17300000000E+03 0. -1.
<mgrwt>
<rscale>  2 0.19020560E+03</rscale>
<asrwt>0</asrwt>
<pdfrwt beam="1">  1       21 0.19152134E-01 0.19020560E+03</pdfrwt>
<pdfrwt beam="2">  1       21 0.86980103E-01 0.19020560E+03</pdfrwt>
<totfact> 0.28482920E+04</totfact>
</mgrwt>
</event>
<event>
 4    1  0.3945814E+000  0.2249112E+03  0.7546771E-02  0.1130274E+00
         21   -1    0    0  503  502  0.00000000000E+00  0.00000000000E+00  0.24235072815E+03  0.24235072815E+03  0.00000000000E+00 0.  1.
         21   -1    0    0  501  503 -0.00000000000E+00 -0.00000000000E+00 -0.21281939038E+03  0.21281939038E+03  0.00000000000E+00 0. -1.
          6    1    1    2  501    0 -0.13182268388E+03  0.57261068585E+02  0.46326358607E+02  0.22963270991E+03  0.17300000000E+03 0. -1.
         -6    1    1    2    0  502  0.13182268388E+03 -0.57261068585E+02 -0.16795020842E+02  0.22553740862E+03  0.17300000000E+03 0.  1.
<mgrwt>
<rscale>  2 0.22491120E+03</rscale>
<asrwt>0</asrwt>
<pdfrwt beam="1">  1       21 0.37284727E-01 0.22491120E+03</pdfrwt>
<pdfrwt beam="2">  1       21 0.32741445E-01 0.22491120E+03</pdfrwt>
<totfact> 0.61404969E+04</totfact>
</mgrwt>
</event>
<event>
 4    1  0.3945814E+000  0.1892555E+03  0.7546771E-02  0.1159135E+00
         21   -1    0    0  501  502  0.00000000000E+00  0.00000000000E+00  0.43927251231E+03  0.43927251231E+03  0.00000000000E+00 0.  1.
         21   -1    0    0  502  503 -0.00000000000E+00 -0.00000000000E+00 -0.13232242918E+03  0.13232242918E+03  0.00000000000E+00 0. -1.
          6    1    1    2  501    0 -0.72750727926E+02 -0.24412239423E+02  0.33052864020E+03  0.38087636818E+03  0.17300000000E+03 0.  1.
         -6    1    1    2    0  503  0.72750727926E+02  0.24412239423E+02 -0.23578557070E+02  0.19071857330E+03  0.17300000000E+03 0. -1.
<mgrwt>
<rscale>  2 0.18925545E+03</rscale>
<asrwt>0</asrwt>
<pdfrwt beam="1">  1       21 0.67580386E-01 0.18925545E+03</pdfrwt>
<pdfrwt beam="2">  1       21 0.20357297E-01 0.18925545E+03</pdfrwt>
<totfact> 0.44779574E+04</totfact>
</mgrwt>
</event>
<event>
 4    1  0.3945814E+000  0.1966624E+03  0.7546771E-02  0.1152586E+00
         21   -1    0    0  501  502  0.00000000000E+00  0.00000000000E+00  0.14702133479E+03  0.14702133479E+03  0.00000000000E+00 0. -1.
         21   -1    0    0  502  503 -0.00000000000E+00 -0.00000000000E+00 -0.29064687956E+03  0.29064687956E+03  0.00000000000E+00 0. -1.
          6    1    1    2  501    0  0.59843369286E+02  0.71873931374E+02 -0.43990654767E+01  0.19671157220E+03  0.17300000000E+03 0. -1.
         -6    1    1    2    0  503 -0.59843369286E+02 -0.71873931374E+02 -0.13922647929E+03  0.24095664215E+03  0.17300000000E+03 0. -1.
<mgrwt>
<rscale>  2 0.19666238E+03</rscale>
<asrwt>0</asrwt>
<pdfrwt beam="1">  1       21 0.22618667E-01 0.19666238E+03</pdfrwt>
<pdfrwt beam="2">  1       21 0.44714904E-01 0.19666238E+03</pdfrwt>
<totfact> 0.87800406E+04</totfact>
</mgrwt>
</event>
<event>
 4    1  0.3945814E+000  0.2794089E+03  0.7546771E-02  0.1096012E+00
         21   -1    0    0  501  502  0.00000000000E+00  0.00000000000E+00  0.49374852557E+03  0.49374852557E+03  0.00000000000E+00 0. -1.
         21   -1    0    0  502  503 -0.00000000000E+00 -0.00000000000E+00 -0.57420898612E+03  0.57420898612E+03  0.00000000000E+00 0.  1.
          6    1    1    2  501    0 -0.61387853175E+02 -0.21064632466E+03  0.41432263004E+03  0.49973251282E+03  0.17300000000E+03 0. -1.
         -6    1    1    2    0  503  0.61387853175E+02  0.21064632466E+03 -0.49478309058E+03  0.56822499887E+03  0.17300000000E+03 0.  1.
<mgrwt>
<rscale>  2 0.27940892E+03</rscale>
<asrwt>0</asrwt>
<pdfrwt beam="1">  1       21 0.75961312E-01 0.27940892E+03</pdfrwt>
<pdfrwt beam="2">  1       21 0.88339844E-01 0.27940892E+03</pdfrwt>
<totfact> 0.15826782E+03</totfact>
</mgrwt>
</event>
<event>
 4    1  0.3945814E+000  0.1936692E+03  0.7546771E-02  0.1155193E+00
         21   -1    0    0  501  502  0.00000000000E+00  0.00000000000E+00  0.86116389394E+03  0.86116389394E+03  0.00000000000E+00 0.  1.
         21   -1    0    0  502  503 -0.00000000000E+00 -0.00000000000E+00 -0.51697773548E+02  0.51697773548E+02  0.00000000000E+00 0.  1.
          6    1    1    2  501    0 -0.31065361387E+02 -0.81324590432E+02  0.58588079367E+03  0.61706081554E+03  0.17300000000E+03 0.  1.
         -6    1    1    2    0  503  0.31065361387E+02  0.81324590432E+02  0.22358532673E+03  0.29580085195E+03  0.17300000000E+03 0.  1.
<mgrwt>
<rscale>  2 0.19366917E+03</rscale>
<asrwt>0</asrwt>
<pdfrwt beam="1">  1       21 0.13248674E+00 0.19366917E+03</pdfrwt>
<pdfrwt beam="2">  1       21 0.79535042E-02 0.19366917E+03</pdfrwt>
<totfact> 0.49923830E+04</totfact>
</mgrwt>
</event>
<event>
 4    1  0.3945814E+000  0.1903913E+03  0.7546771E-02  0.1158109E+00
         21   -1    0    0  501  502  0.00000000000E+00  0.00000000000E+00  0.26586030299E+03  0.26586030299E+03  0.00000000000E+00 0.  1.
         21   -1    0    0  502  503 -0.00000000000E+00 -0.00000000000E+00 -0.15879559761E+03  0.15879559761E+03  0.00000000000E+00 0.  1.
          6    1    1    2  501    0  0.76396590856E+02  0.21986832578E+02  0.13336801106E+03  0.23245620292E+03  0.17300000000E+03 0.  1.
         -6    1    1    2    0  503 -0.76396590856E+02 -0.21986832578E+02 -0.26303305673E+02  0.19219969769E+03  0.17300000000E+03 0.  1.
<mgrwt>
<rscale>  2 0.19039133E+03</rscale>
<asrwt>0</asrwt>
<pdfrwt beam="1">  1       21 0.40901585E-01 0.19039133E+03</pdfrwt>
<pdfrwt beam="2">  1       21 0.24430092E-01 0.19039133E+03</pdfrwt>
<totfact> 0.91216189E+04</totfact>
</mgrwt>
</event>
<event>
 4    1  0.3945814E+000  0.1948264E+03  0.7546771E-02  0.1154179E+00
         21   -1    0    0  501  502  0.00000000000E+00  0.00000000000E+00  0.33095339542E+03  0.33095339542E+03  0.00000000000E+00 0. -1.
         21   -1    0    0  502  503 -0.00000000000E+00 -0.00000000000E+00 -0.11697882805E+03  0.11697882805E+03  0.00000000000E+00 0. -1.
          6    1    1    2  501    0  0.65150064729E+01 -0.89363744556E+02  0.13830969589E+03  0.23892864233E+03  0.17300000000E+03 0.  1.
         -6    1    1    2    0  503 -0.65150064729E+01  0.89363744556E+02  0.75664871476E+02  0.20900358113E+03  0.17300000000E+03 0.  1.
<mgrwt>
<rscale>  2 0.19482639E+03</rscale>
<asrwt>0</asrwt>
<pdfrwt beam="1">  1       21 0.50915906E-01 0.19482639E+03</pdfrwt>
<pdfrwt beam="2">  1       21 0.17996743E-01 0.19482639E+03</pdfrwt>
<totfact> 0.10295129E+05</totfact>
</mgrwt>
</event>
<event>
 4    1  0.3945814E+000  0.1734969E+03  0.7546771E-02  0.1174249E+00
         21   -1    0    0  503  502  0.00000000000E+00  0.00000000000E+00  0.10183737930E+04  0.10183737930E+04  0.00000000000E+00 0. -1.
         21   -1    0    0  501  503 -0.00000000000E+00 -0.00000000000E+00 -0.44443850900E+02  0.44443850900E+02  0.00000000000E+00 0. -1.
          6    1    1    2  501    0 -0.97907004594E+01 -0.87357400736E+01  0.17942000113E+03  0.24958507122E+03  0.17300000000E+03 0. -1.
         -6    1    1    2    0  502  0.97907004594E+01  0.87357400736E+01  0.79450994099E+03  0.81323257270E+03  0.17300000000E+03 0. -1.
<mgrwt>
<rscale>  2 0.17349689E+03</rscale>
<asrwt>0</asrwt>
<pdfrwt beam="1">  1       21 0.15667287E+00 0.17349689E+03</pdfrwt>
<pdfrwt beam="2">  1       21 0.68375163E-02 0.17349689E+03</pdfrwt>
<totfact> 0.42438458E+04</totfact>
</mgrwt>
</event>
<event>
 4    1  0.3945814E+000  0.1907724E+03  0.7546771E-02  0.1157767E+00
         21   -1    0    0  501  502  0.00000000000E+00  0.00000000000E+00  0.85280009361E+02  0.85280009361E+02  0.00000000000E+00 0. -1.
         21   -1    0    0  502  503 -0.00000000000E+00 -0.00000000000E+00 -0.44176600006E+03  0.44176600006E+03  0.00000000000E+00 0. -1.
          6    1    1    2  501    0  0.46029828441E+02 -0.65926980025E+02 -0.22681122969E+03  0.29637382765E+03  0.17300000000E+03 0. -1.
         -6    1    1    2    0  503 -0.46029828441E+02  0.65926980025E+02 -0.12967476101E+03  0.23067218178E+03  0.17300000000E+03 0. -1.
<mgrwt>
<rscale>  2 0.19077241E+03</rscale>
<asrwt>0</asrwt>
<pdfrwt beam="1">  1       21 0.13120001E-01 0.19077241E+03</pdfrwt>
<pdfrwt beam="2">  1       21 0.67964001E-01 0.19077241E+03</pdfrwt>
<totfact> 0.98927202E+04</totfact>
</mgrwt>
</event>
<event>
 4    1  0.3945814E+000  0.1752161E+03  0.7546771E-02  0.1172515E+00
         21   -1    0    0  503  502  0.00000000000E+00  0.00000000000E+00  0.19109959912E+03  0.19109959912E+03  0.00000000000E+00 0.  1.
         21   -1    0    0  501  503 -0.00000000000E+00 -0.00000000000E+00 -0.16237856372E+03  0.16237856372E+03  0.00000000000E+00 0. -1.
          6    1    1    2  501    0  0.26804624485E+02 -0.72940238550E+01 -0.38597863604E+01  0.17525863353E+03  0.17300000000E+03 0. -1.
         -6    1    1    2    0  502 -0.26804624485E+02  0.72940238550E+01  0.32580821765E+02  0.17821952930E+03  0.17300000000E+03 0.  1.
<mgrwt>
<rscale>  2 0.17521613E+03</rscale>
<asrwt>0</asrwt>
<pdfrwt beam="1">  1       21 0.29399938E-01 0.17521613E+03</pdfrwt>
<pdfrwt beam="2">  1       21 0.24981318E-01 0.17521613E+03</pdfrwt>
<totfact> 0.16902464E+05</totfact>
</mgrwt>
</event>
<event>
 4    1  0.3945814E+000  0.2007428E+03  0.7546771E-02  0.1149114E+00
         21   -1    0    0  501  502  0.00000000000E+00  0.00000000000E+00  0.40292499510E+03  0.40292499510E+03  0.00000000000E+00 0.  1.
         21   -1    0    0  502  503 -0.00000000000E+00 -0.00000000000E+00 -0.19100885054E+03  0.19100885054E+03  0.00000000000E+00 0.  1.
          6    1    1    2  501    0 -0.68756342584E+02 -0.75108246934E+02 -0.99012941073E+02  0.22383307598E+03  0.17300000000E+03 0.  1.
         -6    1    1    2    0  503  0.68756342584E+02  0.75108246934E+02  0.31092908563E+03  0.37010076965E+03  0.17300000000E+03 0.  1.
<mgrwt>
<rscale>  2 0.20074283E+03</rscale>
<asrwt>0</asrwt>
<pdfrwt beam="1">  1       21 0.61988461E-01 0.20074283E+03</pdfrwt>
<pdfrwt beam="2">  1       21 0.29385977E-01 0.20074283E+03</pdfrwt>
<totfact> 0.26674849E+04</totfact>
</mgrwt>
</event>
<event>
 4    1  0.3945814E+000  0.2004115E+03  0.7546771E-02  0.1149392E+00
         21   -1    0    0  501  502  0.00000000000E+00  0.00000000000E+00  0.31741468200E+02  0.31741468200E+02  0.00000000000E+00 0. -1.
         21   -1    0    0  502  503 -0.00000000000E+00 -0.00000000000E+00 -0.14177902215E+04  0.14177902215E+04  0.00000000000E+00 0. -1.
          6    1    1    2  501    0 -0.10083674968E+03  0.82292516542E+01 -0.45538963971E+03  0.49753843532E+03  0.17300000000E+03 0. -1.
         -6    1    1    2    0  503  0.10083674968E+03 -0.82292516542E+01 -0.93065911360E+03  0.95199325438E+03  0.17300000000E+03 0. -1.
<mgrwt>
<rscale>  2 0.20041150E+03</rscale>
<asrwt>0</asrwt>
<pdfrwt beam="1">  1       21 0.48833039E-02 0.20041150E+03</pdfrwt>
<pdfrwt beam="2">  1       21 0.21812152E+00 0.20041150E+03</pdfrwt>
<totfact> 0.28754531E+04</totfact>
</mgrwt>
</event>
<event>
 4    1  0.3945814E+000  0.2019290E+03  0.7546771E-02  0.1148122E+00
         21   -1    0    0  501  502  0.00000000000E+00  0.00000000000E+00  0.80255056256E+03  0.80255056256E+03  0.00000000000E+00 0.  1.
         21   -1    0    0  502  503 -0.00000000000E+00 -0.00000000000E+00 -0.89776585047E+02  0.89776585047E+02  0.00000000000E+00 0.  1.
          6    1    1    2  501    0 -0.99975395482E+02 -0.29175721514E+02  0.65033779437E+03  0.68096589431E+03  0.17300000000E+03 0.  1.
         -6    1    1    2    0  503  0.99975395482E+02  0.29175721514E+02  0.62436183136E+02  0.21136125329E+03  0.17300000000E+03 0.  1.
<mgrwt>
<rscale>  2 0.20192895E+03</rscale>
<asrwt>0</asrwt>
<pdfrwt beam="1">  1       21 0.12346931E+00 0.20192895E+03</pdfrwt>
<pdfrwt beam="2">  1       21 0.13811783E-01 0.20192895E+03</pdfrwt>
<totfact> 0.22285744E+04</totfact>
</mgrwt>
</event>
<event>
 4    1  0.3945814E+000  0.2454117E+03  0.7546771E-02  0.1116239E+00
         21   -1    0    0  503  502  0.00000000000E+00  0.00000000000E+00  0.29627295713E+03  0.29627295713E+03  0.00000000000E+00 0.  1.
         21   -1    0    0  501  503 -0.00000000000E+00 -0.00000000000E+00 -0.23692640094E+03  0.23692640094E+03  0.00000000000E+00 0. -1.
          6    1    1    2  501    0 -0.13402573699E+03 -0.11106307232E+03  0.13013728440E+03  0.27778159947E+03  0.17300000000E+03 0.  1.
         -6    1    1    2    0  502  0.13402573699E+03  0.11106307232E+03 -0.70790728217E+02  0.25541775861E+03  0.17300000000E+03 0. -1.
<mgrwt>
<rscale>  2 0.24541170E+03</rscale>
<asrwt>0</asrwt>
<pdfrwt beam="1">  1       21 0.45580455E-01 0.24541170E+03</pdfrwt>
<pdfrwt beam="2">  1       21 0.36450215E-01 0.24541170E+03</pdfrwt>
<totfact> 0.32637329E+04</totfact>
</mgrwt>
</event>
<event>
 4    1  0.3945814E+000  0.1840842E+03  0.7546771E-02  0.1163908E+00
         21   -1    0    0  501  502  0.00000000000E+00  0.00000000000E+00  0.26925367247E+04  0.26925367247E+04  0.00000000000E+00 0.  1.
         21   -1    0    0  502  503 -0.00000000000E+00 -0.00000000000E+00 -0.21134733244E+02  0.21134733244E+02  0.00000000000E+00 0.  1.
          6    1    1    2  501    0  0.44404519654E+02 -0.44567214390E+02  0.47273885667E+03  0.50731550792E+03  0.17300000000E+03 0. -1.
         -6    1    1    2    0  503 -0.44404519654E+02  0.44567214390E+02  0.21986631348E+04  0.22063559501E+04  0.17300000000E+03 0. -1.
<mgrwt>
<rscale>  2 0.18408421E+03</rscale>
<asrwt>0</asrwt>
<pdfrwt beam="1">  1       21 0.41423615E+00 0.18408421E+03</pdfrwt>
<pdfrwt beam="2">  1       21 0.32514996E-02 0.18408421E+03</pdfrwt>
<totfact> 0.39763714E+03</totfact>
</mgrwt>
</event>
<event>
 4    1  0.3945814E+000  0.1805754E+03  0.7546771E-02  0.1167247E+00
         21   -1    0    0  503  502  0.00000000000E+00  0.00000000000E+00  0.19208363268E+03  0.19208363268E+03  0.00000000000E+00 0. -1.
         21   -1    0    0  501  503 -0.00000000000E+00 -0.00000000000E+00 -0.17327393139E+03  0.17327393139E+03  0.00000000000E+00 0. -1.
          6    1    1    2  501    0 -0.18757590998E+02  0.48235022604E+02 -0.16622386183E+02  0.18133882195E+03  0.17300000000E+03 0.  1.
         -6    1    1    2    0  502  0.18757590998E+02 -0.48235022604E+02  0.35432087479E+02  0.18401874211E+03  0.17300000000E+03 0.  1.
<mgrwt>
<rscale>  2 0.18057537E+03</rscale>
<asrwt>0</asrwt>
<pdfrwt beam="1">  1       21 0.29551328E-01 0.18057537E+03</pdfrwt>
<pdfrwt beam="2">  1       21 0.26657528E-01 0.18057537E+03</pdfrwt>
<totfact> 0.14755415E+05</totfact>
</mgrwt>
</event>
<event>
 4    1  0.3945814E+000  0.1907709E+03  0.7546771E-02  0.1157768E+00
         21   -1    0    0  501  502  0.00000000000E+00  0.00000000000E+00  0.22679185556E+03  0.22679185556E+03  0.00000000000E+00 0.  1.
         21   -1    0    0  502  503 -0.00000000000E+00 -0.00000000000E+00 -0.19194940572E+03  0.19194940572E+03  0.00000000000E+00 0.  1.
          6    1    1    2  501    0 -0.39795551650E+02  0.69862949484E+02  0.10220811093E+03  0.21642554281E+03  0.17300000000E+03 0.  1.
         -6    1    1    2    0  503  0.39795551650E+02 -0.69862949484E+02 -0.67365661095E+02  0.20231571846E+03  0.17300000000E+03 0.  1.
<mgrwt>
<rscale>  2 0.19077085E+03</rscale>
<asrwt>0</asrwt>
<pdfrwt beam="1">  1       21 0.34891055E-01 0.19077085E+03</pdfrwt>
<pdfrwt beam="2">  1       21 0.29530677E-01 0.19077085E+03</pdfrwt>
<totfact> 0.87076638E+04</totfact>
</mgrwt>
</event>
<event>
 4    1  0.3945814E+000  0.3123376E+03  0.7546771E-02  0.1079231E+00
         21   -1    0    0  503  502  0.00000000000E+00  0.00000000000E+00  0.72724817142E+02  0.72724817142E+02  0.00000000000E+00 0. -1.
         21   -1    0    0  501  503 -0.00000000000E+00 -0.00000000000E+00 -0.13735102553E+04  0.13735102553E+04  0.00000000000E+00 0.  1.
          6    1    1    2  501    0  0.69905373127E+02  0.25047755760E+03 -0.76091678070E+03  0.82252605747E+03  0.17300000000E+03 0. -1.
         -6    1    1    2    0  502 -0.69905373127E+02 -0.25047755760E+03 -0.53986865741E+03  0.62370901493E+03  0.17300000000E+03 0. -1.
<mgrwt>
<rscale>  2 0.31233759E+03</rscale>
<asrwt>0</asrwt>
<pdfrwt beam="1">  1       21 0.11188434E-01 0.31233759E+03</pdfrwt>
<pdfrwt beam="2">  1       21 0.21130926E+00 0.31233759E+03</pdfrwt>
<totfact> 0.69492261E+03</totfact>
</mgrwt>
</event>
<event>
 4    1  0.3945814E+000  0.1749446E+03  0.7546771E-02  0.1172787E+00
         21   -1    0    0  501  502  0.00000000000E+00  0.00000000000E+00  0.31442766477E+03  0.31442766477E+03  0.00000000000E+00 0.  1.
         21   -1    0    0  502  503 -0.00000000000E+00 -0.00000000000E+00 -0.98664410260E+02  0.98664410260E+02  0.00000000000E+00 0.  1.
          6    1    1    2  501    0  0.93801779825E+01  0.24261861817E+02  0.13183383139E+03  0.21905657894E+03  0.17300000000E+03 0.  1.
         -6    1    1    2    0  503 -0.93801779825E+01 -0.24261861817E+02  0.83929423116E+02  0.19403549609E+03  0.17300000000E+03 0.  1.
<mgrwt>
<rscale>  2 0.17494464E+03</rscale>
<asrwt>0</asrwt>
<pdfrwt beam="1">  1       21 0.48373487E-01 0.17494464E+03</pdfrwt>
<pdfrwt beam="2">  1       21 0.15179140E-01 0.17494464E+03</pdfrwt>
<totfact> 0.15758973E+05</totfact>
</mgrwt>
</event>
<event>
 4    1  0.3945814E+000  0.1764265E+03  0.7546771E-02  0.1171307E+00
         21   -1    0    0  503  502  0.00000000000E+00  0.00000000000E+00  0.90010671627E+02  0.90010671627E+02  0.00000000000E+00 0.  1.
         21   -1    0    0  501  503 -0.00000000000E+00 -0.00000000000E+00 -0.42689578167E+03  0.42689578167E+03  0.00000000000E+00 0.  1.
          6    1    1    2  501    0 -0.27657735496E+02  0.20793401936E+02 -0.28108486451E+03  0.33186596233E+03  0.17300000000E+03 0.  1.
         -6    1    1    2    0  502  0.27657735496E+02 -0.20793401936E+02 -0.55800245540E+02  0.18504049097E+03  0.17300000000E+03 0.  1.
<mgrwt>
<rscale>  2 0.17642652E+03</rscale>
<asrwt>0</asrwt>
<pdfrwt beam="1">  1       21 0.13847796E-01 0.17642652E+03</pdfrwt>
<pdfrwt beam="2">  1       21 0.65676273E-01 0.17642652E+03</pdfrwt>
<totfact> 0.97258653E+04</totfact>
</mgrwt>
</event>
<event>
 4    1  0.3945814E+000  0.1991269E+03  0.7546771E-02  0.1150478E+00
         21   -1    0    0  503  502  0.00000000000E+00  0.00000000000E+00  0.19938806497E+03  0.19938806497E+03  0.00000000000E+00 0. -1.
         21   -1    0    0  501  503 -0.00000000000E+00 -0.00000000000E+00 -0.19933100413E+03  0.19933100413E+03  0.00000000000E+00 0. -1.
          6    1    1    2  501    0 -0.98326625567E+02 -0.73742601866E+01 -0.96004983802E+01  0.19935815654E+03  0.17300000000E+03 0. -1.
         -6    1    1    2    0  502  0.98326625567E+02  0.73742601866E+01  0.96575592184E+01  0.19936091257E+03  0.17300000000E+03 0. -1.
<mgrwt>
<rscale>  2 0.19912686E+03</rscale>
<asrwt>0</asrwt>
<pdfrwt beam="1">  1       21 0.30675087E-01 0.19912686E+03</pdfrwt>
<pdfrwt beam="2">  1       21 0.30666308E-01 0.19912686E+03</pdfrwt>
<totfact> 0.10389929E+05</totfact>
</mgrwt>
</event>
<event>
 4    1  0.3945814E+000  0.1932534E+03  0.7546771E-02  0.1155559E+00
         21   -1    0    0  501  502  0.00000000000E+00  0.00000000000E+00  0.19578352609E+03  0.19578352609E+03  0.00000000000E+00 0.  1.
         21   -1    0    0  502  503 -0.00000000000E+00 -0.00000000000E+00 -0.49139784317E+03  0.49139784317E+03  0.00000000000E+00 0.  1.
          6    1    1    2  501    0 -0.32553881825E+02  0.79737759732E+02  0.12094349703E+03  0.22797849684E+03  0.17300000000E+03 0.  1.
         -6    1    1    2    0  503  0.32553881825E+02 -0.79737759732E+02 -0.41655781410E+03  0.45920287242E+03  0.17300000000E+03 0.  1.
<mgrwt>
<rscale>  2 0.19325337E+03</rscale>
<asrwt>0</asrwt>
<pdfrwt beam="1">  1       21 0.30120543E-01 0.19325337E+03</pdfrwt>
<pdfrwt beam="2">  1       21 0.75599667E-01 0.19325337E+03</pdfrwt>
<totfact> 0.16509043E+04</totfact>
</mgrwt>
</event>
<event>
 4    1  0.3945814E+000  0.2971315E+03  0.7546771E-02  0.1086683E+00
         21   -1    0    0  503  502  0.00000000000E+00  0.00000000000E+00  0.15604729722E+03  0.15604729722E+03  0.00000000000E+00 0. -1.
         21   -1    0    0  501  503 -0.00000000000E+00 -0.00000000000E+00 -0.56833271655E+03  0.56833271655E+03  0.00000000000E+00 0.  1.
          6    1    1    2  501    0 -0.22902374988E+03 -0.76852155513E+02 -0.23045625501E+03  0.37602821342E+03  0.17300000000E+03 0.  1.
         -6    1    1    2    0  502  0.22902374988E+03  0.76852155513E+02 -0.18182916432E+03  0.34835180036E+03  0.17300000000E+03 0. -1.
<mgrwt>
<rscale>  2 0.29713151E+03</rscale>
<asrwt>0</asrwt>
<pdfrwt beam="1">  1       21 0.24007277E-01 0.29713151E+03</pdfrwt>
<pdfrwt beam="2">  1       21 0.87435802E-01 0.29713151E+03</pdfrwt>
<totfact> 0.17405553E+04</totfact>
</mgrwt>
</event>
<event>
 4    1  0.3945814E+000  0.3148631E+03  0.7546771E-02  0.1078038E+00
         21   -1    0    0  503  502  0.00000000000E+00  0.00000000000E+00  0.14172283396E+03  0.14172283396E+03  0.00000000000E+00 0. -1.
         21   -1    0    0  501  503 -0.00000000000E+00 -0.00000000000E+00 -0.78815739356E+03  0.78815739356E+03  0.00000000000E+00 0.  1.
          6    1    1    2  501    0  0.22002317135E+03 -0.14422062559E+03 -0.16730342250E+03  0.35655184750E+03  0.17300000000E+03 0.  1.
         -6    1    1    2    0  502 -0.22002317135E+03  0.14422062559E+03 -0.47913113711E+03  0.57332838001E+03  0.17300000000E+03 0. -1.
<mgrwt>
<rscale>  2 0.31486312E+03</rscale>
<asrwt>0</asrwt>
<pdfrwt beam="1">  1       21 0.21803513E-01 0.31486312E+03</pdfrwt>
<pdfrwt beam="2">  1       21 0.12125499E+00 0.31486312E+03</pdfrwt>
<totfact> 0.94124431E+03</totfact>
</mgrwt>
</event>
<event>
 4    1  0.3945814E+000  0.2609964E+03  0.7546771E-02  0.1106546E+00
         21   -1    0    0  503  502  0.00000000000E+00  0.00000000000E+00  0.14821973807E+04  0.14821973807E+04  0.00000000000E+00 0. -1.
         21   -1    0    0  501  503 -0.00000000000E+00 -0.00000000000E+00 -0.56922958759E+02  0.56922958759E+02  0.00000000000E+00 0.  1.
          6    1    1    2  501    0 -0.18923629705E+03 -0.48782429252E+02  0.37488462324E+03  0.45679052340E+03  0.17300000000E+03 0.  1.
         -6    1    1    2    0  502  0.18923629705E+03  0.48782429252E+02  0.10503897987E+04  0.10823298161E+04  0.17300000000E+03 0. -1.
<mgrwt>
<rscale>  2 0.26099636E+03</rscale>
<asrwt>0</asrwt>
<pdfrwt beam="1">  1       21 0.22803034E+00 0.26099636E+03</pdfrwt>
<pdfrwt beam="2">  1       21 0.87573794E-02 0.26099636E+03</pdfrwt>
<totfact> 0.87196384E+03</totfact>
</mgrwt>
</event>
<event>
 4    1  0.3945814E+000  0.2005463E+03  0.7546771E-02  0.1149279E+00
         21   -1    0    0  501  502  0.00000000000E+00  0.00000000000E+00  0.97364345967E+03  0.97364345967E+03  0.00000000000E+00 0.  1.
         21   -1    0    0  502  503 -0.00000000000E+00 -0.00000000000E+00 -0.41771522456E+02  0.41771522456E+02  0.00000000000E+00 0. -1.
          6    1    1    2  501    0  0.41030658896E+02 -0.92770077222E+02  0.41242646668E+03  0.45860047167E+03  0.17300000000E+03 0.  1.
         -6    1    1    2    0  503 -0.41030658896E+02  0.92770077222E+02  0.51944547054E+03  0.55681451046E+03  0.17300000000E+03 0.  1.
<mgrwt>
<rscale>  2 0.20054626E+03</rscale>
<asrwt>0</asrwt>
<pdfrwt beam="1">  1       21 0.14979128E+00 0.20054626E+03</pdfrwt>
<pdfrwt beam="2">  1       21 0.64263888E-02 0.20054626E+03</pdfrwt>
<totfact> 0.52348288E+04</totfact>
</mgrwt>
</event>
<event>
 4    1  0.3945814E+000  0.2214686E+03  0.7546771E-02  0.1132793E+00
         21   -1    0    0  501  502  0.00000000000E+00  0.00000000000E+00  0.19297112080E+03  0.19297112080E+03  0.00000000000E+00 0. -1.
         21   -1    0    0  502  503 -0.00000000000E+00 -0.00000000000E+00 -0.36817129345E+03  0.36817129345E+03  0.00000000000E+00 0. -1.
          6    1    1    2  501    0  0.58848713280E+02  0.12512460505E+03  0.68522040763E+02  0.23182667645E+03  0.17300000000E+03 0. -1.
         -6    1    1    2    0  503 -0.58848713280E+02 -0.12512460505E+03 -0.24372221341E+03  0.32931573779E+03  0.17300000000E+03 0. -1.
<mgrwt>
<rscale>  2 0.22146859E+03</rscale>
<asrwt>0</asrwt>
<pdfrwt beam="1">  1       21 0.29687865E-01 0.22146859E+03</pdfrwt>
<pdfrwt beam="2">  1       21 0.56641737E-01 0.22146859E+03</pdfrwt>
<totfact> 0.31389901E+04</totfact>
</mgrwt>
</event>
<event>
 4    1  0.3945814E+000  0.2142124E+03  0.7546771E-02  0.1138273E+00
         21   -1    0    0  503  502  0.00000000000E+00  0.00000000000E+00  0.95424885006E+03  0.95424885006E+03  0.00000000000E+00 0. -1.
         21   -1    0    0  501  503 -0.00000000000E+00 -0.00000000000E+00 -0.54977998038E+02  0.54977998038E+02  0.00000000000E+00 0.  1.
          6    1    1    2  501    0  0.64390327558E+02 -0.10868218741E+03  0.27098400742E+03  0.34542620691E+03  0.17300000000E+03 0.  1.
         -6    1    1    2    0  502 -0.64390327558E+02  0.10868218741E+03  0.62828684459E+03  0.66380064118E+03  0.17300000000E+03 0.  1.
<mgrwt>
<rscale>  2 0.21421235E+03</rscale>
<asrwt>0</asrwt>
<pdfrwt beam="1">  1       21 0.14680750E+00 0.21421235E+03</pdfrwt>
<pdfrwt beam="2">  1       21 0.84581542E-02 0.21421235E+03</pdfrwt>
<totfact> 0.34000021E+04</totfact>
</mgrwt>
</event>
<event>
 4    1  0.3945814E+000  0.1763822E+03  0.7546771E-02  0.1171351E+00
         21   -1    0    0  503  502  0.00000000000E+00  0.00000000000E+00  0.22955855490E+03  0.22955855490E+03  0.00000000000E+00 0.  1.
         21   -1    0    0  501  503 -0.00000000000E+00 -0.00000000000E+00 -0.19888068345E+03  0.19888068345E+03  0.00000000000E+00 0.  1.
          6    1    1    2  501    0 -0.29776051122E+02 -0.17177483853E+02 -0.10557027159E+03  0.20556206220E+03  0.17300000000E+03 0.  1.
         -6    1    1    2    0  502  0.29776051122E+02  0.17177483853E+02  0.13624814304E+03  0.22287717616E+03  0.17300000000E+03 0.  1.
<mgrwt>
<rscale>  2 0.17638220E+03</rscale>
<asrwt>0</asrwt>
<pdfrwt beam="1">  1       21 0.35316701E-01 0.17638220E+03</pdfrwt>
<pdfrwt beam="2">  1       21 0.30597028E-01 0.17638220E+03</pdfrwt>
<totfact> 0.79793088E+04</totfact>
</mgrwt>
</event>
<event>
 4    1  0.3945814E+000  0.2067669E+03  0.7546771E-02  0.1144152E+00
         21   -1    0    0  501  502  0.00000000000E+00  0.00000000000E+00  0.10280950236E+03  0.10280950236E+03  0.00000000000E+00 0. -1.
         21   -1    0    0  502  503 -0.00000000000E+00 -0.00000000000E+00 -0.42971180662E+03  0.42971180662E+03  0.00000000000E+00 0.  1.
          6    1    1    2  501    0  0.67052238489E+01 -0.11304235293E+03 -0.21128659771E+03  0.29562570923E+03  0.17300000000E+03 0.  1.
         -6    1    1    2    0  503 -0.67052238489E+01  0.11304235293E+03 -0.11561570655E+03  0.23689559976E+03  0.17300000000E+03 0. -1.
<mgrwt>
<rscale>  2 0.20676686E+03</rscale>
<asrwt>0</asrwt>
<pdfrwt beam="1">  1       21 0.15816846E-01 0.20676686E+03</pdfrwt>
<pdfrwt beam="2">  1       21 0.66109511E-01 0.20676686E+03</pdfrwt>
<totfact> 0.74333798E+04</totfact>
</mgrwt>
</event>
<event>
 4    1  0.3945814E+000  0.2174972E+03  0.7546771E-02  0.1135763E+00
         21   -1    0    0  503  502  0.00000000000E+00  0.00000000000E+00  0.62836230764E+03  0.62836230764E+03  0.00000000000E+00 0.  1.
         21   -1    0    0  501  503 -0.00000000000E+00 -0.00000000000E+00 -0.79119889309E+02  0.79119889309E+02  0.00000000000E+00 0.  1.
          6    1    1    2  501    0 -0.12079907012E+03 -0.52759879158E+02  0.19672246330E+03  0.29326566072E+03  0.17300000000E+03 0.  1.
         -6    1    1    2    0  502  0.12079907012E+03  0.52759879158E+02  0.35251995503E+03  0.41421653623E+03  0.17300000000E+03 0.  1.
<mgrwt>
<rscale>  2 0.21749717E+03</rscale>
<asrwt>0</asrwt>
<pdfrwt beam="1">  1       21 0.96671121E-01 0.21749717E+03</pdfrwt>
<pdfrwt beam="2">  1       21 0.12172291E-01 0.21749717E+03</pdfrwt>
<totfact> 0.50241277E+04</totfact>
</mgrwt>
</event>
<event>
 4    1  0.3945814E+000  0.2153208E+03  0.7546771E-02  0.1137420E+00
         21   -1    0    0  501  502  0.00000000000E+00  0.00000000000E+00  0.15757960483E+04  0.15757960483E+04  0.00000000000E+00 0. -1.
         21   -1    0    0  502  503 -0.00000000000E+00 -0.00000000000E+00 -0.30750296567E+02  0.30750296567E+02  0.00000000000E+00 0.  1.
          6    1    1    2  501    0  0.16035794790E+01 -0.12818530714E+03  0.93947383718E+03  0.96383304321E+03  0.17300000000E+03 0. -1.
         -6    1    1    2    0  503 -0.16035794790E+01  0.12818530714E+03  0.60557191455E+03  0.64271330165E+03  0.17300000000E+03 0.  1.
<mgrwt>
<rscale>  2 0.21532079E+03</rscale>
<asrwt>0</asrwt>
<pdfrwt beam="1">  1       21 0.24243010E+00 0.21532079E+03</pdfrwt>
<pdfrwt beam="2">  1       21 0.47308161E-02 0.21532079E+03</pdfrwt>
<totfact> 0.21370600E+04</totfact>
</mgrwt>
</event>
<event>
 4    1  0.3945814E+000  0.1973317E+03  0.7546771E-02  0.1152010E+00
         21   -1    0    0  501  502  0.00000000000E+00  0.00000000000E+00  0.31513395548E+03  0.31513395548E+03  0.00000000000E+00 0. -1.
         21   -1    0    0  502  503 -0.00000000000E+00 -0.00000000000E+00 -0.13077251045E+03  0.13077251045E+03  0.00000000000E+00 0.  1.
          6    1    1    2  501    0 -0.64860310498E+02 -0.69310367050E+02  0.39841970927E+02  0.20131360984E+03  0.17300000000E+03 0.  1.
         -6    1    1    2    0  503  0.64860310498E+02  0.69310367050E+02  0.14451947410E+03  0.24459285610E+03  0.17300000000E+03 0.  1.
<mgrwt>
<rscale>  2 0.19733167E+03</rscale>
<asrwt>0</asrwt>
<pdfrwt beam="1">  1       21 0.48482147E-01 0.19733167E+03</pdfrwt>
<pdfrwt beam="2">  1       21 0.20118848E-01 0.19733167E+03</pdfrwt>
<totfact> 0.92571883E+04</totfact>
</mgrwt>
</event>
<event>
 4    1  0.3945814E+000  0.2343046E+03  0.7546771E-02  0.1123646E+00
         21   -1    0    0  501  502  0.00000000000E+00  0.00000000000E+00  0.66085148123E+03  0.66085148123E+03  0.00000000000E+00 0. -1.
         21   -1    0    0  502  503 -0.00000000000E+00 -0.00000000000E+00 -0.98682068686E+02  0.98682068686E+02  0.00000000000E+00 0. -1.
          6    1    1    2  501    0  0.68589837255E+02  0.14235547119E+03  0.43212471623E+03  0.49155916870E+03  0.17300000000E+03 0. -1.
         -6    1    1    2    0  503 -0.68589837255E+02 -0.14235547119E+03  0.13004469632E+03  0.26797438122E+03  0.17300000000E+03 0. -1.
<mgrwt>
<rscale>  2 0.23430460E+03</rscale>
<asrwt>0</asrwt>
<pdfrwt beam="1">  1       21 0.10166946E+00 0.23430460E+03</pdfrwt>
<pdfrwt beam="2">  1       21 0.15181857E-01 0.23430460E+03</pdfrwt>
<totfact> 0.29610613E+04</totfact>
</mgrwt>
</event>
<event>
 4    1  0.3945814E+000  0.1880245E+03  0.7546771E-02  0.1160255E+00
         21   -1    0    0  501  502  0.00000000000E+00  0.00000000000E+00  0.18908851331E+02  0.18908851331E+02  0.00000000000E+00 0.  1.
         21   -1    0    0  502  503 -0.00000000000E+00 -0.00000000000E+00 -0.18900899194E+04  0.18900899194E+04  0.00000000000E+00 0.  1.
          6    1    1    2  501    0 -0.70204038871E+02  0.22261777700E+02 -0.10348170912E+04  0.10517602417E+04  0.17300000000E+03 0.  1.
         -6    1    1    2    0  503  0.70204038871E+02 -0.22261777700E+02 -0.83636397695E+03  0.85723852909E+03  0.17300000000E+03 0.  1.
<mgrwt>
<rscale>  2 0.18802445E+03</rscale>
<asrwt>0</asrwt>
<pdfrwt beam="1">  1       21 0.29090536E-02 0.18802445E+03</pdfrwt>
<pdfrwt beam="2">  1       21 0.29078311E+00 0.18802445E+03</pdfrwt>
<totfact> 0.25793909E+04</totfact>
</mgrwt>
</event>
<event>
 4    1  0.3945814E+000  0.2953822E+03  0.7546771E-02  0.1087572E+00
         21   -1    0    0  501  502  0.00000000000E+00  0.00000000000E+00  0.50115769331E+03  0.50115769331E+03  0.00000000000E+00 0. -1.
         21   -1    0    0  502  503 -0.00000000000E+00 -0.00000000000E+00 -0.17478708752E+03  0.17478708752E+03  0.00000000000E+00 0. -1.
          6    1    1    2  501    0 -0.23240155894E+03  0.57542566835E+02  0.18440375726E+03  0.34821742818E+03  0.17300000000E+03 0. -1.
         -6    1    1    2    0  503  0.23240155894E+03 -0.57542566835E+02  0.14196684853E+03  0.32772735265E+03  0.17300000000E+03 0. -1.
<mgrwt>
<rscale>  2 0.29538218E+03</rscale>
<asrwt>0</asrwt>
<pdfrwt beam="1">  1       21 0.77101183E-01 0.29538218E+03</pdfrwt>
<pdfrwt beam="2">  1       21 0.26890321E-01 0.29538218E+03</pdfrwt>
<totfact> 0.18682327E+04</totfact>
</mgrwt>
</event>
<event>
 4    1  0.3945814E+000  0.2179235E+03  0.7546771E-02  0.1135441E+00
         21   -1    0    0  501  502  0.00000000000E+00  0.00000000000E+00  0.30422311070E+03  0.30422311070E+03  0.00000000000E+00 0. -1.
         21   -1    0    0  502  503 -0.00000000000E+00 -0.00000000000E+00 -0.34561314258E+03  0.34561314258E+03  0.00000000000E+00 0. -1.
          6    1    1    2  501    0  0.13003872474E+03  0.25525954999E+02  0.21990361222E+03  0.30959367400E+03  0.17300000000E+03 0. -1.
         -6    1    1    2    0  503 -0.13003872474E+03 -0.25525954999E+02 -0.26129364410E+03  0.34024257928E+03  0.17300000000E+03 0. -1.
<mgrwt>
<rscale>  2 0.21792348E+03</rscale>
<asrwt>0</asrwt>
<pdfrwt beam="1">  1       21 0.46803556E-01 0.21792348E+03</pdfrwt>
<pdfrwt beam="2">  1       21 0.53171253E-01 0.21792348E+03</pdfrwt>
<totfact> 0.14410620E+04</totfact>
</mgrwt>
</event>
<event>
 4    1  0.3945814E+000  0.1915188E+03  0.7546771E-02  0.1157099E+00
         21   -1    0    0  503  502  0.00000000000E+00  0.00000000000E+00  0.16619949850E+03  0.16619949850E+03  0.00000000000E+00 0. -1.
         21   -1    0    0  501  503 -0.00000000000E+00 -0.00000000000E+00 -0.33107640037E+03  0.33107640037E+03  0.00000000000E+00 0. -1.
          6    1    1    2  501    0  0.79633712835E+02 -0.20222254761E+02 -0.22600406416E+03  0.29623859442E+03  0.17300000000E+03 0. -1.
         -6    1    1    2    0  502 -0.79633712835E+02  0.20222254761E+02  0.61127162299E+02  0.20103730444E+03  0.17300000000E+03 0. -1.
<mgrwt>
<rscale>  2 0.19151884E+03</rscale>
<asrwt>0</asrwt>
<pdfrwt beam="1">  1       21 0.25569154E-01 0.19151884E+03</pdfrwt>
<pdfrwt beam="2">  1       21 0.50934831E-01 0.19151884E+03</pdfrwt>
<totfact> 0.53217675E+04</totfact>
</mgrwt>
</event>
<event>
 4    1  0.3945814E+000  0.2142965E+03  0.7546771E-02  0.1138208E+00
         21   -1    0    0  503  502  0.00000000000E+00  0.00000000000E+00  0.37527989725E+03  0.37527989725E+03  0.00000000000E+00 0.  1.
         21   -1    0    0  501  503 -0.00000000000E+00 -0.00000000000E+00 -0.24113179936E+03  0.24113179936E+03  0.00000000000E+00 0.  1.
          6    1    1    2  501    0 -0.24704984382E+02 -0.12403092972E+03 -0.14922369192E+03  0.26113352525E+03  0.17300000000E+03 0.  1.
         -6    1    1    2    0  502  0.24704984382E+02  0.12403092972E+03  0.28337178981E+03  0.35527817136E+03  0.17300000000E+03 0.  1.
<mgrwt>
<rscale>  2 0.21429654E+03</rscale>
<asrwt>0</asrwt>
<pdfrwt beam="1">  1       21 0.57735369E-01 0.21429654E+03</pdfrwt>
<pdfrwt beam="2">  1       21 0.37097200E-01 0.21429654E+03</pdfrwt>
<totfact> 0.19466334E+04</totfact>
</mgrwt>
</event>
<event>
 4    1  0.3945814E+000  0.2164103E+03  0.7546771E-02  0.1136588E+00
         21   -1    0    0  501  502  0.00000000000E+00  0.00000000000E+00  0.19954436586E+03  0.19954436586E+03  0.00000000000E+00 0.  1.
         21   -1    0    0  502  503 -0.00000000000E+00 -0.00000000000E+00 -0.23556759925E+03  0.23556759925E+03  0.00000000000E+00 0.  1.
          6    1    1    2  501    0 -0.91007739167E+02  0.92854847176E+02 -0.31200561698E+02  0.21864790482E+03  0.17300000000E+03 0.  1.
         -6    1    1    2    0  503  0.91007739167E+02 -0.92854847176E+02 -0.48226716894E+01  0.21646406028E+03  0.17300000000E+03 0.  1.
<mgrwt>
<rscale>  2 0.21641033E+03</rscale>
<asrwt>0</asrwt>
<pdfrwt beam="1">  1       21 0.30699133E-01 0.21641033E+03</pdfrwt>
<pdfrwt beam="2">  1       21 0.36241169E-01 0.21641033E+03</pdfrwt>
<totfact> 0.74042020E+04</totfact>
</mgrwt>
</event>
<event>
 4    1  0.3945814E+000  0.2191358E+03  0.7546771E-02  0.1134529E+00
         21   -1    0    0  501  502  0.00000000000E+00  0.00000000000E+00  0.79771702550E+03  0.79771702550E+03  0.00000000000E+00 0. -1.
         21   -1    0    0  502  503 -0.00000000000E+00 -0.00000000000E+00 -0.78476847821E+02  0.78476847821E+02  0.00000000000E+00 0.  1.
          6    1    1    2  501    0 -0.66399587822E+02  0.11697254118E+03  0.57105715776E+03  0.61165902109E+03  0.17300000000E+03 0. -1.
         -6    1    1    2    0  503  0.66399587822E+02 -0.11697254118E+03  0.14818301992E+03  0.26453485223E+03  0.17300000000E+03 0.  1.
<mgrwt>
<rscale>  2 0.21913576E+03</rscale>
<asrwt>0</asrwt>
<pdfrwt beam="1">  1       21 0.12272569E+00 0.21913576E+03</pdfrwt>
<pdfrwt beam="2">  1       21 0.12073362E-01 0.21913576E+03</pdfrwt>
<totfact> 0.28545074E+04</totfact>
</mgrwt>
</event>
<event>
 4    1  0.3945814E+000  0.2007281E+03  0.7546771E-02  0.1149126E+00
         21   -1    0    0  501  502  0.00000000000E+00  0.00000000000E+00  0.36006691504E+02  0.36006691504E+02  0.00000000000E+00 0. -1.
         21   -1    0    0  502  503 -0.00000000000E+00 -0.00000000000E+00 -0.18152660242E+04  0.18152660242E+04  0.00000000000E+00 0. -1.
          6    1    1    2  501    0 -0.40545594506E+02  0.93374667832E+02 -0.31636471630E+03  0.37467106580E+03  0.17300000000E+03 0. -1.
         -6    1    1    2    0  503  0.40545594506E+02 -0.93374667832E+02 -0.14628946164E+04  0.14766016499E+04  0.17300000000E+03 0. -1.
<mgrwt>
<rscale>  2 0.20072811E+03</rscale>
<asrwt>0</asrwt>
<pdfrwt beam="1">  1       21 0.55394920E-02 0.20072811E+03</pdfrwt>
<pdfrwt beam="2">  1       21 0.27927165E+00 0.20072811E+03</pdfrwt>
<totfact> 0.10072035E+04</totfact>
</mgrwt>
</event>
<event>
 4    1  0.3945814E+000  0.2430553E+03  0.7546771E-02  0.1117774E+00
         21   -1    0    0  503  502  0.00000000000E+00  0.00000000000E+00  0.82518093996E+03  0.82518093996E+03  0.00000000000E+00 0.  1.
         21   -1    0    0  501  503 -0.00000000000E+00 -0.00000000000E+00 -0.12112605261E+03  0.12112605261E+03  0.00000000000E+00 0. -1.
          6    1    1    2  501    0 -0.80533510554E+02  0.15053655407E+03  0.49449260521E+02  0.24803453348E+03  0.17300000000E+03 0. -1.
         -6    1    1    2    0  502  0.80533510554E+02 -0.15053655407E+03  0.65460562683E+03  0.69827245908E+03  0.17300000000E+03 0.  1.
<mgrwt>
<rscale>  2 0.24305534E+03</rscale>
<asrwt>0</asrwt>
<pdfrwt beam="1">  1       21 0.12695091E+00 0.24305534E+03</pdfrwt>
<pdfrwt beam="2">  1       21 0.18634778E-01 0.24305534E+03</pdfrwt>
<totfact> 0.11691263E+04</totfact>
</mgrwt>
</event>
<event>
 4    1  0.3945814E+000  0.1913367E+03  0.7546771E-02  0.1157261E+00
         21   -1    0    0  501  502  0.00000000000E+00  0.00000000000E+00  0.26081622042E+03  0.26081622042E+03  0.00000000000E+00 0. -1.
         21   -1    0    0  502  503 -0.00000000000E+00 -0.00000000000E+00 -0.14057155088E+03  0.14057155088E+03  0.00000000000E+00 0. -1.
          6    1    1    2  501    0 -0.77419181244E+02  0.26210646775E+02  0.67796887113E+02  0.20299296917E+03  0.17300000000E+03 0. -1.
         -6    1    1    2    0  503  0.77419181244E+02 -0.26210646775E+02  0.52447782428E+02  0.19839480213E+03  0.17300000000E+03 0. -1.
<mgrwt>
<rscale>  2 0.19133669E+03</rscale>
<asrwt>0</asrwt>
<pdfrwt beam="1">  1       21 0.40125572E-01 0.19133669E+03</pdfrwt>
<pdfrwt beam="2">  1       21 0.21626392E-01 0.19133669E+03</pdfrwt>
<totfact> 0.11938695E+05</totfact>
</mgrwt>
</event>
<event>
 4    1  0.3945814E+000  0.2567004E+03  0.7546771E-02  0.1109142E+00
         21   -1    0    0  503  502  0.00000000000E+00  0.00000000000E+00  0.33129192338E+03  0.33129192338E+03  0.00000000000E+00 0. -1.
         21   -1    0    0  501  503 -0.00000000000E+00 -0.00000000000E+00 -0.33132237463E+03  0.33132237463E+03  0.00000000000E+00 0. -1.
          6    1    1    2  501    0  0.12824290488E+03 -0.13971341087E+03 -0.20946533188E+03  0.33131677454E+03  0.17300000000E+03 0. -1.
         -6    1    1    2    0  502 -0.12824290488E+03  0.13971341087E+03  0.20943488064E+03  0.33129752347E+03  0.17300000000E+03 0. -1.
<mgrwt>
<rscale>  2 0.25670037E+03</rscale>
<asrwt>0</asrwt>
<pdfrwt beam="1">  1       21 0.50967988E-01 0.25670037E+03</pdfrwt>
<pdfrwt beam="2">  1       21 0.50972673E-01 0.25670037E+03</pdfrwt>
<totfact> 0.12906511E+04</totfact>
</mgrwt>
</event>
<event>
 4    1  0.3945814E+000  0.1914840E+03  0.7546771E-02  0.1157130E+00
         21   -1    0    0  501  502  0.00000000000E+00  0.00000000000E+00  0.44262136375E+03  0.44262136375E+03  0.00000000000E+00 0.  1.
         21   -1    0    0  502  503 -0.00000000000E+00 -0.00000000000E+00 -0.87946345876E+02  0.87946345876E+02  0.00000000000E+00 0.  1.
          6    1    1    2  501    0 -0.11641735246E+02  0.81250094844E+02  0.24126962459E+03  0.30802132988E+03  0.17300000000E+03 0.  1.
         -6    1    1    2    0  503  0.11641735246E+02 -0.81250094844E+02  0.11340539329E+03  0.22254637975E+03  0.17300000000E+03 0.  1.
<mgrwt>
<rscale>  2 0.19148396E+03</rscale>
<asrwt>0</asrwt>
<pdfrwt beam="1">  1       21 0.68095594E-01 0.19148396E+03</pdfrwt>
<pdfrwt beam="2">  1       21 0.13530207E-01 0.19148396E+03</pdfrwt>
<totfact> 0.93162292E+04</totfact>
</mgrwt>
</event>
<event>
 4    1  0.3945814E+000  0.2509366E+03  0.7546771E-02  0.1112714E+00
         21   -1    0    0  501  502  0.00000000000E+00  0.00000000000E+00  0.15484600432E+04  0.15484600432E+04  0.00000000000E+00 0.  1.
         21   -1    0    0  502  503 -0.00000000000E+00 -0.00000000000E+00 -0.47175035123E+02  0.47175035123E+02  0.00000000000E+00 0.  1.
          6    1    1    2  501    0  0.14466095362E+03  0.11006075970E+03  0.45428437791E+03  0.51898310025E+03  0.17300000000E+03 0.  1.
         -6    1    1    2    0  503 -0.14466095362E+03 -0.11006075970E+03  0.10470006301E+04  0.10766519781E+04  0.17300000000E+03 0.  1.
<mgrwt>
<rscale>  2 0.25093657E+03</rscale>
<asrwt>0</asrwt>
<pdfrwt beam="1">  1       21 0.23822458E+00 0.25093657E+03</pdfrwt>
<pdfrwt beam="2">  1       21 0.72576989E-02 0.25093657E+03</pdfrwt>
<totfact> 0.10575292E+04</totfact>
</mgrwt>
</event>
<event>
 4    1  0.3945814E+000  0.1889147E+03  0.7546771E-02  0.1159444E+00
         21   -1    0    0  501  502  0.00000000000E+00  0.00000000000E+00  0.27965864765E+03  0.27965864765E+03  0.00000000000E+00 0.  1.
         21   -1    0    0  502  503 -0.00000000000E+00 -0.00000000000E+00 -0.20489621678E+03  0.20489621678E+03  0.00000000000E+00 0.  1.
          6    1    1    2  501    0 -0.66019988214E+02  0.37431546572E+02  0.18617395848E+03  0.26523480605E+03  0.17300000000E+03 0.  1.
         -6    1    1    2    0  503  0.66019988214E+02 -0.37431546572E+02 -0.11141152761E+03  0.21932005838E+03  0.17300000000E+03 0.  1.
<mgrwt>
<rscale>  2 0.18891469E+03</rscale>
<asrwt>0</asrwt>
<pdfrwt beam="1">  1       21 0.43024407E-01 0.18891469E+03</pdfrwt>
<pdfrwt beam="2">  1       21 0.31522495E-01 0.18891469E+03</pdfrwt>
<totfact> 0.50340157E+04</totfact>
</mgrwt>
</event>
<event>
 4    1  0.3945814E+000  0.1824380E+03  0.7546771E-02  0.1165464E+00
         21   -1    0    0  503  502  0.00000000000E+00  0.00000000000E+00  0.13265178560E+04  0.13265178560E+04  0.00000000000E+00 0.  1.
         21   -1    0    0  501  503 -0.00000000000E+00 -0.00000000000E+00 -0.65004316807E+02  0.65004316807E+02  0.00000000000E+00 0.  1.
          6    1    1    2  501    0  0.53915522134E+02 -0.21160304960E+02  0.85566598676E+02  0.20150753048E+03  0.17300000000E+03 0.  1.
         -6    1    1    2    0  502 -0.53915522134E+02  0.21160304960E+02  0.11759469405E+04  0.11900146423E+04  0.17300000000E+03 0.  1.
<mgrwt>
<rscale>  2 0.18243805E+03</rscale>
<asrwt>0</asrwt>
<pdfrwt beam="1">  1       21 0.20407965E+00 0.18243805E+03</pdfrwt>
<pdfrwt beam="2">  1       21 0.10000665E-01 0.18243805E+03</pdfrwt>
<totfact> 0.10350389E+04</totfact>
</mgrwt>
</event>
<event>
 4    1  0.3945814E+000  0.4644125E+03  0.7546771E-02  0.1023509E+00
         21   -1    0    0  503  502  0.00000000000E+00  0.00000000000E+00  0.38521938062E+03  0.38521938062E+03  0.00000000000E+00 0.  1.
         21   -1    0    0  501  503 -0.00000000000E+00 -0.00000000000E+00 -0.56753831636E+03  0.56753831636E+03  0.00000000000E+00 0. -1.
          6    1    1    2  501    0 -0.18550258495E+03 -0.38902282244E+03 -0.14647528425E+03  0.48696403799E+03  0.17300000000E+03 0.  1.
         -6    1    1    2    0  502  0.18550258495E+03  0.38902282244E+03 -0.35843651489E+02  0.46579365898E+03  0.17300000000E+03 0.  1.
<mgrwt>
<rscale>  2 0.46441249E+03</rscale>
<asrwt>0</asrwt>
<pdfrwt beam="1">  1       21 0.59264520E-01 0.46441249E+03</pdfrwt>
<pdfrwt beam="2">  1       21 0.87313587E-01 0.46441249E+03</pdfrwt>
<totfact> 0.25883720E+03</totfact>
</mgrwt>
</event>
<event>
 4    1  0.3945814E+000  0.1908189E+03  0.7546771E-02  0.1157725E+00
         21   -1    0    0  503  502  0.00000000000E+00  0.00000000000E+00  0.17113855397E+03  0.17113855397E+03  0.00000000000E+00 0.  1.
         21   -1    0    0  501  503 -0.00000000000E+00 -0.00000000000E+00 -0.21443919227E+03  0.21443919227E+03  0.00000000000E+00 0. -1.
          6    1    1    2  501    0  0.54325530492E+02 -0.59427176618E+02 -0.38698072871E+02  0.19470334724E+03  0.17300000000E+03 0. -1.
         -6    1    1    2    0  502 -0.54325530492E+02  0.59427176618E+02 -0.46025654322E+01  0.19087439900E+03  0.17300000000E+03 0. -1.
<mgrwt>
<rscale>  2 0.19081890E+03</rscale>
<asrwt>0</asrwt>
<pdfrwt beam="1">  1       21 0.26329008E-01 0.19081890E+03</pdfrwt>
<pdfrwt beam="2">  1       21 0.32990645E-01 0.19081890E+03</pdfrwt>
<totfact> 0.12141630E+05</totfact>
</mgrwt>
</event>
<event>
 4    1  0.3945814E+000  0.1924207E+03  0.7546771E-02  0.1156296E+00
         21   -1    0    0  501  502  0.00000000000E+00  0.00000000000E+00  0.45307920089E+02  0.45307920089E+02  0.00000000000E+00 0. -1.
         21   -1    0    0  502  503 -0.00000000000E+00 -0.00000000000E+00 -0.99197382265E+03  0.99197382265E+03  0.00000000000E+00 0. -1.
          6    1    1    2  501    0 -0.81766829264E+02  0.20270847287E+02 -0.25563598566E+03  0.31996168331E+03  0.17300000000E+03 0. -1.
         -6    1    1    2    0  503  0.81766829264E+02 -0.20270847287E+02 -0.69102991690E+03  0.71732005944E+03  0.17300000000E+03 0. -1.
<mgrwt>
<rscale>  2 0.19242069E+03</rscale>
<asrwt>0</asrwt>
<pdfrwt beam="1">  1       21 0.69704503E-02 0.19242069E+03</pdfrwt>
<pdfrwt beam="2">  1       21 0.15261134E+00 0.19242069E+03</pdfrwt>
<totfact> 0.43525270E+04</totfact>
</mgrwt>
</event>
<event>
 4    1  0.3945814E+000  0.1785138E+03  0.7546771E-02  0.1169249E+00
         21   -1    0    0  503  502  0.00000000000E+00  0.00000000000E+00  0.87872276668E+02  0.87872276668E+02  0.00000000000E+00 0.  1.
         21   -1    0    0  501  503 -0.00000000000E+00 -0.00000000000E+00 -0.50728300180E+03  0.50728300180E+03  0.00000000000E+00 0. -1.
          6    1    1    2  501    0  0.28580990062E+01  0.43932057898E+02 -0.36859789460E+03  0.40955048815E+03  0.17300000000E+03 0. -1.
         -6    1    1    2    0  502 -0.28580990062E+01 -0.43932057898E+02 -0.50812830528E+02  0.18560479031E+03  0.17300000000E+03 0.  1.
<mgrwt>
<rscale>  2 0.17851385E+03</rscale>
<asrwt>0</asrwt>
<pdfrwt beam="1">  1       21 0.13518812E-01 0.17851385E+03</pdfrwt>
<pdfrwt beam="2">  1       21 0.78043539E-01 0.17851385E+03</pdfrwt>
<totfact> 0.69318823E+04</totfact>
</mgrwt>
</event>
<event>
 4    1  0.3945814E+000  0.2735354E+03  0.7546771E-02  0.1099273E+00
         21   -1    0    0  503  502  0.00000000000E+00  0.00000000000E+00  0.33579578710E+03  0.33579578710E+03  0.00000000000E+00 0.  1.
         21   -1    0    0  501  503 -0.00000000000E+00 -0.00000000000E+00 -0.28170336077E+03  0.28170336077E+03  0.00000000000E+00 0. -1.
          6    1    1    2  501    0 -0.21186207229E+03  0.26634025683E+01 -0.11411353843E+03  0.29638409377E+03  0.17300000000E+03 0. -1.
         -6    1    1    2    0  502  0.21186207229E+03 -0.26634025683E+01  0.16820596476E+03  0.32111505410E+03  0.17300000000E+03 0.  1.
<mgrwt>
<rscale>  2 0.27353543E+03</rscale>
<asrwt>0</asrwt>
<pdfrwt beam="1">  1       21 0.51660891E-01 0.27353543E+03</pdfrwt>
<pdfrwt beam="2">  1       21 0.43338978E-01 0.27353543E+03</pdfrwt>
<totfact> 0.17445495E+04</totfact>
</mgrwt>
</event>
<event>
 4    1  0.3945814E+000  0.1859224E+03  0.7546771E-02  0.1162191E+00
         21   -1    0    0  501  502  0.00000000000E+00  0.00000000000E+00  0.38110839983E+02  0.38110839983E+02  0.00000000000E+00 0.  1.
         21   -1    0    0  502  503 -0.00000000000E+00 -0.00000000000E+00 -0.10671109241E+04  0.10671109241E+04  0.00000000000E+00 0.  1.
          6    1    1    2  501    0  0.57872812237E+02 -0.35900979175E+02 -0.30045587696E+03  0.35332828460E+03  0.17300000000E+03 0. -1.
         -6    1    1    2    0  503 -0.57872812237E+02  0.35900979175E+02 -0.72854420720E+03  0.75189347953E+03  0.17300000000E+03 0. -1.
<mgrwt>
<rscale>  2 0.18592241E+03</rscale>
<asrwt>0</asrwt>
<pdfrwt beam="1">  1       21 0.58632062E-02 0.18592241E+03</pdfrwt>
<pdfrwt beam="2">  1       21 0.16417091E+00 0.18592241E+03</pdfrwt>
<totfact> 0.48340230E+04</totfact>
</mgrwt>
</event>
<event>
 4    1  0.3945814E+000  0.1920643E+03  0.7546771E-02  0.1156613E+00
         21   -1    0    0  503  502  0.00000000000E+00  0.00000000000E+00  0.47099476906E+02  0.47099476906E+02  0.00000000000E+00 0. -1.
         21   -1    0    0  501  503 -0.00000000000E+00 -0.00000000000E+00 -0.81978559571E+03  0.81978559571E+03  0.00000000000E+00 0. -1.
          6    1    1    2  501    0  0.77597790831E+02 -0.30631568876E+02 -0.29478721753E+03  0.35183549249E+03  0.17300000000E+03 0.  1.
         -6    1    1    2    0  502 -0.77597790831E+02  0.30631568876E+02 -0.47789890127E+03  0.51504958013E+03  0.17300000000E+03 0.  1.
<mgrwt>
<rscale>  2 0.19206434E+03</rscale>
<asrwt>0</asrwt>
<pdfrwt beam="1">  1       21 0.72460732E-02 0.19206434E+03</pdfrwt>
<pdfrwt beam="2">  1       21 0.12612086E+00 0.19206434E+03</pdfrwt>
<totfact> 0.66492372E+04</totfact>
</mgrwt>
</event>
<event>
 4    1  0.3945814E+000  0.2514012E+03  0.7546771E-02  0.1112422E+00
         21   -1    0    0  501  502  0.00000000000E+00  0.00000000000E+00  0.90273351971E+03  0.90273351971E+03  0.00000000000E+00 0.  1.
         21   -1    0    0  502  503 -0.00000000000E+00 -0.00000000000E+00 -0.14260844147E+03  0.14260844147E+03  0.00000000000E+00 0.  1.
          6    1    1    2  501    0  0.18240784209E+03  0.96776135212E+00  0.75297954149E+03  0.79383924526E+03  0.17300000000E+03 0.  1.
         -6    1    1    2    0  503 -0.18240784209E+03 -0.96776135212E+00  0.71455367576E+01  0.25150271592E+03  0.17300000000E+03 0.  1.
<mgrwt>
<rscale>  2 0.25140119E+03</rscale>
<asrwt>0</asrwt>
<pdfrwt beam="1">  1       21 0.13888208E+00 0.25140119E+03</pdfrwt>
<pdfrwt beam="2">  1       21 0.21939761E-01 0.25140119E+03</pdfrwt>
<totfact> 0.67989089E+03</totfact>
</mgrwt>
</event>
<event>
 4    1  0.3945814E+000  0.1768410E+03  0.7546771E-02  0.1170896E+00
         21   -1    0    0  501  502  0.00000000000E+00  0.00000000000E+00  0.25665317723E+03  0.25665317723E+03  0.00000000000E+00 0.  1.
         21   -1    0    0  502  503 -0.00000000000E+00 -0.00000000000E+00 -0.36928873924E+03  0.36928873924E+03  0.00000000000E+00 0.  1.
          6    1    1    2  501    0  0.22147701410E+02 -0.29209697643E+02  0.19986883422E+03  0.26687127610E+03  0.17300000000E+03 0.  1.
         -6    1    1    2    0  503 -0.22147701410E+02  0.29209697643E+02 -0.31250439623E+03  0.35907064037E+03  0.17300000000E+03 0.  1.
<mgrwt>
<rscale>  2 0.17684097E+03</rscale>
<asrwt>0</asrwt>
<pdfrwt beam="1">  1       21 0.39485105E-01 0.17684097E+03</pdfrwt>
<pdfrwt beam="2">  1       21 0.56813652E-01 0.17684097E+03</pdfrwt>
<totfact> 0.18179595E+04</totfact>
</mgrwt>
</event>
<event>
 4    1  0.3945814E+000  0.2084893E+03  0.7546771E-02  0.1142768E+00
         21   -1    0    0  501  502  0.00000000000E+00  0.00000000000E+00  0.47373748337E+03  0.47373748337E+03  0.00000000000E+00 0. -1.
         21   -1    0    0  502  503 -0.00000000000E+00 -0.00000000000E+00 -0.18100600563E+03  0.18100600563E+03  0.00000000000E+00 0.  1.
          6    1    1    2  501    0  0.79188269150E+02 -0.85252648271E+02  0.37624574051E+03  0.43014957080E+03  0.17300000000E+03 0. -1.
         -6    1    1    2    0  503 -0.79188269150E+02  0.85252648271E+02 -0.83514262773E+02  0.22459391821E+03  0.17300000000E+03 0.  1.
<mgrwt>
<rscale>  2 0.20848932E+03</rscale>
<asrwt>0</asrwt>
<pdfrwt beam="1">  1       21 0.72882689E-01 0.20848932E+03</pdfrwt>
<pdfrwt beam="2">  1       21 0.27847078E-01 0.20848932E+03</pdfrwt>
<totfact> 0.20669677E+04</totfact>
</mgrwt>
</event>
<event>
 4    1  0.3945814E+000  0.2151358E+03  0.7546771E-02  0.1137562E+00
         21   -1    0    0  501  502  0.00000000000E+00  0.00000000000E+00  0.34555024906E+03  0.34555024906E+03  0.00000000000E+00 0. -1.
         21   -1    0    0  502  503 -0.00000000000E+00 -0.00000000000E+00 -0.19813311022E+03  0.19813311022E+03  0.00000000000E+00 0. -1.
          6    1    1    2  501    0 -0.12701970162E+03  0.14845438035E+02  0.22843976996E+03  0.31379630357E+03  0.17300000000E+03 0. -1.
         -6    1    1    2    0  503  0.12701970162E+03 -0.14845438035E+02 -0.81022631122E+02  0.22988705571E+03  0.17300000000E+03 0. -1.
<mgrwt>
<rscale>  2 0.21513575E+03</rscale>
<asrwt>0</asrwt>
<pdfrwt beam="1">  1       21 0.53161576E-01 0.21513575E+03</pdfrwt>
<pdfrwt beam="2">  1       21 0.30482017E-01 0.21513575E+03</pdfrwt>
<totfact> 0.34211395E+04</totfact>
</mgrwt>
</event>
<event>
 4    1  0.3945814E+000  0.2295294E+03  0.7546771E-02  0.1126971E+00
         21   -1    0    0  503  502  0.00000000000E+00  0.00000000000E+00  0.54807654827E+03  0.54807654827E+03  0.00000000000E+00 0. -1.
         21   -1    0    0  501  503 -0.00000000000E+00 -0.00000000000E+00 -0.15417956518E+03  0.15417956518E+03  0.00000000000E+00 0. -1.
          6    1    1    2  501    0  0.13634221806E+03 -0.64540991574E+02 -0.18513723139E+02  0.23027483137E+03  0.17300000000E+03 0. -1.
         -6    1    1    2    0  502 -0.13634221806E+03  0.64540991574E+02  0.41241070623E+03  0.47198128208E+03  0.17300000000E+03 0. -1.
<mgrwt>
<rscale>  2 0.22952939E+03</rscale>
<asrwt>0</asrwt>
<pdfrwt beam="1">  1       21 0.84319468E-01 0.22952939E+03</pdfrwt>
<pdfrwt beam="2">  1       21 0.23719933E-01 0.22952939E+03</pdfrwt>
<totfact> 0.19998923E+04</totfact>
</mgrwt>
</event>
<event>
 4    1  0.3945814E+000  0.1882179E+03  0.7546771E-02  0.1160079E+00
         21   -1    0    0  501  502  0.00000000000E+00  0.00000000000E+00  0.16258899799E+03  0.16258899799E+03  0.00000000000E+00 0. -1.
         21   -1    0    0  502  503 -0.00000000000E+00 -0.00000000000E+00 -0.33423108644E+03  0.33423108644E+03  0.00000000000E+00 0. -1.
          6    1    1    2  501    0 -0.13453400841E+02  0.72910888191E+02  0.60739920297E+02  0.19777595791E+03  0.17300000000E+03 0. -1.
         -6    1    1    2    0  503  0.13453400841E+02 -0.72910888191E+02 -0.23238200875E+03  0.29904412651E+03  0.17300000000E+03 0. -1.
<mgrwt>
<rscale>  2 0.18821794E+03</rscale>
<asrwt>0</asrwt>
<pdfrwt beam="1">  1       21 0.25013692E-01 0.18821794E+03</pdfrwt>
<pdfrwt beam="2">  1       21 0.51420167E-01 0.18821794E+03</pdfrwt>
<totfact> 0.54488983E+04</totfact>
</mgrwt>
</event>
<event>
 4    1  0.3945814E+000  0.2283373E+03  0.7546771E-02  0.1127816E+00
         21   -1    0    0  501  502  0.00000000000E+00  0.00000000000E+00  0.43358291605E+02  0.43358291605E+02  0.00000000000E+00 0. -1.
         21   -1    0    0  502  503 -0.00000000000E+00 -0.00000000000E+00 -0.13047345602E+04  0.13047345602E+04  0.00000000000E+00 0. -1.
          6    1    1    2  501    0  0.14799115441E+03  0.17537473027E+02 -0.44199885212E+03  0.49749465326E+03  0.17300000000E+03 0. -1.
         -6    1    1    2    0  503 -0.14799115441E+03 -0.17537473027E+02 -0.81937741643E+03  0.85059819851E+03  0.17300000000E+03 0. -1.
<mgrwt>
<rscale>  2 0.22833735E+03</rscale>
<asrwt>0</asrwt>
<pdfrwt beam="1">  1       21 0.66705056E-02 0.22833735E+03</pdfrwt>
<pdfrwt beam="2">  1       21 0.20072842E+00 0.22833735E+03</pdfrwt>
<totfact> 0.21284158E+04</totfact>
</mgrwt>
</event>
<event>
 4    1  0.3945814E+000  0.3579004E+03  0.7546771E-02  0.1059418E+00
         21   -1    0    0  501  502  0.00000000000E+00  0.00000000000E+00  0.30704530912E+03  0.30704530912E+03  0.00000000000E+00 0.  1.
         21   -1    0    0  502  503 -0.00000000000E+00 -0.00000000000E+00 -0.44284981451E+03  0.44284981451E+03  0.00000000000E+00 0. -1.
          6    1    1    2  501    0 -0.27375024753E+03  0.15239597286E+03 -0.15817684858E+03  0.39129611038E+03  0.17300000000E+03 0. -1.
         -6    1    1    2    0  503  0.27375024753E+03 -0.15239597286E+03  0.22372343194E+02  0.35859901326E+03  0.17300000000E+03 0.  1.
<mgrwt>
<rscale>  2 0.35790045E+03</rscale>
<asrwt>0</asrwt>
<pdfrwt beam="1">  1       21 0.47237740E-01 0.35790045E+03</pdfrwt>
<pdfrwt beam="2">  1       21 0.68130741E-01 0.35790045E+03</pdfrwt>
<totfact> 0.77232185E+03</totfact>
</mgrwt>
</event>
<event>
 4    1  0.3945814E+000  0.1950529E+03  0.7546771E-02  0.1153981E+00
         21   -1    0    0  501  502  0.00000000000E+00  0.00000000000E+00  0.21224390550E+04  0.21224390550E+04  0.00000000000E+00 0.  1.
         21   -1    0    0  502  503 -0.00000000000E+00 -0.00000000000E+00 -0.18543604754E+02  0.18543604754E+02  0.00000000000E+00 0. -1.
          6    1    1    2  501    0  0.34432586549E+02 -0.83252791841E+02  0.85649483636E+03  0.87842417719E+03  0.17300000000E+03 0.  1.
         -6    1    1    2    0  503 -0.34432586549E+02  0.83252791841E+02  0.12474006139E+04  0.12625584826E+04  0.17300000000E+03 0.  1.
<mgrwt>
<rscale>  2 0.19505289E+03</rscale>
<asrwt>0</asrwt>
<pdfrwt beam="1">  1       21 0.32652889E+00 0.19505289E+03</pdfrwt>
<pdfrwt beam="2">  1       21 0.28528639E-02 0.19505289E+03</pdfrwt>
<totfact> 0.16451339E+04</totfact>
</mgrwt>
</event>
<event>
 4    1  0.3945814E+000  0.1999171E+03  0.7546771E-02  0.1149809E+00
         21   -1    0    0  501  502  0.00000000000E+00  0.00000000000E+00  0.20803282708E+03  0.20803282708E+03  0.00000000000E+00 0. -1.
         21   -1    0    0  502  503 -0.00000000000E+00 -0.00000000000E+00 -0.41570642000E+03  0.41570642000E+03  0.00000000000E+00 0. -1.
          6    1    1    2  501    0 -0.10010910239E+03 -0.40016123053E+01  0.12488333338E+03  0.23571739910E+03  0.17300000000E+03 0. -1.
         -6    1    1    2    0  503  0.10010910239E+03  0.40016123053E+01 -0.33255692629E+03  0.38802184798E+03  0.17300000000E+03 0. -1.
<mgrwt>
<rscale>  2 0.19991710E+03</rscale>
<asrwt>0</asrwt>
<pdfrwt beam="1">  1       21 0.32005051E-01 0.19991710E+03</pdfrwt>
<pdfrwt beam="2">  1       21 0.63954833E-01 0.19991710E+03</pdfrwt>
<totfact> 0.21105998E+04</totfact>
</mgrwt>
</event>
<event>
 4    1  0.3945814E+000  0.2610282E+03  0.7546771E-02  0.1106527E+00
         21   -1    0    0  501  502  0.00000000000E+00  0.00000000000E+00  0.46666631979E+03  0.46666631979E+03  0.00000000000E+00 0. -1.
         21   -1    0    0  502  503 -0.00000000000E+00 -0.00000000000E+00 -0.16909742548E+03  0.16909742548E+03  0.00000000000E+00 0.  1.
          6    1    1    2  501    0 -0.18081829299E+03 -0.74239207328E+02  0.26625527959E+03  0.37286403540E+03  0.17300000000E+03 0. -1.
         -6    1    1    2    0  503  0.18081829299E+03  0.74239207328E+02  0.31313614715E+02  0.26289970987E+03  0.17300000000E+03 0.  1.
<mgrwt>
<rscale>  2 0.26102819E+03</rscale>
<asrwt>0</asrwt>
<pdfrwt beam="1">  1       21 0.71794818E-01 0.26102819E+03</pdfrwt>
<pdfrwt beam="2">  1       21 0.26014989E-01 0.26102819E+03</pdfrwt>
<totfact> 0.23735958E+04</totfact>
</mgrwt>
</event>
<event>
 4    1  0.3945814E+000  0.2072321E+03  0.7546771E-02  0.1143777E+00
         21   -1    0    0  501  502  0.00000000000E+00  0.00000000000E+00  0.18566143230E+03  0.18566143230E+03  0.00000000000E+00 0.  1.
         21   -1    0    0  502  503 -0.00000000000E+00 -0.00000000000E+00 -0.32796914738E+03  0.32796914738E+03  0.00000000000E+00 0.  1.
          6    1    1    2  501    0 -0.83692963172E+01 -0.11378096299E+03  0.68267144362E+02  0.21818697408E+03  0.17300000000E+03 0.  1.
         -6    1    1    2    0  503  0.83692963172E+01  0.11378096299E+03 -0.21057485945E+03  0.29544360560E+03  0.17300000000E+03 0.  1.
<mgrwt>
<rscale>  2 0.20723212E+03</rscale>
<asrwt>0</asrwt>
<pdfrwt beam="1">  1       21 0.28563298E-01 0.20723212E+03</pdfrwt>
<pdfrwt beam="2">  1       21 0.50456791E-01 0.20723212E+03</pdfrwt>
<totfact> 0.43508348E+04</totfact>
</mgrwt>
</event>
<event>
 4    1  0.3945814E+000  0.2196678E+03  0.7546771E-02  0.1134131E+00
         21   -1    0    0  501  502  0.00000000000E+00  0.00000000000E+00  0.28358496487E+03  0.28358496487E+03  0.00000000000E+00 0. -1.
         21   -1    0    0  502  503 -0.00000000000E+00 -0.00000000000E+00 -0.34626295360E+03  0.34626295360E+03  0.00000000000E+00 0. -1.
          6    1    1    2  501    0  0.10068701807E+03  0.90482471739E+02  0.19325067012E+03  0.29257439191E+03  0.17300000000E+03 0. -1.
         -6    1    1    2    0  503 -0.10068701807E+03 -0.90482471739E+02 -0.25592865885E+03  0.33727352656E+03  0.17300000000E+03 0. -1.
<mgrwt>
<rscale>  2 0.21966782E+03</rscale>
<asrwt>0</asrwt>
<pdfrwt beam="1">  1       21 0.43628456E-01 0.21966782E+03</pdfrwt>
<pdfrwt beam="2">  1       21 0.53271224E-01 0.21966782E+03</pdfrwt>
<totfact> 0.16573286E+04</totfact>
</mgrwt>
</event>
<event>
 4    1  0.3945814E+000  0.2016182E+03  0.7546771E-02  0.1148381E+00
         21   -1    0    0  503  502  0.00000000000E+00  0.00000000000E+00  0.10195543925E+04  0.10195543925E+04  0.00000000000E+00 0.  1.
         21   -1    0    0  501  503 -0.00000000000E+00 -0.00000000000E+00 -0.98526378870E+02  0.98526378870E+02  0.00000000000E+00 0.  1.
          6    1    1    2  501    0 -0.61899053951E+02 -0.83002463424E+02  0.29170194293E+02  0.20371745642E+03  0.17300000000E+03 0.  1.
         -6    1    1    2    0  502  0.61899053951E+02  0.83002463424E+02  0.89185781930E+03  0.91436331492E+03  0.17300000000E+03 0.  1.
<mgrwt>
<rscale>  2 0.20161821E+03</rscale>
<asrwt>0</asrwt>
<pdfrwt beam="1">  1       21 0.15685451E+00 0.20161821E+03</pdfrwt>
<pdfrwt beam="2">  1       21 0.15157905E-01 0.20161821E+03</pdfrwt>
<totfact> 0.10148392E+04</totfact>
</mgrwt>
</event>
<event>
 4    1  0.3945814E+000  0.2201107E+03  0.7546771E-02  0.1133801E+00
         21   -1    0    0  501  502  0.00000000000E+00  0.00000000000E+00  0.39119126330E+03  0.39119126330E+03  0.00000000000E+00 0. -1.
         21   -1    0    0  502  503 -0.00000000000E+00 -0.00000000000E+00 -0.60299132850E+03  0.60299132850E+03  0.00000000000E+00 0. -1.
          6    1    1    2  501    0 -0.13580806222E+03  0.87118895341E+01  0.33721124379E+03  0.40269113440E+03  0.17300000000E+03 0. -1.
         -6    1    1    2    0  503  0.13580806222E+03 -0.87118895341E+01 -0.54901130899E+03  0.59149145740E+03  0.17300000000E+03 0. -1.
<mgrwt>
<rscale>  2 0.22011071E+03</rscale>
<asrwt>0</asrwt>
<pdfrwt beam="1">  1       21 0.60183271E-01 0.22011071E+03</pdfrwt>
<pdfrwt beam="2">  1       21 0.92767897E-01 0.22011071E+03</pdfrwt>
<totfact> 0.24629706E+03</totfact>
</mgrwt>
</event>
<event>
 4    1  0.3945814E+000  0.2409609E+03  0.7546771E-02  0.1119154E+00
         21   -1    0    0  501  502  0.00000000000E+00  0.00000000000E+00  0.28738663875E+03  0.28738663875E+03  0.00000000000E+00 0. -1.
         21   -1    0    0  502  503 -0.00000000000E+00 -0.00000000000E+00 -0.38475878654E+03  0.38475878654E+03  0.00000000000E+00 0.  1.
          6    1    1    2  501    0  0.11925300461E+03 -0.11794863036E+03  0.18291284395E+03  0.30252151493E+03  0.17300000000E+03 0. -1.
         -6    1    1    2    0  503 -0.11925300461E+03  0.11794863036E+03 -0.28028499174E+03  0.36962391036E+03  0.17300000000E+03 0.  1.
<mgrwt>
<rscale>  2 0.24096091E+03</rscale>
<asrwt>0</asrwt>
<pdfrwt beam="1">  1       21 0.44213329E-01 0.24096091E+03</pdfrwt>
<pdfrwt beam="2">  1       21 0.59193659E-01 0.24096091E+03</pdfrwt>
<totfact> 0.12726502E+04</totfact>
</mgrwt>
</event>
<event>
 4    1  0.3945814E+000  0.2362697E+03  0.7546771E-02  0.1122303E+00
         21   -1    0    0  501  502  0.00000000000E+00  0.00000000000E+00  0.10413103979E+04  0.10413103979E+04  0.00000000000E+00 0.  1.
         21   -1    0    0  502  503 -0.00000000000E+00 -0.00000000000E+00 -0.42509138846E+03  0.42509138846E+03  0.00000000000E+00 0. -1.
          6    1    1    2  501    0  0.75806868319E+02 -0.14194249675E+03  0.99352053586E+03  0.10212278927E+04  0.17300000000E+03 0.  1.
         -6    1    1    2    0  503 -0.75806868319E+02  0.14194249675E+03 -0.37730152648E+03  0.44517389360E+03  0.17300000000E+03 0. -1.
<mgrwt>
<rscale>  2 0.23626966E+03</rscale>
<asrwt>0</asrwt>
<pdfrwt beam="1">  1       21 0.16020160E+00 0.23626966E+03</pdfrwt>
<pdfrwt beam="2">  1       21 0.65398675E-01 0.23626966E+03</pdfrwt>
<totfact> 0.51518951E+02</totfact>
</mgrwt>
</event>
<event>
 4    1  0.3945814E+000  0.1977254E+03  0.7546771E-02  0.1151672E+00
         21   -1    0    0  503  502  0.00000000000E+00  0.00000000000E+00  0.17933914340E+04  0.17933914340E+04  0.00000000000E+00 0.  1.
         21   -1    0    0  501  503 -0.00000000000E+00 -0.00000000000E+00 -0.26092910698E+02  0.26092910698E+02  0.00000000000E+00 0.  1.
          6    1    1    2  501    0  0.92697491267E+02 -0.23948386538E+02  0.51462965800E+03  0.55130666149E+03  0.17300000000E+03 0.  1.
         -6    1    1    2    0  502 -0.92697491267E+02  0.23948386538E+02  0.12526688653E+04  0.12681776832E+04  0.17300000000E+03 0.  1.
<mgrwt>
<rscale>  2 0.19772544E+03</rscale>
<asrwt>0</asrwt>
<pdfrwt beam="1">  1       21 0.27590628E+00 0.19772544E+03</pdfrwt>
<pdfrwt beam="2">  1       21 0.40142954E-02 0.19772544E+03</pdfrwt>
<totfact> 0.18215438E+04</totfact>
</mgrwt>
</event>
<event>
 4    1  0.3945814E+000  0.2134904E+03  0.7546771E-02  0.1138831E+00
         21   -1    0    0  501  502  0.00000000000E+00  0.00000000000E+00  0.39778602142E+03  0.39778602142E+03  0.00000000000E+00 0. -1.
         21   -1    0    0  502  503 -0.00000000000E+00 -0.00000000000E+00 -0.25415185316E+03  0.25415185316E+03  0.00000000000E+00 0.  1.
          6    1    1    2  501    0 -0.97298246903E+01 -0.12471763955E+03  0.31337937361E+03  0.37918965031E+03  0.17300000000E+03 0. -1.
         -6    1    1    2    0  503  0.97298246903E+01  0.12471763955E+03 -0.16974520534E+03  0.27274822426E+03  0.17300000000E+03 0.  1.
<mgrwt>
<rscale>  2 0.21349042E+03</rscale>
<asrwt>0</asrwt>
<pdfrwt beam="1">  1       21 0.61197849E-01 0.21349042E+03</pdfrwt>
<pdfrwt beam="2">  1       21 0.39100285E-01 0.21349042E+03</pdfrwt>
<totfact> 0.15458937E+04</totfact>
</mgrwt>
</event>
<event>
 4    1  0.3945814E+000  0.1792945E+03  0.7546771E-02  0.1168488E+00
         21   -1    0    0  503  502  0.00000000000E+00  0.00000000000E+00  0.98786463922E+03  0.98786463922E+03  0.00000000000E+00 0. -1.
         21   -1    0    0  501  503 -0.00000000000E+00 -0.00000000000E+00 -0.32971355154E+02  0.32971355154E+02  0.00000000000E+00 0.  1.
          6    1    1    2  501    0  0.45728162569E+02  0.11245736296E+02  0.53573103185E+03  0.56493740354E+03  0.17300000000E+03 0. -1.
         -6    1    1    2    0  502 -0.45728162569E+02 -0.11245736296E+02  0.41916225221E+03  0.45589859083E+03  0.17300000000E+03 0.  1.
<mgrwt>
<rscale>  2 0.17929454E+03</rscale>
<asrwt>0</asrwt>
<pdfrwt beam="1">  1       21 0.15197915E+00 0.17929454E+03</pdfrwt>
<pdfrwt beam="2">  1       21 0.50725169E-02 0.17929454E+03</pdfrwt>
<totfact> 0.76318259E+04</totfact>
</mgrwt>
</event>
<event>
 4    1  0.3945814E+000  0.1758467E+03  0.7546771E-02  0.1171884E+00
         21   -1    0    0  501  502  0.00000000000E+00  0.00000000000E+00  0.55053048208E+03  0.55053048208E+03  0.00000000000E+00 0.  1.
         21   -1    0    0  502  503 -0.00000000000E+00 -0.00000000000E+00 -0.66390998584E+02  0.66390998584E+02  0.00000000000E+00 0.  1.
          6    1    1    2  501    0 -0.13774153406E+02  0.28343148224E+02  0.12102675094E+03  0.21347022227E+03  0.17300000000E+03 0.  1.
         -6    1    1    2    0  503  0.13774153406E+02 -0.28343148224E+02  0.36311273257E+03  0.40345125840E+03  0.17300000000E+03 0.  1.
<mgrwt>
<rscale>  2 0.17584670E+03</rscale>
<asrwt>0</asrwt>
<pdfrwt beam="1">  1       21 0.84696994E-01 0.17584670E+03</pdfrwt>
<pdfrwt beam="2">  1       21 0.10214000E-01 0.17584670E+03</pdfrwt>
<totfact> 0.95076631E+04</totfact>
</mgrwt>
</event>
<event>
 4    1  0.3945814E+000  0.2025766E+03  0.7546771E-02  0.1147583E+00
         21   -1    0    0  503  502  0.00000000000E+00  0.00000000000E+00  0.17351084011E+04  0.17351084011E+04  0.00000000000E+00 0.  1.
         21   -1    0    0  501  503 -0.00000000000E+00 -0.00000000000E+00 -0.35773479412E+02  0.35773479412E+02  0.00000000000E+00 0. -1.
          6    1    1    2  501    0  0.10329135796E+03  0.20956804403E+02  0.33423445977E+03  0.39083240191E+03  0.17300000000E+03 0. -1.
         -6    1    1    2    0  502 -0.10329135796E+03 -0.20956804403E+02  0.13651004619E+04  0.13800494786E+04  0.17300000000E+03 0.  1.
<mgrwt>
<rscale>  2 0.20257663E+03</rscale>
<asrwt>0</asrwt>
<pdfrwt beam="1">  1       21 0.26693969E+00 0.20257663E+03</pdfrwt>
<pdfrwt beam="2">  1       21 0.55036136E-02 0.20257663E+03</pdfrwt>
<totfact> 0.11985761E+04</totfact>
</mgrwt>
</event>
<event>
 4    1  0.3945814E+000  0.1972555E+03  0.7546771E-02  0.1152075E+00
         21   -1    0    0  503  502  0.00000000000E+00  0.00000000000E+00  0.14592243735E+04  0.14592243735E+04  0.00000000000E+00 0.  1.
         21   -1    0    0  501  503 -0.00000000000E+00 -0.00000000000E+00 -0.27669970099E+02  0.27669970099E+02  0.00000000000E+00 0.  1.
          6    1    1    2  501    0  0.86203163500E+01 -0.94373772331E+02  0.57406859139E+03  0.60701273989E+03  0.17300000000E+03 0.  1.
         -6    1    1    2    0  502 -0.86203163500E+01  0.94373772331E+02  0.85748581198E+03  0.87988160368E+03  0.17300000000E+03 0.  1.
<mgrwt>
<rscale>  2 0.19725547E+03</rscale>
<asrwt>0</asrwt>
<pdfrwt beam="1">  1       21 0.22449600E+00 0.19725547E+03</pdfrwt>
<pdfrwt beam="2">  1       21 0.42569196E-02 0.19725547E+03</pdfrwt>
<totfact> 0.33215219E+04</totfact>
</mgrwt>
</event>
<event>
 4    1  0.3945814E+000  0.1768442E+03  0.7546771E-02  0.1170893E+00
         21   -1    0    0  501  502  0.00000000000E+00  0.00000000000E+00  0.87294829377E+02  0.87294829377E+02  0.00000000000E+00 0.  1.
         21   -1    0    0  502  503 -0.00000000000E+00 -0.00000000000E+00 -0.70879153969E+03  0.70879153969E+03  0.00000000000E+00 0.  1.
          6    1    1    2  501    0 -0.28588526044E+01  0.36560759517E+02 -0.30826246794E+02  0.17951077869E+03  0.17300000000E+03 0.  1.
         -6    1    1    2    0  503  0.28588526044E+01 -0.36560759517E+02 -0.59067046352E+03  0.61657559038E+03  0.17300000000E+03 0.  1.
<mgrwt>
<rscale>  2 0.17684417E+03</rscale>
<asrwt>0</asrwt>
<pdfrwt beam="1">  1       21 0.13429974E-01 0.17684417E+03</pdfrwt>
<pdfrwt beam="2">  1       21 0.10904485E+00 0.17684417E+03</pdfrwt>
<totfact> 0.32262338E+04</totfact>
</mgrwt>
</event>
<event>
 4    1  0.3945814E+000  0.1957594E+03  0.7546771E-02  0.1153367E+00
         21   -1    0    0  503  502  0.00000000000E+00  0.00000000000E+00  0.36822723074E+03  0.36822723074E+03  0.00000000000E+00 0. -1.
         21   -1    0    0  501  503 -0.00000000000E+00 -0.00000000000E+00 -0.12877338777E+03  0.12877338777E+03  0.00000000000E+00 0.  1.
          6    1    1    2  501    0  0.39847044827E+02  0.82492058807E+02  0.10887927424E+02  0.19606191295E+03  0.17300000000E+03 0.  1.
         -6    1    1    2    0  502 -0.39847044827E+02 -0.82492058807E+02  0.22856591555E+03  0.30093870555E+03  0.17300000000E+03 0. -1.
<mgrwt>
<rscale>  2 0.19575936E+03</rscale>
<asrwt>0</asrwt>
<pdfrwt beam="1">  1       21 0.56650343E-01 0.19575936E+03</pdfrwt>
<pdfrwt beam="2">  1       21 0.19811291E-01 0.19575936E+03</pdfrwt>
<totfact> 0.68738420E+04</totfact>
</mgrwt>
</event>
<event>
 4    1  0.3945814E+000  0.2023402E+03  0.7546771E-02  0.1147779E+00
         21   -1    0    0  501  502  0.00000000000E+00  0.00000000000E+00  0.41528478194E+02  0.41528478194E+02  0.00000000000E+00 0.  1.
         21   -1    0    0  502  503 -0.00000000000E+00 -0.00000000000E+00 -0.20993567516E+04  0.20993567516E+04  0.00000000000E+00 0.  1.
          6    1    1    2  501    0 -0.41613623740E+02 -0.96337268654E+02 -0.24932936452E+03  0.32110231239E+03  0.17300000000E+03 0.  1.
         -6    1    1    2    0  503  0.41613623740E+02  0.96337268654E+02 -0.18084989088E+04  0.18197829174E+04  0.17300000000E+03 0.  1.
<mgrwt>
<rscale>  2 0.20234022E+03</rscale>
<asrwt>0</asrwt>
<pdfrwt beam="1">  1       21 0.63889978E-02 0.20234022E+03</pdfrwt>
<pdfrwt beam="2">  1       21 0.32297790E+00 0.20234022E+03</pdfrwt>
<totfact> 0.44018188E+03</totfact>
</mgrwt>
</event>
<event>
 4    1  0.3945814E+000  0.1834126E+03  0.7546771E-02  0.1164541E+00
         21   -1    0    0  503  502  0.00000000000E+00  0.00000000000E+00  0.13404556057E+03  0.13404556057E+03  0.00000000000E+00 0. -1.
         21   -1    0    0  501  503 -0.00000000000E+00 -0.00000000000E+00 -0.11469613659E+04  0.11469613659E+04  0.00000000000E+00 0. -1.
          6    1    1    2  501    0 -0.15323976271E+02 -0.58960776220E+02 -0.10725683898E+04  0.10881374675E+04  0.17300000000E+03 0. -1.
         -6    1    1    2    0  502  0.15323976271E+02  0.58960776220E+02  0.59652584444E+02  0.19286945899E+03  0.17300000000E+03 0. -1.
<mgrwt>
<rscale>  2 0.18341264E+03</rscale>
<asrwt>0</asrwt>
<pdfrwt beam="1">  1       21 0.20622394E-01 0.18341264E+03</pdfrwt>
<pdfrwt beam="2">  1       21 0.17645559E+00 0.18341264E+03</pdfrwt>
<totfact> 0.42299169E+03</totfact>
</mgrwt>
</event>
<event>
 4    1  0.3945814E+000  0.1864003E+03  0.7546771E-02  0.1161749E+00
         21   -1    0    0  503  502  0.00000000000E+00  0.00000000000E+00  0.53461275167E+03  0.53461275167E+03  0.00000000000E+00 0. -1.
         21   -1    0    0  501  503 -0.00000000000E+00 -0.00000000000E+00 -0.10175276870E+03  0.10175276870E+03  0.00000000000E+00 0. -1.
          6    1    1    2  501    0 -0.68361047342E+02 -0.11952234715E+02  0.25180214268E+02  0.18809341269E+03  0.17300000000E+03 0. -1.
         -6    1    1    2    0  502  0.68361047342E+02  0.11952234715E+02  0.40767976870E+03  0.44827210767E+03  0.17300000000E+03 0. -1.
<mgrwt>
<rscale>  2 0.18640035E+03</rscale>
<asrwt>0</asrwt>
<pdfrwt beam="1">  1       21 0.82248114E-01 0.18640035E+03</pdfrwt>
<pdfrwt beam="2">  1       21 0.15654272E-01 0.18640035E+03</pdfrwt>
<totfact> 0.47016335E+04</totfact>
</mgrwt>
</event>
<event>
 4    1  0.3945814E+000  0.1849936E+03  0.7546771E-02  0.1163056E+00
         21   -1    0    0  501  502  0.00000000000E+00  0.00000000000E+00  0.87299972646E+03  0.87299972646E+03  0.00000000000E+00 0.  1.
         21   -1    0    0  502  503 -0.00000000000E+00 -0.00000000000E+00 -0.61564972259E+02  0.61564972259E+02  0.00000000000E+00 0. -1.
          6    1    1    2  501    0  0.13950034781E+02  0.64023718809E+02  0.68735134114E+03  0.71181072359E+03  0.17300000000E+03 0.  1.
         -6    1    1    2    0  503 -0.13950034781E+02 -0.64023718809E+02  0.12408341305E+03  0.22275397513E+03  0.17300000000E+03 0. -1.
<mgrwt>
<rscale>  2 0.18499362E+03</rscale>
<asrwt>0</asrwt>
<pdfrwt beam="1">  1       21 0.13430764E+00 0.18499362E+03</pdfrwt>
<pdfrwt beam="2">  1       21 0.94715348E-02 0.18499362E+03</pdfrwt>
<totfact> 0.35698530E+04</totfact>
</mgrwt>
</event>
<event>
 4    1  0.3945814E+000  0.2097187E+03  0.7546771E-02  0.1141789E+00
         21   -1    0    0  503  502  0.00000000000E+00  0.00000000000E+00  0.87411416630E+02  0.87411416630E+02  0.00000000000E+00 0. -1.
         21   -1    0    0  501  503 -0.00000000000E+00 -0.00000000000E+00 -0.11033307075E+04  0.11033307075E+04  0.00000000000E+00 0.  1.
          6    1    1    2  501    0 -0.11105407556E+03 -0.41471757071E+02 -0.94706863174E+03  0.97001077703E+03  0.17300000000E+03 0.  1.
         -6    1    1    2    0  502  0.11105407556E+03  0.41471757071E+02 -0.68850659140E+02  0.22073134711E+03  0.17300000000E+03 0. -1.
<mgrwt>
<rscale>  2 0.20971866E+03</rscale>
<asrwt>0</asrwt>
<pdfrwt beam="1">  1       21 0.13447910E-01 0.20971866E+03</pdfrwt>
<pdfrwt beam="2">  1       21 0.16974319E+00 0.20971866E+03</pdfrwt>
<totfact> 0.10111921E+04</totfact>
</mgrwt>
</event>
<event>
 4    1  0.3945814E+000  0.2375893E+03  0.7546771E-02  0.1121409E+00
         21   -1    0    0  503  502  0.00000000000E+00  0.00000000000E+00  0.23033157573E+03  0.23033157573E+03  0.00000000000E+00 0. -1.
         21   -1    0    0  501  503 -0.00000000000E+00 -0.00000000000E+00 -0.35104418205E+03  0.35104418205E+03  0.00000000000E+00 0. -1.
          6    1    1    2  501    0  0.14222539219E+03  0.79319543873E+02 -0.22006720684E+03  0.32384908175E+03  0.17300000000E+03 0. -1.
         -6    1    1    2    0  502 -0.14222539219E+03 -0.79319543873E+02  0.99354600522E+02  0.25752667603E+03  0.17300000000E+03 0. -1.
<mgrwt>
<rscale>  2 0.23758925E+03</rscale>
<asrwt>0</asrwt>
<pdfrwt beam="1">  1       21 0.35435627E-01 0.23758925E+03</pdfrwt>
<pdfrwt beam="2">  1       21 0.54006797E-01 0.23758925E+03</pdfrwt>
<totfact> 0.24295004E+04</totfact>
</mgrwt>
</event>
<event>
 4    1  0.3945814E+000  0.2696218E+03  0.7546771E-02  0.1101496E+00
         21   -1    0    0  501  502  0.00000000000E+00  0.00000000000E+00  0.14525804076E+03  0.14525804076E+03  0.00000000000E+00 0.  1.
         21   -1    0    0  502  503 -0.00000000000E+00 -0.00000000000E+00 -0.71564556536E+03  0.71564556536E+03  0.00000000000E+00 0.  1.
          6    1    1    2  501    0 -0.43058601164E+02  0.20226924918E+03 -0.49155865012E+02  0.27406603468E+03  0.17300000000E+03 0.  1.
         -6    1    1    2    0  503  0.43058601164E+02 -0.20226924918E+03 -0.52123165959E+03  0.58683757144E+03  0.17300000000E+03 0.  1.
<mgrwt>
<rscale>  2 0.26962176E+03</rscale>
<asrwt>0</asrwt>
<pdfrwt beam="1">  1       21 0.22347391E-01 0.26962176E+03</pdfrwt>
<pdfrwt beam="2">  1       21 0.11009932E+00 0.26962176E+03</pdfrwt>
<totfact> 0.11659128E+04</totfact>
</mgrwt>
</event>
<event>
 4    1  0.3945814E+000  0.2356251E+03  0.7546771E-02  0.1122742E+00
         21   -1    0    0  501  502  0.00000000000E+00  0.00000000000E+00  0.22029114956E+03  0.22029114956E+03  0.00000000000E+00 0.  1.
         21   -1    0    0  502  503 -0.00000000000E+00 -0.00000000000E+00 -0.42101871356E+03  0.42101871356E+03  0.00000000000E+00 0.  1.
          6    1    1    2  501    0 -0.25318449521E+02 -0.15795301797E+03  0.10278804487E+03  0.25706917734E+03  0.17300000000E+03 0.  1.
         -6    1    1    2    0  503  0.25318449521E+02  0.15795301797E+03 -0.30351560888E+03  0.38424068577E+03  0.17300000000E+03 0.  1.
<mgrwt>
<rscale>  2 0.23562508E+03</rscale>
<asrwt>0</asrwt>
<pdfrwt beam="1">  1       21 0.33890947E-01 0.23562508E+03</pdfrwt>
<pdfrwt beam="2">  1       21 0.64772109E-01 0.23562508E+03</pdfrwt>
<totfact> 0.17969498E+04</totfact>
</mgrwt>
</event>
<event>
 4    1  0.3945814E+000  0.3828401E+03  0.7546771E-02  0.1049889E+00
         21   -1    0    0  501  502  0.00000000000E+00  0.00000000000E+00  0.14424332962E+03  0.14424332962E+03  0.00000000000E+00 0.  1.
         21   -1    0    0  502  503 -0.00000000000E+00 -0.00000000000E+00 -0.16434755449E+04  0.16434755449E+04  0.00000000000E+00 0. -1.
          6    1    1    2  501    0  0.29661386011E+03 -0.16928604747E+03 -0.19734892305E+03  0.43071236957E+03  0.17300000000E+03 0.  1.
         -6    1    1    2    0  503 -0.29661386011E+03  0.16928604747E+03 -0.13018832922E+04  0.13570065049E+04  0.17300000000E+03 0. -1.
<mgrwt>
<rscale>  2 0.38284011E+03</rscale>
<asrwt>0</asrwt>
<pdfrwt beam="1">  1       21 0.22191281E-01 0.38284011E+03</pdfrwt>
<pdfrwt beam="2">  1       21 0.25284240E+00 0.38284011E+03</pdfrwt>
<totfact> 0.10342833E+03</totfact>
</mgrwt>
</event>
<event>
 4    1  0.3945814E+000  0.1730031E+03  0.7546771E-02  0.1174752E+00
         21   -1    0    0  501  502  0.00000000000E+00  0.00000000000E+00  0.70120439187E+03  0.70120439187E+03  0.00000000000E+00 0.  1.
         21   -1    0    0  502  503 -0.00000000000E+00 -0.00000000000E+00 -0.87270189676E+02  0.87270189676E+02  0.00000000000E+00 0.  1.
          6    1    1    2  501    0  0.47665993974E+00 -0.92776294983E+00  0.58875721784E+03  0.61364904425E+03  0.17300000000E+03 0.  1.
         -6    1    1    2    0  503 -0.47665993974E+00  0.92776294983E+00  0.25176984349E+02  0.17482553729E+03  0.17300000000E+03 0.  1.
<mgrwt>
<rscale>  2 0.17300314E+03</rscale>
<asrwt>0</asrwt>
<pdfrwt beam="1">  1       21 0.10787759E+00 0.17300314E+03</pdfrwt>
<pdfrwt beam="2">  1       21 0.13426184E-01 0.17300314E+03</pdfrwt>
<totfact> 0.33201020E+04</totfact>
</mgrwt>
</event>
<event>
 4    1  0.3945814E+000  0.2232212E+03  0.7546771E-02  0.1131504E+00
         21   -1    0    0  503  502  0.00000000000E+00  0.00000000000E+00  0.17679184820E+03  0.17679184820E+03  0.00000000000E+00 0. -1.
         21   -1    0    0  501  503 -0.00000000000E+00 -0.00000000000E+00 -0.50709652587E+03  0.50709652587E+03  0.00000000000E+00 0.  1.
          6    1    1    2  501    0 -0.54734493030E+02  0.13001085410E+03  0.62747979571E+02  0.23187280102E+03  0.17300000000E+03 0. -1.
         -6    1    1    2    0  502  0.54734493030E+02 -0.13001085410E+03 -0.39305265724E+03  0.45201557305E+03  0.17300000000E+03 0.  1.
<mgrwt>
<rscale>  2 0.22322116E+03</rscale>
<asrwt>0</asrwt>
<pdfrwt beam="1">  1       21 0.27198746E-01 0.22322116E+03</pdfrwt>
<pdfrwt beam="2">  1       21 0.78014851E-01 0.22322116E+03</pdfrwt>
<totfact> 0.18417807E+04</totfact>
</mgrwt>
</event>
<event>
 4    1  0.3945814E+000  0.1868956E+03  0.7546771E-02  0.1161291E+00
         21   -1    0    0  503  502  0.00000000000E+00  0.00000000000E+00  0.37052718419E+03  0.37052718419E+03  0.00000000000E+00 0. -1.
         21   -1    0    0  501  503 -0.00000000000E+00 -0.00000000000E+00 -0.10603926668E+03  0.10603926668E+03  0.00000000000E+00 0. -1.
          6    1    1    2  501    0 -0.63913995795E+02  0.30265120716E+02  0.52863070512E+02  0.19422790895E+03  0.17300000000E+03 0. -1.
         -6    1    1    2    0  502  0.63913995795E+02 -0.30265120716E+02  0.21162484700E+03  0.28233854193E+03  0.17300000000E+03 0. -1.
<mgrwt>
<rscale>  2 0.18689563E+03</rscale>
<asrwt>0</asrwt>
<pdfrwt beam="1">  1       21 0.57004181E-01 0.18689563E+03</pdfrwt>
<pdfrwt beam="2">  1       21 0.16313734E-01 0.18689563E+03</pdfrwt>
<totfact> 0.97499306E+04</totfact>
</mgrwt>
</event>
<event>
 4    1  0.3945814E+000  0.1956958E+03  0.7546771E-02  0.1153422E+00
         21   -1    0    0  501  502  0.00000000000E+00  0.00000000000E+00  0.30253271546E+02  0.30253271546E+02  0.00000000000E+00 0.  1.
         21   -1    0    0  502  503 -0.00000000000E+00 -0.00000000000E+00 -0.14230526688E+04  0.14230526688E+04  0.00000000000E+00 0.  1.
          6    1    1    2  501    0 -0.32723273282E+02  0.85422710349E+02 -0.45490235632E+03  0.49521006234E+03  0.17300000000E+03 0.  1.
         -6    1    1    2    0  503  0.32723273282E+02 -0.85422710349E+02 -0.93789704090E+03  0.95809587797E+03  0.17300000000E+03 0.  1.
<mgrwt>
<rscale>  2 0.19569582E+03</rscale>
<asrwt>0</asrwt>
<pdfrwt beam="1">  1       21 0.46543502E-02 0.19569582E+03</pdfrwt>
<pdfrwt beam="2">  1       21 0.21893115E+00 0.19569582E+03</pdfrwt>
<totfact> 0.30942045E+04</totfact>
</mgrwt>
</event>
<event>
 4    1  0.3945814E+000  0.1995456E+03  0.7546771E-02  0.1150123E+00
         21   -1    0    0  501  502  0.00000000000E+00  0.00000000000E+00  0.18329589001E+04  0.18329589001E+04  0.00000000000E+00 0. -1.
         21   -1    0    0  502  503 -0.00000000000E+00 -0.00000000000E+00 -0.24132014980E+02  0.24132014980E+02  0.00000000000E+00 0. -1.
          6    1    1    2  501    0 -0.46564346857E+02  0.87870389995E+02  0.61107220159E+03  0.64282787696E+03  0.17300000000E+03 0. -1.
         -6    1    1    2    0  503  0.46564346857E+02 -0.87870389995E+02  0.11977546835E+04  0.12142630381E+04  0.17300000000E+03 0. -1.
<mgrwt>
<rscale>  2 0.19954559E+03</rscale>
<asrwt>0</asrwt>
<pdfrwt beam="1">  1       21 0.28199357E+00 0.19954559E+03</pdfrwt>
<pdfrwt beam="2">  1       21 0.37126191E-02 0.19954559E+03</pdfrwt>
<totfact> 0.19114106E+04</totfact>
</mgrwt>
</event>
<event>
 4    1  0.3945814E+000  0.1850766E+03  0.7546771E-02  0.1162978E+00
         21   -1    0    0  503  502  0.00000000000E+00  0.00000000000E+00  0.44524594949E+02  0.44524594949E+02  0.00000000000E+00 0.  1.
         21   -1    0    0  501  503 -0.00000000000E+00 -0.00000000000E+00 -0.11529591005E+04  0.11529591005E+04  0.00000000000E+00 0.  1.
          6    1    1    2  501    0 -0.51168611677E+02  0.41305291518E+02 -0.89959790313E+03  0.91843875204E+03  0.17300000000E+03 0.  1.
         -6    1    1    2    0  502  0.51168611677E+02 -0.41305291518E+02 -0.20883660239E+03  0.27904494338E+03  0.17300000000E+03 0.  1.
<mgrwt>
<rscale>  2 0.18507662E+03</rscale>
<asrwt>0</asrwt>
<pdfrwt beam="1">  1       21 0.68499366E-02 0.18507662E+03</pdfrwt>
<pdfrwt beam="2">  1       21 0.17737835E+00 0.18507662E+03</pdfrwt>
<totfact> 0.29928641E+04</totfact>
</mgrwt>
</event>
<event>
 4    1  0.3945814E+000  0.1931455E+03  0.7546771E-02  0.1155655E+00
         21   -1    0    0  501  502  0.00000000000E+00  0.00000000000E+00  0.46367569188E+04  0.46367569188E+04  0.00000000000E+00 0.  1.
         21   -1    0    0  502  503 -0.00000000000E+00 -0.00000000000E+00 -0.83491833367E+01  0.83491833367E+01  0.00000000000E+00 0.  1.
          6    1    1    2  501    0  0.68648621893E+01  0.85609850988E+02  0.18712772873E+04  0.18812187164E+04  0.17300000000E+03 0.  1.
         -6    1    1    2    0  503 -0.68648621893E+01 -0.85609850988E+02  0.27571304482E+04  0.27638873858E+04  0.17300000000E+03 0.  1.
<mgrwt>
<rscale>  2 0.19314547E+03</rscale>
<asrwt>0</asrwt>
<pdfrwt beam="1">  1       21 0.71334516E+00 0.19314547E+03</pdfrwt>
<pdfrwt beam="2">  1       21 0.12844934E-02 0.19314547E+03</pdfrwt>
<totfact> 0.93387148E+01</totfact>
</mgrwt>
</event>
<event>
 4    1  0.3945814E+000  0.2079630E+03  0.7546771E-02  0.1143189E+00
         21   -1    0    0  501  502  0.00000000000E+00  0.00000000000E+00  0.40374243306E+03  0.40374243306E+03  0.00000000000E+00 0.  1.
         21   -1    0    0  502  503 -0.00000000000E+00 -0.00000000000E+00 -0.11015388544E+03  0.11015388544E+03  0.00000000000E+00 0.  1.
          6    1    1    2  501    0  0.98212582401E+02  0.60612703237E+02  0.18944186618E+03  0.28131269398E+03  0.17300000000E+03 0.  1.
         -6    1    1    2    0  503 -0.98212582401E+02 -0.60612703237E+02  0.10414668145E+03  0.23258362451E+03  0.17300000000E+03 0.  1.
<mgrwt>
<rscale>  2 0.20796300E+03</rscale>
<asrwt>0</asrwt>
<pdfrwt beam="1">  1       21 0.62114220E-01 0.20796300E+03</pdfrwt>
<pdfrwt beam="2">  1       21 0.16946752E-01 0.20796300E+03</pdfrwt>
<totfact> 0.74954807E+04</totfact>
</mgrwt>
</event>
<event>
 4    1  0.3945814E+000  0.1905734E+03  0.7546771E-02  0.1157945E+00
         21   -1    0    0  501  502  0.00000000000E+00  0.00000000000E+00  0.15589067968E+03  0.15589067968E+03  0.00000000000E+00 0. -1.
         21   -1    0    0  502  503 -0.00000000000E+00 -0.00000000000E+00 -0.29170028682E+03  0.29170028682E+03  0.00000000000E+00 0. -1.
          6    1    1    2  501    0  0.10891947585E+02  0.79186937812E+02  0.32511805982E+02  0.19332672648E+03  0.17300000000E+03 0.  1.
         -6    1    1    2    0  503 -0.10891947585E+02 -0.79186937812E+02 -0.16832141311E+03  0.25426424002E+03  0.17300000000E+03 0.  1.
<mgrwt>
<rscale>  2 0.19057336E+03</rscale>
<asrwt>0</asrwt>
<pdfrwt beam="1">  1       21 0.23983181E-01 0.19057336E+03</pdfrwt>
<pdfrwt beam="2">  1       21 0.44876967E-01 0.19057336E+03</pdfrwt>
<totfact> 0.78190455E+04</totfact>
</mgrwt>
</event>
<event>
 4    1  0.3945814E+000  0.2085024E+03  0.7546771E-02  0.1142757E+00
         21   -1    0    0  501  502  0.00000000000E+00  0.00000000000E+00  0.40868803423E+03  0.40868803423E+03  0.00000000000E+00 0. -1.
         21   -1    0    0  502  503 -0.00000000000E+00 -0.00000000000E+00 -0.11214373827E+03  0.11214373827E+03  0.00000000000E+00 0.  1.
          6    1    1    2  501    0 -0.10831531503E+03 -0.42568062151E+02  0.20734761259E+03  0.29405149181E+03  0.17300000000E+03 0. -1.
         -6    1    1    2    0  503  0.10831531503E+03  0.42568062151E+02  0.89196683368E+02  0.22678028069E+03  0.17300000000E+03 0.  1.
<mgrwt>
<rscale>  2 0.20850239E+03</rscale>
<asrwt>0</asrwt>
<pdfrwt beam="1">  1       21 0.62875082E-01 0.20850239E+03</pdfrwt>
<pdfrwt beam="2">  1       21 0.17252883E-01 0.20850239E+03</pdfrwt>
<totfact> 0.70616444E+04</totfact>
</mgrwt>
</event>
<event>
 4    1  0.3945814E+000  0.2456065E+03  0.7546771E-02  0.1116113E+00
         21   -1    0    0  503  502  0.00000000000E+00  0.00000000000E+00  0.75436097976E+03  0.75436097976E+03  0.00000000000E+00 0.  1.
         21   -1    0    0  501  503 -0.00000000000E+00 -0.00000000000E+00 -0.80094998023E+02  0.80094998023E+02  0.00000000000E+00 0. -1.
          6    1    1    2  501    0 -0.23067120398E+02  0.17280464274E+03  0.35393666812E+03  0.43080587465E+03  0.17300000000E+03 0.  1.
         -6    1    1    2    0  502  0.23067120398E+02 -0.17280464274E+03  0.32032931362E+03  0.40365010313E+03  0.17300000000E+03 0.  1.
<mgrwt>
<rscale>  2 0.24560647E+03</rscale>
<asrwt>0</asrwt>
<pdfrwt beam="1">  1       21 0.11605553E+00 0.24560647E+03</pdfrwt>
<pdfrwt beam="2">  1       21 0.12322308E-01 0.24560647E+03</pdfrwt>
<totfact> 0.31189501E+04</totfact>
</mgrwt>
</event>
<event>
 4    1  0.3945814E+000  0.1846663E+03  0.7546771E-02  0.1163362E+00
         21   -1    0    0  503  502  0.00000000000E+00  0.00000000000E+00  0.68909907185E+02  0.68909907185E+02  0.00000000000E+00 0. -1.
         21   -1    0    0  501  503 -0.00000000000E+00 -0.00000000000E+00 -0.50604374187E+03  0.50604374187E+03  0.00000000000E+00 0. -1.
          6    1    1    2  501    0 -0.54332923279E+02 -0.34936580834E+02 -0.17585433619E+03  0.25500270350E+03  0.17300000000E+03 0. -1.
         -6    1    1    2    0  502  0.54332923279E+02  0.34936580834E+02 -0.26127949849E+03  0.31995094556E+03  0.17300000000E+03 0. -1.
<mgrwt>
<rscale>  2 0.18466627E+03</rscale>
<asrwt>0</asrwt>
<pdfrwt beam="1">  1       21 0.10601525E-01 0.18466627E+03</pdfrwt>
<pdfrwt beam="2">  1       21 0.77852880E-01 0.18466627E+03</pdfrwt>
<totfact> 0.10733271E+05</totfact>
</mgrwt>
</event>
<event>
 4    1  0.3945814E+000  0.1866269E+03  0.7546771E-02  0.1161539E+00
         21   -1    0    0  503  502  0.00000000000E+00  0.00000000000E+00  0.37414420791E+03  0.37414420791E+03  0.00000000000E+00 0. -1.
         21   -1    0    0  501  503 -0.00000000000E+00 -0.00000000000E+00 -0.14801785078E+03  0.14801785078E+03  0.00000000000E+00 0. -1.
          6    1    1    2  501    0 -0.31455008387E+02 -0.62539473151E+02 -0.45977818250E+02  0.19220708370E+03  0.17300000000E+03 0. -1.
         -6    1    1    2    0  502  0.31455008387E+02  0.62539473151E+02  0.27210417538E+03  0.32995497498E+03  0.17300000000E+03 0. -1.
<mgrwt>
<rscale>  2 0.18662691E+03</rscale>
<asrwt>0</asrwt>
<pdfrwt beam="1">  1       21 0.57560647E-01 0.18662691E+03</pdfrwt>
<pdfrwt beam="2">  1       21 0.22771977E-01 0.18662691E+03</pdfrwt>
<totfact> 0.51362433E+04</totfact>
</mgrwt>
</event>
<event>
 4    1  0.3945814E+000  0.1905874E+03  0.7546771E-02  0.1157933E+00
         21   -1    0    0  501  502  0.00000000000E+00  0.00000000000E+00  0.65558006117E+03  0.65558006117E+03  0.00000000000E+00 0.  1.
         21   -1    0    0  502  503 -0.00000000000E+00 -0.00000000000E+00 -0.65159150673E+02  0.65159150673E+02  0.00000000000E+00 0.  1.
          6    1    1    2  501    0 -0.53994136768E+02 -0.58984812049E+02  0.15579345645E+03  0.24616087408E+03  0.17300000000E+03 0.  1.
         -6    1    1    2    0  503  0.53994136768E+02  0.58984812049E+02  0.43462745405E+03  0.47457833776E+03  0.17300000000E+03 0.  1.
<mgrwt>
<rscale>  2 0.19058745E+03</rscale>
<asrwt>0</asrwt>
<pdfrwt beam="1">  1       21 0.10085847E+00 0.19058745E+03</pdfrwt>
<pdfrwt beam="2">  1       21 0.10024485E-01 0.19058745E+03</pdfrwt>
<totfact> 0.65058634E+04</totfact>
</mgrwt>
</event>
<event>
 4    1  0.3945814E+000  0.2229022E+03  0.7546771E-02  0.1131738E+00
         21   -1    0    0  503  502  0.00000000000E+00  0.00000000000E+00  0.18177560429E+03  0.18177560429E+03  0.00000000000E+00 0. -1.
         21   -1    0    0  501  503 -0.00000000000E+00 -0.00000000000E+00 -0.48118959836E+03  0.48118959836E+03  0.00000000000E+00 0. -1.
          6    1    1    2  501    0  0.11558666578E+03 -0.79975639520E+02 -0.36757021013E+03  0.42987584207E+03  0.17300000000E+03 0. -1.
         -6    1    1    2    0  502 -0.11558666578E+03  0.79975639520E+02  0.68156216069E+02  0.23308936057E+03  0.17300000000E+03 0. -1.
<mgrwt>
<rscale>  2 0.22290218E+03</rscale>
<asrwt>0</asrwt>
<pdfrwt beam="1">  1       21 0.27965478E-01 0.22290218E+03</pdfrwt>
<pdfrwt beam="2">  1       21 0.74029168E-01 0.22290218E+03</pdfrwt>
<totfact> 0.19638051E+04</totfact>
</mgrwt>
</event>
<event>
 4    1  0.3945814E+000  0.2150604E+03  0.7546771E-02  0.1137620E+00
         21   -1    0    0  501  502  0.00000000000E+00  0.00000000000E+00  0.97733344209E+02  0.97733344209E+02  0.00000000000E+00 0.  1.
         21   -1    0    0  502  503 -0.00000000000E+00 -0.00000000000E+00 -0.59575406344E+03  0.59575406344E+03  0.00000000000E+00 0.  1.
          6    1    1    2  501    0  0.34291139715E+02  0.12306946145E+03 -0.91766224923E+02  0.23382047524E+03  0.17300000000E+03 0.  1.
         -6    1    1    2    0  503 -0.34291139715E+02 -0.12306946145E+03 -0.40625449430E+03  0.45966693241E+03  0.17300000000E+03 0.  1.
<mgrwt>
<rscale>  2 0.21506040E+03</rscale>
<asrwt>0</asrwt>
<pdfrwt beam="1">  1       21 0.15035899E-01 0.21506040E+03</pdfrwt>
<pdfrwt beam="2">  1       21 0.91654470E-01 0.21506040E+03</pdfrwt>
<totfact> 0.38875440E+04</totfact>
</mgrwt>
</event>
<event>
 4    1  0.3945814E+000  0.1777834E+03  0.7546771E-02  0.1169966E+00
         21   -1    0    0  501  502  0.00000000000E+00  0.00000000000E+00  0.18502957192E+03  0.18502957192E+03  0.00000000000E+00 0.  1.
         21   -1    0    0  502  503 -0.00000000000E+00 -0.00000000000E+00 -0.17780099781E+03  0.17780099781E+03  0.00000000000E+00 0.  1.
          6    1    1    2  501    0 -0.15994999494E+02 -0.37710787133E+02 -0.32330279369E+02  0.18069917111E+03  0.17300000000E+03 0.  1.
         -6    1    1    2    0  503  0.15994999494E+02  0.37710787133E+02  0.39558853484E+02  0.18213139862E+03  0.17300000000E+03 0.  1.
<mgrwt>
<rscale>  2 0.17778342E+03</rscale>
<asrwt>0</asrwt>
<pdfrwt beam="1">  1       21 0.28466088E-01 0.17778342E+03</pdfrwt>
<pdfrwt beam="2">  1       21 0.27354000E-01 0.17778342E+03</pdfrwt>
<totfact> 0.15111799E+05</totfact>
</mgrwt>
</event>
<event>
 4    1  0.3945814E+000  0.1764957E+03  0.7546771E-02  0.1171238E+00
         21   -1    0    0  501  502  0.00000000000E+00  0.00000000000E+00  0.11346799950E+03  0.11346799950E+03  0.00000000000E+00 0.  1.
         21   -1    0    0  502  503 -0.00000000000E+00 -0.00000000000E+00 -0.47051459603E+03  0.47051459603E+03  0.00000000000E+00 0.  1.
          6    1    1    2  501    0 -0.23340907751E+02  0.26018096771E+02  0.99243490141E+01  0.17677452316E+03  0.17300000000E+03 0.  1.
         -6    1    1    2    0  503  0.23340907751E+02 -0.26018096771E+02 -0.36697094554E+03  0.40720807237E+03  0.17300000000E+03 0.  1.
<mgrwt>
<rscale>  2 0.17649572E+03</rscale>
<asrwt>0</asrwt>
<pdfrwt beam="1">  1       21 0.17456616E-01 0.17649572E+03</pdfrwt>
<pdfrwt beam="2">  1       21 0.72386860E-01 0.17649572E+03</pdfrwt>
<totfact> 0.51513956E+04</totfact>
</mgrwt>
</event>
<event>
 4    1  0.3945814E+000  0.1815843E+03  0.7546771E-02  0.1166278E+00
         21   -1    0    0  501  502  0.00000000000E+00  0.00000000000E+00  0.25792506344E+02  0.25792506344E+02  0.00000000000E+00 0. -1.
         21   -1    0    0  502  503 -0.00000000000E+00 -0.00000000000E+00 -0.23687418476E+04  0.23687418476E+04  0.00000000000E+00 0. -1.
          6    1    1    2  501    0 -0.35755572322E+02 -0.42016732581E+02 -0.35917615216E+03  0.40246785592E+03  0.17300000000E+03 0. -1.
         -6    1    1    2    0  503  0.35755572322E+02  0.42016732581E+02 -0.19837731891E+04  0.19920664980E+04  0.17300000000E+03 0. -1.
<mgrwt>
<rscale>  2 0.18158432E+03</rscale>
<asrwt>0</asrwt>
<pdfrwt beam="1">  1       21 0.39680778E-02 0.18158432E+03</pdfrwt>
<pdfrwt beam="2">  1       21 0.36442183E+00 0.18158432E+03</pdfrwt>
<totfact> 0.57862814E+03</totfact>
</mgrwt>
</event>
<event>
 4    1  0.3945814E+000  0.2366050E+03  0.7546771E-02  0.1122075E+00
         21   -1    0    0  503  502  0.00000000000E+00  0.00000000000E+00  0.15504137650E+03  0.15504137650E+03  0.00000000000E+00 0. -1.
         21   -1    0    0  501  503 -0.00000000000E+00 -0.00000000000E+00 -0.38080958467E+03  0.38080958467E+03  0.00000000000E+00 0. -1.
          6    1    1    2  501    0  0.43977145092E+02  0.15530270633E+03 -0.51895472083E+02  0.24222935393E+03  0.17300000000E+03 0. -1.
         -6    1    1    2    0  502 -0.43977145092E+02 -0.15530270633E+03 -0.17387273608E+03  0.29362160724E+03  0.17300000000E+03 0. -1.
<mgrwt>
<rscale>  2 0.23660499E+03</rscale>
<asrwt>0</asrwt>
<pdfrwt beam="1">  1       21 0.23852520E-01 0.23660499E+03</pdfrwt>
<pdfrwt beam="2">  1       21 0.58586088E-01 0.23660499E+03</pdfrwt>
<totfact> 0.44242298E+04</totfact>
</mgrwt>
</event>
<event>
 4    1  0.3945814E+000  0.2226831E+03  0.7546771E-02  0.1131898E+00
         21   -1    0    0  501  502  0.00000000000E+00  0.00000000000E+00  0.10970799738E+04  0.10970799738E+04  0.00000000000E+00 0.  1.
         21   -1    0    0  502  503 -0.00000000000E+00 -0.00000000000E+00 -0.95639242311E+02  0.95639242311E+02  0.00000000000E+00 0. -1.
          6    1    1    2  501    0 -0.84434649778E+02 -0.11193550280E+03  0.93380762461E+03  0.95999189927E+03  0.17300000000E+03 0.  1.
         -6    1    1    2    0  503  0.84434649778E+02  0.11193550280E+03  0.67633106907E+02  0.23272731688E+03  0.17300000000E+03 0. -1.
<mgrwt>
<rscale>  2 0.22268311E+03</rscale>
<asrwt>0</asrwt>
<pdfrwt beam="1">  1       21 0.16878153E+00 0.22268311E+03</pdfrwt>
<pdfrwt beam="2">  1       21 0.14713730E-01 0.22268311E+03</pdfrwt>
<totfact> 0.86402308E+03</totfact>
</mgrwt>
</event>
<event>
 4    1  0.3945814E+000  0.3578518E+03  0.7546771E-02  0.1059438E+00
         21   -1    0    0  503  502  0.00000000000E+00  0.00000000000E+00  0.30665047621E+03  0.30665047621E+03  0.00000000000E+00 0. -1.
         21   -1    0    0  501  503 -0.00000000000E+00 -0.00000000000E+00 -0.47556164506E+03  0.47556164506E+03  0.00000000000E+00 0.  1.
          6    1    1    2  501    0  0.29643993209E+03 -0.10125368912E+03 -0.22099337963E+03  0.42059008160E+03  0.17300000000E+03 0.  1.
         -6    1    1    2    0  502 -0.29643993209E+03  0.10125368912E+03  0.52082210773E+02  0.36162203967E+03  0.17300000000E+03 0. -1.
<mgrwt>
<rscale>  2 0.35785184E+03</rscale>
<asrwt>0</asrwt>
<pdfrwt beam="1">  1       21 0.47176997E-01 0.35785184E+03</pdfrwt>
<pdfrwt beam="2">  1       21 0.73163329E-01 0.35785184E+03</pdfrwt>
<totfact> 0.66000479E+03</totfact>
</mgrwt>
</event>
<event>
 4    1  0.3945814E+000  0.2242638E+03  0.7546771E-02  0.1130744E+00
         21   -1    0    0  503  502  0.00000000000E+00  0.00000000000E+00  0.15600288769E+03  0.15600288769E+03  0.00000000000E+00 0. -1.
         21   -1    0    0  501  503 -0.00000000000E+00 -0.00000000000E+00 -0.44920013482E+03  0.44920013482E+03  0.00000000000E+00 0.  1.
          6    1    1    2  501    0 -0.12246526843E+03 -0.73263372453E+02 -0.30737518164E+03  0.38049147955E+03  0.17300000000E+03 0.  1.
         -6    1    1    2    0  502  0.12246526843E+03  0.73263372453E+02  0.14177934509E+02  0.22471154297E+03  0.17300000000E+03 0. -1.
<mgrwt>
<rscale>  2 0.22426383E+03</rscale>
<asrwt>0</asrwt>
<pdfrwt beam="1">  1       21 0.24000445E-01 0.22426383E+03</pdfrwt>
<pdfrwt beam="2">  1       21 0.69107712E-01 0.22426383E+03</pdfrwt>
<totfact> 0.30683494E+04</totfact>
</mgrwt>
</event>
<event>
 4    1  0.3945814E+000  0.2040637E+03  0.7546771E-02  0.1146355E+00
         21   -1    0    0  503  502  0.00000000000E+00  0.00000000000E+00  0.65616846435E+03  0.65616846435E+03  0.00000000000E+00 0.  1.
         21   -1    0    0  501  503 -0.00000000000E+00 -0.00000000000E+00 -0.16196079386E+03  0.16196079386E+03  0.00000000000E+00 0.  1.
          6    1    1    2  501    0 -0.10675348880E+03 -0.17796138713E+02 -0.71904188879E+02  0.21636132349E+03  0.17300000000E+03 0.  1.
         -6    1    1    2    0  502  0.10675348880E+03  0.17796138713E+02  0.56611185937E+03  0.60176793471E+03  0.17300000000E+03 0.  1.
<mgrwt>
<rscale>  2 0.20406374E+03</rscale>
<asrwt>0</asrwt>
<pdfrwt beam="1">  1       21 0.10094899E+00 0.20406374E+03</pdfrwt>
<pdfrwt beam="2">  1       21 0.24917046E-01 0.20406374E+03</pdfrwt>
<totfact> 0.12141217E+04</totfact>
</mgrwt>
</event>
<event>
 4    1  0.3945814E+000  0.2030695E+03  0.7546771E-02  0.1147175E+00
         21   -1    0    0  501  502  0.00000000000E+00  0.00000000000E+00  0.26226218526E+03  0.26226218526E+03  0.00000000000E+00 0.  1.
         21   -1    0    0  502  503 -0.00000000000E+00 -0.00000000000E+00 -0.16342024765E+03  0.16342024765E+03  0.00000000000E+00 0.  1.
          6    1    1    2  501    0  0.10583095843E+03 -0.10394055839E+02  0.80187787493E+01  0.20322777608E+03  0.17300000000E+03 0.  1.
         -6    1    1    2    0  503 -0.10583095843E+03  0.10394055839E+02  0.90823158861E+02  0.22245465683E+03  0.17300000000E+03 0.  1.
<mgrwt>
<rscale>  2 0.20306952E+03</rscale>
<asrwt>0</asrwt>
<pdfrwt beam="1">  1       21 0.40348028E-01 0.20306952E+03</pdfrwt>
<pdfrwt beam="2">  1       21 0.25141577E-01 0.20306952E+03</pdfrwt>
<totfact> 0.88305507E+04</totfact>
</mgrwt>
</event>
<event>
 4    1  0.3945814E+000  0.2340168E+03  0.7546771E-02  0.1123844E+00
         21   -1    0    0  501  502  0.00000000000E+00  0.00000000000E+00  0.84025017085E+03  0.84025017085E+03  0.00000000000E+00 0.  1.
         21   -1    0    0  502  503 -0.00000000000E+00 -0.00000000000E+00 -0.65799202054E+02  0.65799202054E+02  0.00000000000E+00 0. -1.
          6    1    1    2  501    0 -0.69953656269E+01  0.15743553939E+03  0.34312593315E+03  0.41533033865E+03  0.17300000000E+03 0.  1.
         -6    1    1    2    0  503  0.69953656269E+01 -0.15743553939E+03  0.43132503565E+03  0.49071903426E+03  0.17300000000E+03 0. -1.
<mgrwt>
<rscale>  2 0.23401685E+03</rscale>
<asrwt>0</asrwt>
<pdfrwt beam="1">  1       21 0.12926925E+00 0.23401685E+03</pdfrwt>
<pdfrwt beam="2">  1       21 0.10122955E-01 0.23401685E+03</pdfrwt>
<totfact> 0.34029987E+04</totfact>
</mgrwt>
</event>
<event>
 4    1  0.3945814E+000  0.2205964E+03  0.7546771E-02  0.1133439E+00
         21   -1    0    0  503  502  0.00000000000E+00  0.00000000000E+00  0.13309254318E+04  0.13309254318E+04  0.00000000000E+00 0. -1.
         21   -1    0    0  501  503 -0.00000000000E+00 -0.00000000000E+00 -0.37913446781E+02  0.37913446781E+02  0.00000000000E+00 0.  1.
          6    1    1    2  501    0  0.13483818311E+03 -0.23504143308E+02  0.51734069310E+03  0.56240925767E+03  0.17300000000E+03 0.  1.
         -6    1    1    2    0  502 -0.13483818311E+03  0.23504143308E+02  0.77567129191E+03  0.80642962090E+03  0.17300000000E+03 0. -1.
<mgrwt>
<rscale>  2 0.22059642E+03</rscale>
<asrwt>0</asrwt>
<pdfrwt beam="1">  1       21 0.20475772E+00 0.22059642E+03</pdfrwt>
<pdfrwt beam="2">  1       21 0.58328390E-02 0.22059642E+03</pdfrwt>
<totfact> 0.25397526E+04</totfact>
</mgrwt>
</event>
<event>
 4    1  0.3945814E+000  0.1921240E+03  0.7546771E-02  0.1156559E+00
         21   -1    0    0  501  502  0.00000000000E+00  0.00000000000E+00  0.49713982281E+03  0.49713982281E+03  0.00000000000E+00 0.  1.
         21   -1    0    0  502  503 -0.00000000000E+00 -0.00000000000E+00 -0.74386677730E+02  0.74386677730E+02  0.00000000000E+00 0.  1.
          6    1    1    2  501    0  0.82127942148E+02 -0.15414856717E+02  0.22371693445E+03  0.29489130785E+03  0.17300000000E+03 0.  1.
         -6    1    1    2    0  503 -0.82127942148E+02  0.15414856717E+02  0.19903621063E+03  0.27663519268E+03  0.17300000000E+03 0.  1.
<mgrwt>
<rscale>  2 0.19212396E+03</rscale>
<asrwt>0</asrwt>
<pdfrwt beam="1">  1       21 0.76483048E-01 0.19212396E+03</pdfrwt>
<pdfrwt beam="2">  1       21 0.11444105E-01 0.19212396E+03</pdfrwt>
<totfact> 0.97221608E+04</totfact>
</mgrwt>
</event>
<event>
 4    1  0.3945814E+000  0.1833809E+03  0.7546771E-02  0.1164571E+00
         21   -1    0    0  501  502  0.00000000000E+00  0.00000000000E+00  0.53745712792E+02  0.53745712792E+02  0.00000000000E+00 0. -1.
         21   -1    0    0  502  503 -0.00000000000E+00 -0.00000000000E+00 -0.86049790920E+03  0.86049790920E+03  0.00000000000E+00 0.  1.
          6    1    1    2  501    0  0.36825445944E+02 -0.48408937944E+02 -0.16459123543E+03  0.24641187780E+03  0.17300000000E+03 0. -1.
         -6    1    1    2    0  503 -0.36825445944E+02  0.48408937944E+02 -0.64216096098E+03  0.66783174419E+03  0.17300000000E+03 0.  1.
<mgrwt>
<rscale>  2 0.18338086E+03</rscale>
<asrwt>0</asrwt>
<pdfrwt beam="1">  1       21 0.82685718E-02 0.18338086E+03</pdfrwt>
<pdfrwt beam="2">  1       21 0.13238428E+00 0.18338086E+03</pdfrwt>
<totfact> 0.47006754E+04</totfact>
</mgrwt>
</event>
<event>
 4    1  0.3945814E+000  0.1792026E+03  0.7546771E-02  0.1168577E+00
         21   -1    0    0  503  502  0.00000000000E+00  0.00000000000E+00  0.54681216242E+03  0.54681216242E+03  0.00000000000E+00 0. -1.
         21   -1    0    0  501  503 -0.00000000000E+00 -0.00000000000E+00 -0.14962177346E+03  0.14962177346E+03  0.00000000000E+00 0. -1.
          6    1    1    2  501    0  0.40245539637E+02  0.23766926051E+02 -0.72809848371E+02  0.19342917116E+03  0.17300000000E+03 0. -1.
         -6    1    1    2    0  502 -0.40245539637E+02 -0.23766926051E+02  0.47000023733E+03  0.50300476471E+03  0.17300000000E+03 0. -1.
<mgrwt>
<rscale>  2 0.17920260E+03</rscale>
<asrwt>0</asrwt>
<pdfrwt beam="1">  1       21 0.84124947E-01 0.17920260E+03</pdfrwt>
<pdfrwt beam="2">  1       21 0.23018735E-01 0.17920260E+03</pdfrwt>
<totfact> 0.21917733E+04</totfact>
</mgrwt>
</event>
<event>
 4    1  0.3945814E+000  0.1867836E+03  0.7546771E-02  0.1161395E+00
         21   -1    0    0  501  502  0.00000000000E+00  0.00000000000E+00  0.44291494413E+02  0.44291494413E+02  0.00000000000E+00 0.  1.
         21   -1    0    0  502  503 -0.00000000000E+00 -0.00000000000E+00 -0.80547228044E+03  0.80547228044E+03  0.00000000000E+00 0. -1.
          6    1    1    2  501    0  0.70215477573E+02  0.53755461876E+01 -0.31746598196E+03  0.36833783337E+03  0.17300000000E+03 0.  1.
         -6    1    1    2    0  503 -0.70215477573E+02 -0.53755461876E+01 -0.44371480406E+03  0.48142594148E+03  0.17300000000E+03 0.  1.
<mgrwt>
<rscale>  2 0.18678359E+03</rscale>
<asrwt>0</asrwt>
<pdfrwt beam="1">  1       21 0.68140760E-02 0.18678359E+03</pdfrwt>
<pdfrwt beam="2">  1       21 0.12391881E+00 0.18678359E+03</pdfrwt>
<totfact> 0.77460907E+04</totfact>
</mgrwt>
</event>
<event>
 4    1  0.3945814E+000  0.2568195E+03  0.7546771E-02  0.1109069E+00
         21   -1    0    0  501  502  0.00000000000E+00  0.00000000000E+00  0.22722072699E+03  0.22722072699E+03  0.00000000000E+00 0. -1.
         21   -1    0    0  502  503 -0.00000000000E+00 -0.00000000000E+00 -0.43404335754E+03  0.43404335754E+03  0.00000000000E+00 0.  1.
          6    1    1    2  501    0 -0.43754602777E+02  0.18469652178E+03  0.86876745885E+02  0.27111591505E+03  0.17300000000E+03 0. -1.
         -6    1    1    2    0  503  0.43754602777E+02 -0.18469652178E+03 -0.29369937644E+03  0.39014816947E+03  0.17300000000E+03 0.  1.
<mgrwt>
<rscale>  2 0.25681953E+03</rscale>
<asrwt>0</asrwt>
<pdfrwt beam="1">  1       21 0.34957035E-01 0.25681953E+03</pdfrwt>
<pdfrwt beam="2">  1       21 0.66775901E-01 0.25681953E+03</pdfrwt>
<totfact> 0.15632765E+04</totfact>
</mgrwt>
</event>
<event>
 4    1  0.3945814E+000  0.2174538E+03  0.7546771E-02  0.1135796E+00
         21   -1    0    0  501  502  0.00000000000E+00  0.00000000000E+00  0.87188909564E+03  0.87188909564E+03  0.00000000000E+00 0. -1.
         21   -1    0    0  502  503 -0.00000000000E+00 -0.00000000000E+00 -0.58029312201E+02  0.58029312201E+02  0.00000000000E+00 0. -1.
          6    1    1    2  501    0  0.10820116124E+03  0.75164382847E+02  0.52583637575E+03  0.56902554407E+03  0.17300000000E+03 0. -1.
         -6    1    1    2    0  503 -0.10820116124E+03 -0.75164382847E+02  0.28802340769E+03  0.36089286377E+03  0.17300000000E+03 0. -1.
<mgrwt>
<rscale>  2 0.21745385E+03</rscale>
<asrwt>0</asrwt>
<pdfrwt beam="1">  1       21 0.13413677E+00 0.21745385E+03</pdfrwt>
<pdfrwt beam="2">  1       21 0.89275871E-02 0.21745385E+03</pdfrwt>
<totfact> 0.39013615E+04</totfact>
</mgrwt>
</event>
<event>
 4    1  0.3945814E+000  0.1850365E+03  0.7546771E-02  0.1163016E+00
         21   -1    0    0  503  502  0.00000000000E+00  0.00000000000E+00  0.18872388850E+03  0.18872388850E+03  0.00000000000E+00 0. -1.
         21   -1    0    0  501  503 -0.00000000000E+00 -0.00000000000E+00 -0.32928351058E+03  0.32928351058E+03  0.00000000000E+00 0. -1.
          6    1    1    2  501    0  0.57168387880E+02 -0.32268967426E+02 -0.24383985331E+03  0.30609865223E+03  0.17300000000E+03 0. -1.
         -6    1    1    2    0  502 -0.57168387880E+02  0.32268967426E+02  0.10328023123E+03  0.21190874686E+03  0.17300000000E+03 0. -1.
<mgrwt>
<rscale>  2 0.18503651E+03</rscale>
<asrwt>0</asrwt>
<pdfrwt beam="1">  1       21 0.29034445E-01 0.18503651E+03</pdfrwt>
<pdfrwt beam="2">  1       21 0.50659001E-01 0.18503651E+03</pdfrwt>
<totfact> 0.42263901E+04</totfact>
</mgrwt>
</event>
<event>
 4    1  0.3945814E+000  0.1805512E+03  0.7546771E-02  0.1167271E+00
         21   -1    0    0  501  502  0.00000000000E+00  0.00000000000E+00  0.10013593565E+03  0.10013593565E+03  0.00000000000E+00 0. -1.
         21   -1    0    0  502  503 -0.00000000000E+00 -0.00000000000E+00 -0.40944917012E+03  0.40944917012E+03  0.00000000000E+00 0. -1.
          6    1    1    2  501    0  0.24353625725E+01  0.51612087049E+02 -0.39316899469E+02  0.18478245887E+03  0.17300000000E+03 0. -1.
         -6    1    1    2    0  503 -0.24353625725E+01 -0.51612087049E+02 -0.26999633500E+03  0.32480264690E+03  0.17300000000E+03 0. -1.
<mgrwt>
<rscale>  2 0.18055121E+03</rscale>
<asrwt>0</asrwt>
<pdfrwt beam="1">  1       21 0.15405529E-01 0.18055121E+03</pdfrwt>
<pdfrwt beam="2">  1       21 0.62992180E-01 0.18055121E+03</pdfrwt>
<totfact> 0.87603860E+04</totfact>
</mgrwt>
</event>
<event>
 4    1  0.3945814E+000  0.3143026E+03  0.7546771E-02  0.1078302E+00
         21   -1    0    0  501  502  0.00000000000E+00  0.00000000000E+00  0.58542203364E+03  0.58542203364E+03  0.00000000000E+00 0. -1.
         21   -1    0    0  502  503 -0.00000000000E+00 -0.00000000000E+00 -0.20004296498E+03  0.20004296498E+03  0.00000000000E+00 0.  1.
          6    1    1    2  501    0  0.39737437885E+02 -0.25938019621E+03  0.34803686971E+03  0.46895182357E+03  0.17300000000E+03 0. -1.
         -6    1    1    2    0  503 -0.39737437885E+02  0.25938019621E+03  0.37342198954E+02  0.31651317505E+03  0.17300000000E+03 0.  1.
<mgrwt>
<rscale>  2 0.31430264E+03</rscale>
<asrwt>0</asrwt>
<pdfrwt beam="1">  1       21 0.90064928E-01 0.31430264E+03</pdfrwt>
<pdfrwt beam="2">  1       21 0.30775841E-01 0.31430264E+03</pdfrwt>
<totfact> 0.99374231E+03</totfact>
</mgrwt>
</event>
<event>
 4    1  0.3945814E+000  0.2814651E+03  0.7546771E-02  0.1094891E+00
         21   -1    0    0  501  502  0.00000000000E+00  0.00000000000E+00  0.37974339608E+03  0.37974339608E+03  0.00000000000E+00 0. -1.
         21   -1    0    0  502  503 -0.00000000000E+00 -0.00000000000E+00 -0.36233660183E+03  0.36233660183E+03  0.00000000000E+00 0. -1.
          6    1    1    2  501    0 -0.20273889977E+02 -0.22109400793E+03  0.25037357741E+03  0.37670879897E+03  0.17300000000E+03 0. -1.
         -6    1    1    2    0  503  0.20273889977E+02  0.22109400793E+03 -0.23296678317E+03  0.36537119894E+03  0.17300000000E+03 0. -1.
<mgrwt>
<rscale>  2 0.28146508E+03</rscale>
<asrwt>0</asrwt>
<pdfrwt beam="1">  1       21 0.58422061E-01 0.28146508E+03</pdfrwt>
<pdfrwt beam="2">  1       21 0.55744093E-01 0.28146508E+03</pdfrwt>
<totfact> 0.78797335E+03</totfact>
</mgrwt>
</event>
<event>
 4    1  0.3945814E+000  0.2781606E+03  0.7546771E-02  0.1096698E+00
         21   -1    0    0  501  502  0.00000000000E+00  0.00000000000E+00  0.79589938924E+03  0.79589938924E+03  0.00000000000E+00 0.  1.
         21   -1    0    0  502  503 -0.00000000000E+00 -0.00000000000E+00 -0.19551786621E+03  0.19551786621E+03  0.00000000000E+00 0. -1.
          6    1    1    2  501    0 -0.19030329319E+03 -0.10596678821E+03  0.65168361369E+03  0.70856533640E+03  0.17300000000E+03 0.  1.
         -6    1    1    2    0  503  0.19030329319E+03  0.10596678821E+03 -0.51302090663E+02  0.28285191905E+03  0.17300000000E+03 0. -1.
<mgrwt>
<rscale>  2 0.27816057E+03</rscale>
<asrwt>0</asrwt>
<pdfrwt beam="1">  1       21 0.12244606E+00 0.27816057E+03</pdfrwt>
<pdfrwt beam="2">  1       21 0.30079672E-01 0.27816057E+03</pdfrwt>
<totfact> 0.50207827E+03</totfact>
</mgrwt>
</event>
<event>
 4    1  0.3945814E+000  0.1790375E+03  0.7546771E-02  0.1168738E+00
         21   -1    0    0  503  502  0.00000000000E+00  0.00000000000E+00  0.55046668007E+03  0.55046668007E+03  0.00000000000E+00 0.  1.
         21   -1    0    0  501  503 -0.00000000000E+00 -0.00000000000E+00 -0.17605477468E+03  0.17605477468E+03  0.00000000000E+00 0.  1.
          6    1    1    2  501    0  0.45083449883E+02 -0.96385410926E+01 -0.10996774067E+03  0.21011264340E+03  0.17300000000E+03 0.  1.
         -6    1    1    2    0  502 -0.45083449883E+02  0.96385410926E+01  0.48437964605E+03  0.51640881135E+03  0.17300000000E+03 0.  1.
<mgrwt>
<rscale>  2 0.17903748E+03</rscale>
<asrwt>0</asrwt>
<pdfrwt beam="1">  1       21 0.84687181E-01 0.17903748E+03</pdfrwt>
<pdfrwt beam="2">  1       21 0.27085350E-01 0.17903748E+03</pdfrwt>
<totfact> 0.15834794E+04</totfact>
</mgrwt>
</event>
<event>
 4    1  0.3945814E+000  0.5408230E+03  0.7546771E-02  0.1003641E+00
         21   -1    0    0  501  502  0.00000000000E+00  0.00000000000E+00  0.93215368409E+03  0.93215368409E+03  0.00000000000E+00 0.  1.
         21   -1    0    0  502  503 -0.00000000000E+00 -0.00000000000E+00 -0.34334581052E+03  0.34334581052E+03  0.00000000000E+00 0. -1.
          6    1    1    2  501    0  0.50269594783E+03  0.99283715825E+02  0.48155521290E+03  0.72414425032E+03  0.17300000000E+03 0.  1.
         -6    1    1    2    0  503 -0.50269594783E+03 -0.99283715825E+02  0.10725266066E+03  0.55135524429E+03  0.17300000000E+03 0. -1.
<mgrwt>
<rscale>  2 0.54082296E+03</rscale>
<asrwt>0</asrwt>
<pdfrwt beam="1">  1       21 0.14340826E+00 0.54082296E+03</pdfrwt>
<pdfrwt beam="2">  1       21 0.52822433E-01 0.54082296E+03</pdfrwt>
<totfact> 0.93166084E+02</totfact>
</mgrwt>
</event>
<event>
 4    1  0.3945814E+000  0.2717493E+03  0.7546771E-02  0.1100283E+00
         21   -1    0    0  503  502  0.00000000000E+00  0.00000000000E+00  0.25172421450E+04  0.25172421450E+04  0.00000000000E+00 0.  1.
         21   -1    0    0  501  503 -0.00000000000E+00 -0.00000000000E+00 -0.34381016099E+02  0.34381016099E+02  0.00000000000E+00 0.  1.
          6    1    1    2  501    0  0.13421175072E+03 -0.16095298664E+03  0.17301132587E+04  0.17513250828E+04  0.17300000000E+03 0.  1.
         -6    1    1    2    0  502 -0.13421175072E+03  0.16095298664E+03  0.75274787023E+03  0.80029807827E+03  0.17300000000E+03 0.  1.
<mgrwt>
<rscale>  2 0.27174926E+03</rscale>
<asrwt>0</asrwt>
<pdfrwt beam="1">  1       21 0.38726788E+00 0.27174926E+03</pdfrwt>
<pdfrwt beam="2">  1       21 0.52893891E-02 0.27174926E+03</pdfrwt>
<totfact> 0.23229195E+03</totfact>
</mgrwt>
</event>
<event>
 4    1  0.3945814E+000  0.1732365E+03  0.7546771E-02  0.1174514E+00
         21   -1    0    0  501  502  0.00000000000E+00  0.00000000000E+00  0.18781930491E+04  0.18781930491E+04  0.00000000000E+00 0.  1.
         21   -1    0    0  502  503 -0.00000000000E+00 -0.00000000000E+00 -0.16661347741E+02  0.16661347741E+02  0.00000000000E+00 0.  1.
          6    1    1    2  501    0  0.45922812698E+01 -0.77971870575E+01  0.11225543940E+04  0.11358429701E+04  0.17300000000E+03 0.  1.
         -6    1    1    2    0  503 -0.45922812698E+01  0.77971870575E+01  0.73897730732E+03  0.75901142673E+03  0.17300000000E+03 0.  1.
<mgrwt>
<rscale>  2 0.17323650E+03</rscale>
<asrwt>0</asrwt>
<pdfrwt beam="1">  1       21 0.28895261E+00 0.17323650E+03</pdfrwt>
<pdfrwt beam="2">  1       21 0.25632858E-02 0.17323650E+03</pdfrwt>
<totfact> 0.33017630E+04</totfact>
</mgrwt>
</event>
<event>
 4    1  0.3945814E+000  0.2209097E+03  0.7546771E-02  0.1133207E+00
         21   -1    0    0  503  502  0.00000000000E+00  0.00000000000E+00  0.43625989934E+03  0.43625989934E+03  0.00000000000E+00 0.  1.
         21   -1    0    0  501  503 -0.00000000000E+00 -0.00000000000E+00 -0.15169932919E+03  0.15169932919E+03  0.00000000000E+00 0. -1.
          6    1    1    2  501    0  0.10521651653E+03  0.88326572548E+02 -0.83693451070E+01  0.22106819018E+03  0.17300000000E+03 0. -1.
         -6    1    1    2    0  502 -0.10521651653E+03 -0.88326572548E+02  0.29292991526E+03  0.36689103835E+03  0.17300000000E+03 0.  1.
<mgrwt>
<rscale>  2 0.22090971E+03</rscale>
<asrwt>0</asrwt>
<pdfrwt beam="1">  1       21 0.67116907E-01 0.22090971E+03</pdfrwt>
<pdfrwt beam="2">  1       21 0.23338359E-01 0.22090971E+03</pdfrwt>
<totfact> 0.34572459E+04</totfact>
</mgrwt>
</event>
<event>
 4    1  0.3945814E+000  0.1758412E+03  0.7546771E-02  0.1171890E+00
         21   -1    0    0  501  502  0.00000000000E+00  0.00000000000E+00  0.94156497992E+03  0.94156497992E+03  0.00000000000E+00 0. -1.
         21   -1    0    0  502  503 -0.00000000000E+00 -0.00000000000E+00 -0.63991397533E+02  0.63991397533E+02  0.00000000000E+00 0. -1.
          6    1    1    2  501    0  0.31396384406E+02  0.23224474492E+01  0.78958778847E+03  0.80893077727E+03  0.17300000000E+03 0. -1.
         -6    1    1    2    0  503 -0.31396384406E+02 -0.23224474492E+01  0.87985793917E+02  0.19662560018E+03  0.17300000000E+03 0. -1.
<mgrwt>
<rscale>  2 0.17584120E+03</rscale>
<asrwt>0</asrwt>
<pdfrwt beam="1">  1       21 0.14485614E+00 0.17584120E+03</pdfrwt>
<pdfrwt beam="2">  1       21 0.98448311E-02 0.17584120E+03</pdfrwt>
<totfact> 0.27613132E+04</totfact>
</mgrwt>
</event>
<event>
 4    1  0.3945814E+000  0.1769123E+03  0.7546771E-02  0.1170825E+00
         21   -1    0    0  501  502  0.00000000000E+00  0.00000000000E+00  0.35885038452E+03  0.35885038452E+03  0.00000000000E+00 0. -1.
         21   -1    0    0  502  503 -0.00000000000E+00 -0.00000000000E+00 -0.15577720117E+03  0.15577720117E+03  0.00000000000E+00 0.  1.
          6    1    1    2  501    0  0.36318442189E+02  0.70662030555E+01  0.27224158301E+03  0.32467435992E+03  0.17300000000E+03 0. -1.
         -6    1    1    2    0  503 -0.36318442189E+02 -0.70662030555E+01 -0.69168399661E+02  0.18995322577E+03  0.17300000000E+03 0.  1.
<mgrwt>
<rscale>  2 0.17691230E+03</rscale>
<asrwt>0</asrwt>
<pdfrwt beam="1">  1       21 0.55207751E-01 0.17691230E+03</pdfrwt>
<pdfrwt beam="2">  1       21 0.23965723E-01 0.17691230E+03</pdfrwt>
<totfact> 0.51177734E+04</totfact>
</mgrwt>
</event>
<event>
 4    1  0.3945814E+000  0.1955390E+03  0.7546771E-02  0.1153558E+00
         21   -1    0    0  503  502  0.00000000000E+00  0.00000000000E+00  0.39079795851E+03  0.39079795851E+03  0.00000000000E+00 0. -1.
         21   -1    0    0  501  503 -0.00000000000E+00 -0.00000000000E+00 -0.20416568792E+03  0.20416568792E+03  0.00000000000E+00 0. -1.
          6    1    1    2  501    0  0.79263128242E+02  0.44987375488E+02 -0.12136259513E+03  0.23013992906E+03  0.17300000000E+03 0. -1.
         -6    1    1    2    0  502 -0.79263128242E+02 -0.44987375488E+02  0.30799486571E+03  0.36482371737E+03  0.17300000000E+03 0. -1.
<mgrwt>
<rscale>  2 0.19553902E+03</rscale>
<asrwt>0</asrwt>
<pdfrwt beam="1">  1       21 0.60122763E-01 0.19553902E+03</pdfrwt>
<pdfrwt beam="2">  1       21 0.31410106E-01 0.19553902E+03</pdfrwt>
<totfact> 0.25090471E+04</totfact>
</mgrwt>
</event>
<event>
 4    1  0.3945814E+000  0.2176215E+03  0.7546771E-02  0.1135669E+00
         21   -1    0    0  501  502  0.00000000000E+00  0.00000000000E+00  0.23715133223E+03  0.23715133223E+03  0.00000000000E+00 0.  1.
         21   -1    0    0  502  503 -0.00000000000E+00 -0.00000000000E+00 -0.25355935098E+03  0.25355935098E+03  0.00000000000E+00 0.  1.
          6    1    1    2  501    0 -0.25874926398E+02 -0.12946271851E+03  0.10487617117E+03  0.24157425066E+03  0.17300000000E+03 0.  1.
         -6    1    1    2    0  503  0.25874926398E+02  0.12946271851E+03 -0.12128418992E+03  0.24913643256E+03  0.17300000000E+03 0.  1.
<mgrwt>
<rscale>  2 0.21762148E+03</rscale>
<asrwt>0</asrwt>
<pdfrwt beam="1">  1       21 0.36484820E-01 0.21762148E+03</pdfrwt>
<pdfrwt beam="2">  1       21 0.39009131E-01 0.21762148E+03</pdfrwt>
<totfact> 0.45349506E+04</totfact>
</mgrwt>
</event>
<event>
 4    1  0.3945814E+000  0.2149726E+03  0.7546771E-02  0.1137688E+00
         21   -1    0    0  501  502  0.00000000000E+00  0.00000000000E+00  0.20482527496E+03  0.20482527496E+03  0.00000000000E+00 0.  1.
         21   -1    0    0  502  503 -0.00000000000E+00 -0.00000000000E+00 -0.25250394073E+03  0.25250394073E+03  0.00000000000E+00 0. -1.
          6    1    1    2  501    0 -0.96212689708E+02 -0.83829198273E+02  0.50769480674E+02  0.22088629725E+03  0.17300000000E+03 0.  1.
         -6    1    1    2    0  503  0.96212689708E+02  0.83829198273E+02 -0.98448146449E+02  0.23644291845E+03  0.17300000000E+03 0. -1.
<mgrwt>
<rscale>  2 0.21497259E+03</rscale>
<asrwt>0</asrwt>
<pdfrwt beam="1">  1       21 0.31511581E-01 0.21497259E+03</pdfrwt>
<pdfrwt beam="2">  1       21 0.38846760E-01 0.21497259E+03</pdfrwt>
<totfact> 0.61226557E+04</totfact>
</mgrwt>
</event>
<event>
 4    1  0.3945814E+000  0.1772106E+03  0.7546771E-02  0.1170530E+00
         21   -1    0    0  501  502  0.00000000000E+00  0.00000000000E+00  0.11937681714E+03  0.11937681714E+03  0.00000000000E+00 0. -1.
         21   -1    0    0  502  503 -0.00000000000E+00 -0.00000000000E+00 -0.30418965116E+03  0.30418965116E+03  0.00000000000E+00 0. -1.
          6    1    1    2  501    0  0.44923129947E+01 -0.38136782855E+02 -0.14534243621E+02  0.17780562230E+03  0.17300000000E+03 0. -1.
         -6    1    1    2    0  503 -0.44923129947E+01  0.38136782855E+02 -0.17027859039E+03  0.24576084600E+03  0.17300000000E+03 0. -1.
<mgrwt>
<rscale>  2 0.17721060E+03</rscale>
<asrwt>0</asrwt>
<pdfrwt beam="1">  1       21 0.18365664E-01 0.17721060E+03</pdfrwt>
<pdfrwt beam="2">  1       21 0.46798408E-01 0.17721060E+03</pdfrwt>
<totfact> 0.11889626E+05</totfact>
</mgrwt>
</event>
<event>
 4    1  0.3945814E+000  0.1805247E+03  0.7546771E-02  0.1167296E+00
         21   -1    0    0  503  502  0.00000000000E+00  0.00000000000E+00  0.49326186003E+02  0.49326186003E+02  0.00000000000E+00 0. -1.
         21   -1    0    0  501  503 -0.00000000000E+00 -0.00000000000E+00 -0.67863244984E+03  0.67863244984E+03  0.00000000000E+00 0. -1.
          6    1    1    2  501    0 -0.31953293417E+02  0.40486668769E+02 -0.37384107797E+03  0.41514616087E+03  0.17300000000E+03 0.  1.
         -6    1    1    2    0  502  0.31953293417E+02 -0.40486668769E+02 -0.25546518587E+03  0.31281247498E+03  0.17300000000E+03 0.  1.
<mgrwt>
<rscale>  2 0.18052474E+03</rscale>
<asrwt>0</asrwt>
<pdfrwt beam="1">  1       21 0.75886444E-02 0.18052474E+03</pdfrwt>
<pdfrwt beam="2">  1       21 0.10440499E+00 0.18052474E+03</pdfrwt>
<totfact> 0.97914421E+04</totfact>
</mgrwt>
</event>
<event>
 4    1  0.3945814E+000  0.2376713E+03  0.7546771E-02  0.1121354E+00
         21   -1    0    0  501  502  0.00000000000E+00  0.00000000000E+00  0.38361043261E+03  0.38361043261E+03  0.00000000000E+00 0.  1.
         21   -1    0    0  502  503 -0.00000000000E+00 -0.00000000000E+00 -0.15313090729E+03  0.15313090729E+03  0.00000000000E+00 0. -1.
          6    1    1    2  501    0  0.15092536532E+03  0.61483340720E+02  0.16782048399E+03  0.29094910539E+03  0.17300000000E+03 0.  1.
         -6    1    1    2    0  503 -0.15092536532E+03 -0.61483340720E+02  0.62659041335E+02  0.24579223451E+03  0.17300000000E+03 0. -1.
<mgrwt>
<rscale>  2 0.23767134E+03</rscale>
<asrwt>0</asrwt>
<pdfrwt beam="1">  1       21 0.59016989E-01 0.23767134E+03</pdfrwt>
<pdfrwt beam="2">  1       21 0.23558601E-01 0.23767134E+03</pdfrwt>
<totfact> 0.44572566E+04</totfact>
</mgrwt>
</event>
<event>
 4    1  0.3945814E+000  0.1826523E+03  0.7546771E-02  0.1165261E+00
         21   -1    0    0  503  502  0.00000000000E+00  0.00000000000E+00  0.27950334677E+03  0.27950334677E+03  0.00000000000E+00 0.  1.
         21   -1    0    0  501  503 -0.00000000000E+00 -0.00000000000E+00 -0.12034183434E+03  0.12034183434E+03  0.00000000000E+00 0.  1.
          6    1    1    2  501    0 -0.55872272943E+02  0.17639799985E+02  0.97627232181E+02  0.20710613195E+03  0.17300000000E+03 0.  1.
         -6    1    1    2    0  502  0.55872272943E+02 -0.17639799985E+02  0.61534280246E+02  0.19273904916E+03  0.17300000000E+03 0.  1.
<mgrwt>
<rscale>  2 0.18265233E+03</rscale>
<asrwt>0</asrwt>
<pdfrwt beam="1">  1       21 0.43000515E-01 0.18265233E+03</pdfrwt>
<pdfrwt beam="2">  1       21 0.18514128E-01 0.18265233E+03</pdfrwt>
<totfact> 0.13905717E+05</totfact>
</mgrwt>
</event>
<event>
 4    1  0.3945814E+000  0.1809198E+03  0.7546771E-02  0.1166916E+00
         21   -1    0    0  503  502  0.00000000000E+00  0.00000000000E+00  0.70306513277E+02  0.70306513277E+02  0.00000000000E+00 0.  1.
         21   -1    0    0  501  503 -0.00000000000E+00 -0.00000000000E+00 -0.65298338416E+03  0.65298338416E+03  0.00000000000E+00 0.  1.
          6    1    1    2  501    0  0.88417962321E+01 -0.52199715993E+02 -0.48508846876E+03  0.51772851016E+03  0.17300000000E+03 0.  1.
         -6    1    1    2    0  502 -0.88417962321E+01  0.52199715993E+02 -0.97588402128E+02  0.20556138728E+03  0.17300000000E+03 0.  1.
<mgrwt>
<rscale>  2 0.18091984E+03</rscale>
<asrwt>0</asrwt>
<pdfrwt beam="1">  1       21 0.10816386E-01 0.18091984E+03</pdfrwt>
<pdfrwt beam="2">  1       21 0.10045899E+00 0.18091984E+03</pdfrwt>
<totfact> 0.57668567E+04</totfact>
</mgrwt>
</event>
<event>
 4    1  0.3945814E+000  0.2149451E+03  0.7546771E-02  0.1137709E+00
         21   -1    0    0  501  502  0.00000000000E+00  0.00000000000E+00  0.17389383248E+03  0.17389383248E+03  0.00000000000E+00 0. -1.
         21   -1    0    0  502  503 -0.00000000000E+00 -0.00000000000E+00 -0.56445476165E+03  0.56445476165E+03  0.00000000000E+00 0.  1.
          6    1    1    2  501    0  0.12614398711E+03  0.18975628342E+02  0.73305643899E+02  0.22710151339E+03  0.17300000000E+03 0. -1.
         -6    1    1    2    0  503 -0.12614398711E+03 -0.18975628342E+02 -0.46386657307E+03  0.51124708074E+03  0.17300000000E+03 0.  1.
<mgrwt>
<rscale>  2 0.21494506E+03</rscale>
<asrwt>0</asrwt>
<pdfrwt beam="1">  1       21 0.26752897E-01 0.21494506E+03</pdfrwt>
<pdfrwt beam="2">  1       21 0.86839196E-01 0.21494506E+03</pdfrwt>
<totfact> 0.14963352E+04</totfact>
</mgrwt>
</event>
<event>
 4    1  0.3945814E+000  0.2133309E+03  0.7546771E-02  0.1138955E+00
         21   -1    0    0  501  502  0.00000000000E+00  0.00000000000E+00  0.23974142039E+03  0.23974142039E+03  0.00000000000E+00 0.  1.
         21   -1    0    0  502  503 -0.00000000000E+00 -0.00000000000E+00 -0.24919250029E+03  0.24919250029E+03  0.00000000000E+00 0.  1.
          6    1    1    2  501    0 -0.62609702976E+02 -0.10798657764E+03 -0.12404447281E+03  0.24677339219E+03  0.17300000000E+03 0.  1.
         -6    1    1    2    0  503  0.62609702976E+02  0.10798657764E+03  0.11459339292E+03  0.24216052849E+03  0.17300000000E+03 0.  1.
<mgrwt>
<rscale>  2 0.21333091E+03</rscale>
<asrwt>0</asrwt>
<pdfrwt beam="1">  1       21 0.36883295E-01 0.21333091E+03</pdfrwt>
<pdfrwt beam="2">  1       21 0.38337308E-01 0.21333091E+03</pdfrwt>
<totfact> 0.46047369E+04</totfact>
</mgrwt>
</event>
<event>
 4    1  0.3945814E+000  0.1986190E+03  0.7546771E-02  0.1150909E+00
         21   -1    0    0  501  502  0.00000000000E+00  0.00000000000E+00  0.48916138991E+02  0.48916138991E+02  0.00000000000E+00 0.  1.
         21   -1    0    0  502  503 -0.00000000000E+00 -0.00000000000E+00 -0.10178365878E+04  0.10178365878E+04  0.00000000000E+00 0.  1.
          6    1    1    2  501    0  0.92221506700E+02  0.31870305906E+02 -0.24140201227E+03  0.31260910771E+03  0.17300000000E+03 0.  1.
         -6    1    1    2    0  503 -0.92221506700E+02 -0.31870305906E+02 -0.72751843658E+03  0.75414361912E+03  0.17300000000E+03 0.  1.
<mgrwt>
<rscale>  2 0.19861904E+03</rscale>
<asrwt>0</asrwt>
<pdfrwt beam="1">  1       21 0.75255603E-02 0.19861904E+03</pdfrwt>
<pdfrwt beam="2">  1       21 0.15659023E+00 0.19861904E+03</pdfrwt>
<totfact> 0.35460197E+04</totfact>
</mgrwt>
</event>
<event>
 4    1  0.3945814E+000  0.1947203E+03  0.7546771E-02  0.1154272E+00
         21   -1    0    0  501  502  0.00000000000E+00  0.00000000000E+00  0.11716322076E+03  0.11716322076E+03  0.00000000000E+00 0.  1.
         21   -1    0    0  502  503 -0.00000000000E+00 -0.00000000000E+00 -0.42342415161E+03  0.42342415161E+03  0.00000000000E+00 0.  1.
          6    1    1    2  501    0  0.86755827487E+02 -0.21457581063E+02 -0.21901689151E+02  0.19594817013E+03  0.17300000000E+03 0.  1.
         -6    1    1    2    0  503 -0.86755827487E+02  0.21457581063E+02 -0.28435924170E+03  0.34463920225E+03  0.17300000000E+03 0.  1.
<mgrwt>
<rscale>  2 0.19472032E+03</rscale>
<asrwt>0</asrwt>
<pdfrwt beam="1">  1       21 0.18025111E-01 0.19472032E+03</pdfrwt>
<pdfrwt beam="2">  1       21 0.65142176E-01 0.19472032E+03</pdfrwt>
<totfact> 0.60687669E+04</totfact>
</mgrwt>
</event>
<event>
 4    1  0.3945814E+000  0.1861217E+03  0.7546771E-02  0.1162007E+00
         21   -1    0    0  501  502  0.00000000000E+00  0.00000000000E+00  0.20621000073E+03  0.20621000073E+03  0.00000000000E+00 0. -1.
         21   -1    0    0  502  503 -0.00000000000E+00 -0.00000000000E+00 -0.18264740257E+03  0.18264740257E+03  0.00000000000E+00 0. -1.
          6    1    1    2  501    0 -0.80831412829E+01  0.68168462479E+02  0.66859270486E+02  0.19776612071E+03  0.17300000000E+03 0. -1.
         -6    1    1    2    0  503  0.80831412829E+01 -0.68168462479E+02 -0.43296672322E+02  0.19109128260E+03  0.17300000000E+03 0. -1.
<mgrwt>
<rscale>  2 0.18612167E+03</rscale>
<asrwt>0</asrwt>
<pdfrwt beam="1">  1       21 0.31724616E-01 0.18612167E+03</pdfrwt>
<pdfrwt beam="2">  1       21 0.28099600E-01 0.18612167E+03</pdfrwt>
<totfact> 0.11585978E+05</totfact>
</mgrwt>
</event>
<event>
 4    1  0.3945814E+000  0.2026535E+03  0.7546771E-02  0.1147519E+00
         21   -1    0    0  503  502  0.00000000000E+00  0.00000000000E+00  0.16133613082E+03  0.16133613082E+03  0.00000000000E+00 0.  1.
         21   -1    0    0  501  503 -0.00000000000E+00 -0.00000000000E+00 -0.26563387744E+03  0.26563387744E+03  0.00000000000E+00 0.  1.
          6    1    1    2  501    0 -0.24760668179E+02 -0.10259792441E+03 -0.95753595893E+02  0.22413651177E+03  0.17300000000E+03 0.  1.
         -6    1    1    2    0  502  0.24760668179E+02  0.10259792441E+03 -0.85441507253E+01  0.20283349648E+03  0.17300000000E+03 0.  1.
<mgrwt>
<rscale>  2 0.20265346E+03</rscale>
<asrwt>0</asrwt>
<pdfrwt beam="1">  1       21 0.24820943E-01 0.20265346E+03</pdfrwt>
<pdfrwt beam="2">  1       21 0.40866750E-01 0.20265346E+03</pdfrwt>
<totfact> 0.88200302E+04</totfact>
</mgrwt>
</event>
<event>
 4    1  0.3945814E+000  0.2232227E+03  0.7546771E-02  0.1131503E+00
         21   -1    0    0  501  502  0.00000000000E+00  0.00000000000E+00  0.30614390597E+02  0.30614390597E+02  0.00000000000E+00 0. -1.
         21   -1    0    0  502  503 -0.00000000000E+00 -0.00000000000E+00 -0.16294791652E+04  0.16294791652E+04  0.00000000000E+00 0. -1.
          6    1    1    2  501    0  0.10629748769E+03  0.92737459095E+02 -0.82751951127E+03  0.85709797208E+03  0.17300000000E+03 0. -1.
         -6    1    1    2    0  503 -0.10629748769E+03 -0.92737459095E+02 -0.77134526337E+03  0.80299558376E+03  0.17300000000E+03 0. -1.
<mgrwt>
<rscale>  2 0.22322274E+03</rscale>
<asrwt>0</asrwt>
<pdfrwt beam="1">  1       21 0.47099044E-02 0.22322274E+03</pdfrwt>
<pdfrwt beam="2">  1       21 0.25068920E+00 0.22322274E+03</pdfrwt>
<totfact> 0.19110819E+04</totfact>
</mgrwt>
</event>
<event>
 4    1  0.3945814E+000  0.1875057E+03  0.7546771E-02  0.1160730E+00
         21   -1    0    0  503  502  0.00000000000E+00  0.00000000000E+00  0.10354127597E+04  0.10354127597E+04  0.00000000000E+00 0.  1.
         21   -1    0    0  501  503 -0.00000000000E+00 -0.00000000000E+00 -0.34027101137E+02  0.34027101137E+02  0.00000000000E+00 0.  1.
          6    1    1    2  501    0 -0.41954289284E+02  0.58900271228E+02  0.47623812265E+03  0.51182140812E+03  0.17300000000E+03 0.  1.
         -6    1    1    2    0  502  0.41954289284E+02 -0.58900271228E+02  0.52514753593E+03  0.55761845274E+03  0.17300000000E+03 0.  1.
<mgrwt>
<rscale>  2 0.18750574E+03</rscale>
<asrwt>0</asrwt>
<pdfrwt beam="1">  1       21 0.15929425E+00 0.18750574E+03</pdfrwt>
<pdfrwt beam="2">  1       21 0.52349394E-02 0.18750574E+03</pdfrwt>
<totfact> 0.63555403E+04</totfact>
</mgrwt>
</event>
<event>
 4    1  0.3945814E+000  0.2253952E+03  0.7546771E-02  0.1129923E+00
         21   -1    0    0  501  502  0.00000000000E+00  0.00000000000E+00  0.52503717887E+03  0.52503717887E+03  0.00000000000E+00 0.  1.
         21   -1    0    0  502  503 -0.00000000000E+00 -0.00000000000E+00 -0.25940595186E+03  0.25940595186E+03  0.00000000000E+00 0.  1.
          6    1    1    2  501    0  0.21417765860E+02  0.14288201863E+03  0.44338749027E+03  0.49738863927E+03  0.17300000000E+03 0.  1.
         -6    1    1    2    0  503 -0.21417765860E+02 -0.14288201863E+03 -0.17775626326E+03  0.28705449147E+03  0.17300000000E+03 0.  1.
<mgrwt>
<rscale>  2 0.22539519E+03</rscale>
<asrwt>0</asrwt>
<pdfrwt beam="1">  1       21 0.80774950E-01 0.22539519E+03</pdfrwt>
<pdfrwt beam="2">  1       21 0.39908608E-01 0.22539519E+03</pdfrwt>
<totfact> 0.79611712E+03</totfact>
</mgrwt>
</event>
<event>
 4    1  0.3945814E+000  0.2176931E+03  0.7546771E-02  0.1135615E+00
         21   -1    0    0  503  502  0.00000000000E+00  0.00000000000E+00  0.81123346151E+03  0.81123346151E+03  0.00000000000E+00 0. -1.
         21   -1    0    0  501  503 -0.00000000000E+00 -0.00000000000E+00 -0.74748701530E+02  0.74748701530E+02  0.00000000000E+00 0. -1.
          6    1    1    2  501    0 -0.13058948183E+03 -0.20190619443E+02  0.16117984889E+03  0.27086752770E+03  0.17300000000E+03 0. -1.
         -6    1    1    2    0  502  0.13058948183E+03  0.20190619443E+02  0.57530491109E+03  0.61511463533E+03  0.17300000000E+03 0. -1.
<mgrwt>
<rscale>  2 0.21769307E+03</rscale>
<asrwt>0</asrwt>
<pdfrwt beam="1">  1       21 0.12480514E+00 0.21769307E+03</pdfrwt>
<pdfrwt beam="2">  1       21 0.11499801E-01 0.21769307E+03</pdfrwt>
<totfact> 0.29885073E+04</totfact>
</mgrwt>
</event>
<event>
 4    1  0.3945814E+000  0.2002821E+03  0.7546771E-02  0.1149501E+00
         21   -1    0    0  501  502  0.00000000000E+00  0.00000000000E+00  0.19062461317E+03  0.19062461317E+03  0.00000000000E+00 0. -1.
         21   -1    0    0  502  503 -0.00000000000E+00 -0.00000000000E+00 -0.34034228066E+03  0.34034228066E+03  0.00000000000E+00 0. -1.
          6    1    1    2  501    0 -0.98454914784E+02 -0.22148106254E+02  0.89164865501E+02  0.21923339640E+03  0.17300000000E+03 0. -1.
         -6    1    1    2    0  503  0.98454914784E+02  0.22148106254E+02 -0.23888253298E+03  0.31173349743E+03  0.17300000000E+03 0. -1.
<mgrwt>
<rscale>  2 0.20028207E+03</rscale>
<asrwt>0</asrwt>
<pdfrwt beam="1">  1       21 0.29326864E-01 0.20028207E+03</pdfrwt>
<pdfrwt beam="2">  1       21 0.52360350E-01 0.20028207E+03</pdfrwt>
<totfact> 0.38380896E+04</totfact>
</mgrwt>
</event>
<event>
 4    1  0.3945814E+000  0.2016581E+03  0.7546771E-02  0.1148348E+00
         21   -1    0    0  501  502  0.00000000000E+00  0.00000000000E+00  0.14930268457E+04  0.14930268457E+04  0.00000000000E+00 0. -1.
         21   -1    0    0  502  503 -0.00000000000E+00 -0.00000000000E+00 -0.59952341402E+02  0.59952341402E+02  0.00000000000E+00 0. -1.
          6    1    1    2  501    0  0.61335752534E+02 -0.83516014384E+02  0.12901336236E+04  0.13057988995E+04  0.17300000000E+03 0. -1.
         -6    1    1    2    0  503 -0.61335752534E+02  0.83516014384E+02  0.14294088067E+03  0.24718028757E+03  0.17300000000E+03 0. -1.
<mgrwt>
<rscale>  2 0.20165812E+03</rscale>
<asrwt>0</asrwt>
<pdfrwt beam="1">  1       21 0.22969641E+00 0.20165812E+03</pdfrwt>
<pdfrwt beam="2">  1       21 0.92234383E-02 0.20165812E+03</pdfrwt>
<totfact> 0.81493958E+03</totfact>
</mgrwt>
</event>
<event>
 4    1  0.3945814E+000  0.2258728E+03  0.7546771E-02  0.1129579E+00
         21   -1    0    0  503  502  0.00000000000E+00  0.00000000000E+00  0.31647089046E+03  0.31647089046E+03  0.00000000000E+00 0.  1.
         21   -1    0    0  501  503 -0.00000000000E+00 -0.00000000000E+00 -0.16143735223E+03  0.16143735223E+03  0.00000000000E+00 0.  1.
          6    1    1    2  501    0 -0.13660196608E+03  0.49289269697E+02  0.86468048782E+02  0.24185791842E+03  0.17300000000E+03 0.  1.
         -6    1    1    2    0  502  0.13660196608E+03 -0.49289269697E+02  0.68565489439E+02  0.23605032427E+03  0.17300000000E+03 0.  1.
<mgrwt>
<rscale>  2 0.22587282E+03</rscale>
<asrwt>0</asrwt>
<pdfrwt beam="1">  1       21 0.48687829E-01 0.22587282E+03</pdfrwt>
<pdfrwt beam="2">  1       21 0.24836516E-01 0.22587282E+03</pdfrwt>
<totfact> 0.60860088E+04</totfact>
</mgrwt>
</event>
<event>
 4    1  0.3945814E+000  0.2309612E+03  0.7546771E-02  0.1125965E+00
         21   -1    0    0  501  502  0.00000000000E+00  0.00000000000E+00  0.96605710121E+03  0.96605710121E+03  0.00000000000E+00 0.  1.
         21   -1    0    0  502  503 -0.00000000000E+00 -0.00000000000E+00 -0.10205906896E+03  0.10205906896E+03  0.00000000000E+00 0.  1.
          6    1    1    2  501    0 -0.22008182773E+02 -0.15142559616E+03  0.79380796616E+03  0.82672495936E+03  0.17300000000E+03 0.  1.
         -6    1    1    2    0  503  0.22008182773E+02  0.15142559616E+03  0.70190066084E+02  0.24139121081E+03  0.17300000000E+03 0.  1.
<mgrwt>
<rscale>  2 0.23096119E+03</rscale>
<asrwt>0</asrwt>
<pdfrwt beam="1">  1       21 0.14862416E+00 0.23096119E+03</pdfrwt>
<pdfrwt beam="2">  1       21 0.15701396E-01 0.23096119E+03</pdfrwt>
<totfact> 0.10757414E+04</totfact>
</mgrwt>
</event>
<event>
 4    1  0.3945814E+000  0.1990735E+03  0.7546771E-02  0.1150523E+00
         21   -1    0    0  503  502  0.00000000000E+00  0.00000000000E+00  0.53529602207E+02  0.53529602207E+02  0.00000000000E+00 0. -1.
         21   -1    0    0  501  503 -0.00000000000E+00 -0.00000000000E+00 -0.20592142952E+04  0.20592142952E+04  0.00000000000E+00 0. -1.
          6    1    1    2  501    0 -0.47861482336E+02  0.86084574486E+02 -0.18482521270E+04  0.18589422262E+04  0.17300000000E+03 0. -1.
         -6    1    1    2    0  502  0.47861482336E+02 -0.86084574486E+02 -0.15743256596E+03  0.25380167115E+03  0.17300000000E+03 0. -1.
<mgrwt>
<rscale>  2 0.19907354E+03</rscale>
<asrwt>0</asrwt>
<pdfrwt beam="1">  1       21 0.82353245E-02 0.19907354E+03</pdfrwt>
<pdfrwt beam="2">  1       21 0.31680216E+00 0.19907354E+03</pdfrwt>
<totfact> 0.30913093E+03</totfact>
</mgrwt>
</event>
<event>
 4    1  0.3945814E+000  0.1827886E+03  0.7546771E-02  0.1165131E+00
         21   -1    0    0  501  502  0.00000000000E+00  0.00000000000E+00  0.48495555870E+03  0.48495555870E+03  0.00000000000E+00 0.  1.
         21   -1    0    0  502  503 -0.00000000000E+00 -0.00000000000E+00 -0.86049809836E+02  0.86049809836E+02  0.00000000000E+00 0.  1.
          6    1    1    2  501    0  0.51042516051E+02 -0.29619566049E+02  0.32692387197E+03  0.37455423533E+03  0.17300000000E+03 0.  1.
         -6    1    1    2    0  503 -0.51042516051E+02  0.29619566049E+02  0.71981876893E+02  0.19645113321E+03  0.17300000000E+03 0.  1.
<mgrwt>
<rscale>  2 0.18278856E+03</rscale>
<asrwt>0</asrwt>
<pdfrwt beam="1">  1       21 0.74608546E-01 0.18278856E+03</pdfrwt>
<pdfrwt beam="2">  1       21 0.13238433E-01 0.18278856E+03</pdfrwt>
<totfact> 0.79459739E+04</totfact>
</mgrwt>
</event>
<event>
 4    1  0.3945814E+000  0.1784448E+03  0.7546771E-02  0.1169317E+00
         21   -1    0    0  501  502  0.00000000000E+00  0.00000000000E+00  0.38825728568E+02  0.38825728568E+02  0.00000000000E+00 0.  1.
         21   -1    0    0  502  503 -0.00000000000E+00 -0.00000000000E+00 -0.19507913746E+04  0.19507913746E+04  0.00000000000E+00 0.  1.
          6    1    1    2  501    0 -0.42403795498E+02 -0.10745217940E+02 -0.19862971540E+03  0.26701368022E+03  0.17300000000E+03 0.  1.
         -6    1    1    2    0  503  0.42403795498E+02  0.10745217940E+02 -0.17133359306E+04  0.17226034229E+04  0.17300000000E+03 0.  1.
<mgrwt>
<rscale>  2 0.17844479E+03</rscale>
<asrwt>0</asrwt>
<pdfrwt beam="1">  1       21 0.59731885E-02 0.17844479E+03</pdfrwt>
<pdfrwt beam="2">  1       21 0.30012177E+00 0.17844479E+03</pdfrwt>
<totfact> 0.68845357E+03</totfact>
</mgrwt>
</event>
<event>
 4    1  0.3945814E+000  0.1739080E+03  0.7546771E-02  0.1173833E+00
         21   -1    0    0  503  502  0.00000000000E+00  0.00000000000E+00  0.21780073107E+03  0.21780073107E+03  0.00000000000E+00 0. -1.
         21   -1    0    0  501  503 -0.00000000000E+00 -0.00000000000E+00 -0.14075775448E+03  0.14075775448E+03  0.00000000000E+00 0. -1.
          6    1    1    2  501    0 -0.12794115414E+02 -0.12300741237E+02  0.59333545476E+02  0.18375110134E+03  0.17300000000E+03 0. -1.
         -6    1    1    2    0  502  0.12794115414E+02  0.12300741237E+02  0.17709431116E+02  0.17480738421E+03  0.17300000000E+03 0. -1.
<mgrwt>
<rscale>  2 0.17390801E+03</rscale>
<asrwt>0</asrwt>
<pdfrwt beam="1">  1       21 0.33507805E-01 0.17390801E+03</pdfrwt>
<pdfrwt beam="2">  1       21 0.21655039E-01 0.17390801E+03</pdfrwt>
<totfact> 0.17157340E+05</totfact>
</mgrwt>
</event>
<event>
 4    1  0.3945814E+000  0.1938896E+03  0.7546771E-02  0.1154999E+00
         21   -1    0    0  501  502  0.00000000000E+00  0.00000000000E+00  0.14960105436E+03  0.14960105436E+03  0.00000000000E+00 0. -1.
         21   -1    0    0  502  503 -0.00000000000E+00 -0.00000000000E+00 -0.88654796222E+03  0.88654796222E+03  0.00000000000E+00 0. -1.
          6    1    1    2  501    0  0.54782066876E+02  0.68286805506E+02  0.70073765017E+02  0.20616375821E+03  0.17300000000E+03 0. -1.
         -6    1    1    2    0  503 -0.54782066876E+02 -0.68286805506E+02 -0.80702067288E+03  0.82998525837E+03  0.17300000000E+03 0. -1.
<mgrwt>
<rscale>  2 0.19388956E+03</rscale>
<asrwt>0</asrwt>
<pdfrwt beam="1">  1       21 0.23015547E-01 0.19388956E+03</pdfrwt>
<pdfrwt beam="2">  1       21 0.13639200E+00 0.19388956E+03</pdfrwt>
<totfact> 0.67774124E+03</totfact>
</mgrwt>
</event>
<event>
 4    1  0.3945814E+000  0.1981255E+03  0.7546771E-02  0.1151330E+00
         21   -1    0    0  503  502  0.00000000000E+00  0.00000000000E+00  0.39726285625E+03  0.39726285625E+03  0.00000000000E+00 0.  1.
         21   -1    0    0  501  503 -0.00000000000E+00 -0.00000000000E+00 -0.32666415046E+03  0.32666415046E+03  0.00000000000E+00 0.  1.
          6    1    1    2  501    0  0.28832351873E+02  0.92159604714E+02 -0.26700343099E+03  0.33248237459E+03  0.17300000000E+03 0.  1.
         -6    1    1    2    0  502 -0.28832351873E+02 -0.92159604714E+02  0.33760213677E+03  0.39144463211E+03  0.17300000000E+03 0.  1.
<mgrwt>
<rscale>  2 0.19812546E+03</rscale>
<asrwt>0</asrwt>
<pdfrwt beam="1">  1       21 0.61117362E-01 0.19812546E+03</pdfrwt>
<pdfrwt beam="2">  1       21 0.50256023E-01 0.19812546E+03</pdfrwt>
<totfact> 0.93530785E+03</totfact>
</mgrwt>
</event>
<event>
 4    1  0.3945814E+000  0.1954712E+03  0.7546771E-02  0.1153617E+00
         21   -1    0    0  501  502  0.00000000000E+00  0.00000000000E+00  0.27000355820E+03  0.27000355820E+03  0.00000000000E+00 0. -1.
         21   -1    0    0  502  503 -0.00000000000E+00 -0.00000000000E+00 -0.23751669832E+03  0.23751669832E+03  0.00000000000E+00 0. -1.
          6    1    1    2  501    0  0.47889014721E+02 -0.77373294439E+02  0.17757543711E+03  0.26408714525E+03  0.17300000000E+03 0. -1.
         -6    1    1    2    0  503 -0.47889014721E+02  0.77373294439E+02 -0.14508857723E+03  0.24343311128E+03  0.17300000000E+03 0. -1.
<mgrwt>
<rscale>  2 0.19547119E+03</rscale>
<asrwt>0</asrwt>
<pdfrwt beam="1">  1       21 0.41539009E-01 0.19547119E+03</pdfrwt>
<pdfrwt beam="2">  1       21 0.36541031E-01 0.19547119E+03</pdfrwt>
<totfact> 0.40245878E+04</totfact>
</mgrwt>
</event>
<event>
 4    1  0.3945814E+000  0.1968113E+03  0.7546771E-02  0.1152458E+00
         21   -1    0    0  503  502  0.00000000000E+00  0.00000000000E+00  0.60996020831E+03  0.60996020831E+03  0.00000000000E+00 0.  1.
         21   -1    0    0  501  503 -0.00000000000E+00 -0.00000000000E+00 -0.66256311840E+02  0.66256311840E+02  0.00000000000E+00 0.  1.
          6    1    1    2  501    0  0.51979972323E+02 -0.78126747029E+02  0.20293631718E+03  0.28269746188E+03  0.17300000000E+03 0.  1.
         -6    1    1    2    0  502 -0.51979972323E+02  0.78126747029E+02  0.34076757929E+03  0.39351905827E+03  0.17300000000E+03 0.  1.
<mgrwt>
<rscale>  2 0.19681135E+03</rscale>
<asrwt>0</asrwt>
<pdfrwt beam="1">  1       21 0.93840028E-01 0.19681135E+03</pdfrwt>
<pdfrwt beam="2">  1       21 0.10193279E-01 0.19681135E+03</pdfrwt>
<totfact> 0.74642686E+04</totfact>
</mgrwt>
</event>
<event>
 4    1  0.3945814E+000  0.6754317E+03  0.7546771E-02  0.9760195E-01
         21   -1    0    0  501  502  0.00000000000E+00  0.00000000000E+00  0.34603275075E+03  0.34603275075E+03  0.00000000000E+00 0.  1.
         21   -1    0    0  502  503 -0.00000000000E+00 -0.00000000000E+00 -0.19754231727E+04  0.19754231727E+04  0.00000000000E+00 0. -1.
          6    1    1    2  501    0  0.17504440165E+03 -0.62899795580E+03 -0.14528512178E+03  0.69088040757E+03  0.17300000000E+03 0.  1.
         -6    1    1    2    0  503 -0.17504440165E+03  0.62899795580E+03 -0.14841053002E+04  0.16305755159E+04  0.17300000000E+03 0. -1.
<mgrwt>
<rscale>  2 0.67543169E+03</rscale>
<asrwt>0</asrwt>
<pdfrwt beam="1">  1       21 0.53235808E-01 0.67543169E+03</pdfrwt>
<pdfrwt beam="2">  1       21 0.30391126E+00 0.67543169E+03</pdfrwt>
<totfact> 0.74042707E+01</totfact>
</mgrwt>
</event>
<event>
 4    1  0.3945814E+000  0.1771574E+03  0.7546771E-02  0.1170583E+00
         21   -1    0    0  501  502  0.00000000000E+00  0.00000000000E+00  0.65197605940E+03  0.65197605940E+03  0.00000000000E+00 0.  1.
         21   -1    0    0  502  503 -0.00000000000E+00 -0.00000000000E+00 -0.49151622035E+02  0.49151622035E+02  0.00000000000E+00 0.  1.
          6    1    1    2  501    0 -0.28843640466E+02  0.24975534142E+02  0.35175833739E+03  0.39385106427E+03  0.17300000000E+03 0.  1.
         -6    1    1    2    0  503  0.28843640466E+02 -0.24975534142E+02  0.25106609997E+03  0.30727661717E+03  0.17300000000E+03 0.  1.
<mgrwt>
<rscale>  2 0.17715737E+03</rscale>
<asrwt>0</asrwt>
<pdfrwt beam="1">  1       21 0.10030400E+00 0.17715737E+03</pdfrwt>
<pdfrwt beam="2">  1       21 0.75617885E-02 0.17715737E+03</pdfrwt>
<totfact> 0.10854563E+05</totfact>
</mgrwt>
</event>
<event>
 4    1  0.3945814E+000  0.1804324E+03  0.7546771E-02  0.1167385E+00
         21   -1    0    0  501  502  0.00000000000E+00  0.00000000000E+00  0.15165677746E+04  0.15165677746E+04  0.00000000000E+00 0. -1.
         21   -1    0    0  502  503 -0.00000000000E+00 -0.00000000000E+00 -0.22891341752E+02  0.22891341752E+02  0.00000000000E+00 0. -1.
          6    1    1    2  501    0  0.77634241244E+01 -0.50661285825E+02  0.93885632532E+03  0.95603715212E+03  0.17300000000E+03 0. -1.
         -6    1    1    2    0  503 -0.77634241244E+01  0.50661285825E+02  0.55482010757E+03  0.58342196428E+03  0.17300000000E+03 0. -1.
<mgrwt>
<rscale>  2 0.18043236E+03</rscale>
<asrwt>0</asrwt>
<pdfrwt beam="1">  1       21 0.23331804E+00 0.18043236E+03</pdfrwt>
<pdfrwt beam="2">  1       21 0.35217461E-02 0.18043236E+03</pdfrwt>
<totfact> 0.40872239E+04</totfact>
</mgrwt>
</event>
<event>
 4    1  0.3945814E+000  0.2166820E+03  0.7546771E-02  0.1136381E+00
         21   -1    0    0  503  502  0.00000000000E+00  0.00000000000E+00  0.25359003350E+03  0.25359003350E+03  0.00000000000E+00 0. -1.
         21   -1    0    0  501  503 -0.00000000000E+00 -0.00000000000E+00 -0.18710143455E+03  0.18710143455E+03  0.00000000000E+00 0. -1.
          6    1    1    2  501    0 -0.59060033563E+02 -0.11633569302E+03  0.10715854667E+02  0.21694679204E+03  0.17300000000E+03 0. -1.
         -6    1    1    2    0  502  0.59060033563E+02  0.11633569302E+03  0.55772744281E+02  0.22374467600E+03  0.17300000000E+03 0. -1.
<mgrwt>
<rscale>  2 0.21668198E+03</rscale>
<asrwt>0</asrwt>
<pdfrwt beam="1">  1       21 0.39013851E-01 0.21668198E+03</pdfrwt>
<pdfrwt beam="2">  1       21 0.28784836E-01 0.21668198E+03</pdfrwt>
<totfact> 0.72396740E+04</totfact>
</mgrwt>
</event>
<event>
 4    1  0.3945814E+000  0.2857754E+03  0.7546771E-02  0.1092576E+00
         21   -1    0    0  503  502  0.00000000000E+00  0.00000000000E+00  0.14401916029E+04  0.14401916029E+04  0.00000000000E+00 0. -1.
         21   -1    0    0  501  503 -0.00000000000E+00 -0.00000000000E+00 -0.57004359389E+02  0.57004359389E+02  0.00000000000E+00 0.  1.
          6    1    1    2  501    0  0.89922358503E+02  0.20893198237E+03  0.63744161610E+03  0.69856955112E+03  0.17300000000E+03 0.  1.
         -6    1    1    2    0  502 -0.89922358503E+02 -0.20893198237E+03  0.74574562742E+03  0.79862641118E+03  0.17300000000E+03 0. -1.
<mgrwt>
<rscale>  2 0.28577544E+03</rscale>
<asrwt>0</asrwt>
<pdfrwt beam="1">  1       21 0.22156791E+00 0.28577544E+03</pdfrwt>
<pdfrwt beam="2">  1       21 0.87699026E-02 0.28577544E+03</pdfrwt>
<totfact> 0.93838649E+03</totfact>
</mgrwt>
</event>
<event>
 4    1  0.3945814E+000  0.2621980E+03  0.7546771E-02  0.1105830E+00
         21   -1    0    0  501  502  0.00000000000E+00  0.00000000000E+00  0.94293076512E+03  0.94293076512E+03  0.00000000000E+00 0. -1.
         21   -1    0    0  502  503 -0.00000000000E+00 -0.00000000000E+00 -0.77407117115E+02  0.77407117115E+02  0.00000000000E+00 0. -1.
          6    1    1    2  501    0 -0.93642124577E+02  0.17334914122E+03  0.55574840583E+03  0.61449496568E+03  0.17300000000E+03 0. -1.
         -6    1    1    2    0  503  0.93642124577E+02 -0.17334914122E+03  0.30977524218E+03  0.40584291656E+03  0.17300000000E+03 0. -1.
<mgrwt>
<rscale>  2 0.26219796E+03</rscale>
<asrwt>0</asrwt>
<pdfrwt beam="1">  1       21 0.14506626E+00 0.26219796E+03</pdfrwt>
<pdfrwt beam="2">  1       21 0.11908788E-01 0.26219796E+03</pdfrwt>
<totfact> 0.18620367E+04</totfact>
</mgrwt>
</event>
<event>
 4    1  0.3945814E+000  0.1771275E+03  0.7546771E-02  0.1170612E+00
         21   -1    0    0  501  502  0.00000000000E+00  0.00000000000E+00  0.73189577195E+03  0.73189577195E+03  0.00000000000E+00 0.  1.
         21   -1    0    0  502  503 -0.00000000000E+00 -0.00000000000E+00 -0.10135037574E+03  0.10135037574E+03  0.00000000000E+00 0.  1.
          6    1    1    2  501    0 -0.74935402961E+01 -0.37269182301E+02  0.63175323793E+03  0.65611454696E+03  0.17300000000E+03 0.  1.
         -6    1    1    2    0  503  0.74935402961E+01  0.37269182301E+02 -0.12078417165E+01  0.17713160073E+03  0.17300000000E+03 0.  1.
<mgrwt>
<rscale>  2 0.17712748E+03</rscale>
<asrwt>0</asrwt>
<pdfrwt beam="1">  1       21 0.11259935E+00 0.17712748E+03</pdfrwt>
<pdfrwt beam="2">  1       21 0.15592366E-01 0.17712748E+03</pdfrwt>
<totfact> 0.22775827E+04</totfact>
</mgrwt>
</event>
<event>
 4    1  0.3945814E+000  0.2501763E+03  0.7546771E-02  0.1113193E+00
         21   -1    0    0  503  502  0.00000000000E+00  0.00000000000E+00  0.10112597769E+04  0.10112597769E+04  0.00000000000E+00 0. -1.
         21   -1    0    0  501  503 -0.00000000000E+00 -0.00000000000E+00 -0.10583228490E+03  0.10583228490E+03  0.00000000000E+00 0.  1.
          6    1    1    2  501    0  0.11211031821E+03 -0.14174074151E+03  0.92811232442E+02  0.26683719029E+03  0.17300000000E+03 0.  1.
         -6    1    1    2    0  502 -0.11211031821E+03  0.14174074151E+03  0.81261625959E+03  0.85025487156E+03  0.17300000000E+03 0. -1.
<mgrwt>
<rscale>  2 0.25017626E+03</rscale>
<asrwt>0</asrwt>
<pdfrwt beam="1">  1       21 0.15557842E+00 0.25017626E+03</pdfrwt>
<pdfrwt beam="2">  1       21 0.16281891E-01 0.25017626E+03</pdfrwt>
<totfact> 0.88006484E+03</totfact>
</mgrwt>
</event>
<event>
 4    1  0.3945814E+000  0.2236878E+03  0.7546771E-02  0.1131163E+00
         21   -1    0    0  501  502  0.00000000000E+00  0.00000000000E+00  0.26491283032E+03  0.26491283032E+03  0.00000000000E+00 0.  1.
         21   -1    0    0  502  503 -0.00000000000E+00 -0.00000000000E+00 -0.21476048913E+03  0.21476048913E+03  0.00000000000E+00 0. -1.
          6    1    1    2  501    0 -0.11955856188E+03 -0.76242953651E+02  0.10833693182E+03  0.24854200550E+03  0.17300000000E+03 0. -1.
         -6    1    1    2    0  503  0.11955856188E+03  0.76242953651E+02 -0.58184590629E+02  0.23113131395E+03  0.17300000000E+03 0. -1.
<mgrwt>
<rscale>  2 0.22368781E+03</rscale>
<asrwt>0</asrwt>
<pdfrwt beam="1">  1       21 0.40755820E-01 0.22368781E+03</pdfrwt>
<pdfrwt beam="2">  1       21 0.33040075E-01 0.22368781E+03</pdfrwt>
<totfact> 0.50411602E+04</totfact>
</mgrwt>
</event>
<event>
 4    1  0.3945814E+000  0.2140260E+03  0.7546771E-02  0.1138417E+00
         21   -1    0    0  503  502  0.00000000000E+00  0.00000000000E+00  0.10861862744E+04  0.10861862744E+04  0.00000000000E+00 0.  1.
         21   -1    0    0  501  503 -0.00000000000E+00 -0.00000000000E+00 -0.43737645501E+02  0.43737645501E+02  0.00000000000E+00 0.  1.
          6    1    1    2  501    0  0.93925491328E+02  0.84000840433E+02  0.41434948152E+03  0.46636105321E+03  0.17300000000E+03 0.  1.
         -6    1    1    2    0  502 -0.93925491328E+02 -0.84000840433E+02  0.62809914739E+03  0.66356286670E+03  0.17300000000E+03 0.  1.
<mgrwt>
<rscale>  2 0.21402602E+03</rscale>
<asrwt>0</asrwt>
<pdfrwt beam="1">  1       21 0.16710556E+00 0.21402602E+03</pdfrwt>
<pdfrwt beam="2">  1       21 0.67288694E-02 0.21402602E+03</pdfrwt>
<totfact> 0.35743065E+04</totfact>
</mgrwt>
</event>
<event>
 4    1  0.3945814E+000  0.1971503E+03  0.7546771E-02  0.1152166E+00
         21   -1    0    0  503  502  0.00000000000E+00  0.00000000000E+00  0.63703629860E+03  0.63703629860E+03  0.00000000000E+00 0.  1.
         21   -1    0    0  501  503 -0.00000000000E+00 -0.00000000000E+00 -0.10505210617E+03  0.10505210617E+03  0.00000000000E+00 0.  1.
          6    1    1    2  501    0 -0.84286107316E+02  0.42838012242E+02  0.25756847365E+02  0.19882569845E+03  0.17300000000E+03 0.  1.
         -6    1    1    2    0  502  0.84286107316E+02 -0.42838012242E+02  0.50622734506E+03  0.54326270631E+03  0.17300000000E+03 0.  1.
<mgrwt>
<rscale>  2 0.19715031E+03</rscale>
<asrwt>0</asrwt>
<pdfrwt beam="1">  1       21 0.98005582E-01 0.19715031E+03</pdfrwt>
<pdfrwt beam="2">  1       21 0.16161863E-01 0.19715031E+03</pdfrwt>
<totfact> 0.29397015E+04</totfact>
</mgrwt>
</event>
<event>
 4    1  0.3945814E+000  0.2096410E+03  0.7546771E-02  0.1141851E+00
         21   -1    0    0  503  502  0.00000000000E+00  0.00000000000E+00  0.89931892777E+03  0.89931892777E+03  0.00000000000E+00 0.  1.
         21   -1    0    0  501  503 -0.00000000000E+00 -0.00000000000E+00 -0.63812322696E+02  0.63812322696E+02  0.00000000000E+00 0.  1.
          6    1    1    2  501    0 -0.63199778309E+02  0.10013064453E+03  0.18471997112E+03  0.27941157042E+03  0.17300000000E+03 0.  1.
         -6    1    1    2    0  502  0.63199778309E+02 -0.10013064453E+03  0.65078663396E+03  0.68371968005E+03  0.17300000000E+03 0.  1.
<mgrwt>
<rscale>  2 0.20964102E+03</rscale>
<asrwt>0</asrwt>
<pdfrwt beam="1">  1       21 0.13835675E+00 0.20964102E+03</pdfrwt>
<pdfrwt beam="2">  1       21 0.98172811E-02 0.20964102E+03</pdfrwt>
<totfact> 0.30610076E+04</totfact>
</mgrwt>
</event>
<event>
 4    1  0.3945814E+000  0.2312250E+03  0.7546771E-02  0.1125781E+00
         21   -1    0    0  501  502  0.00000000000E+00  0.00000000000E+00  0.69463738180E+02  0.69463738180E+02  0.00000000000E+00 0.  1.
         21   -1    0    0  502  503 -0.00000000000E+00 -0.00000000000E+00 -0.78014323221E+03  0.78014323221E+03  0.00000000000E+00 0. -1.
          6    1    1    2  501    0  0.12953640442E+03 -0.82196778103E+02 -0.30614804153E+03  0.38365559260E+03  0.17300000000E+03 0.  1.
         -6    1    1    2    0  503 -0.12953640442E+03  0.82196778103E+02 -0.40453145250E+03  0.46595137779E+03  0.17300000000E+03 0. -1.
<mgrwt>
<rscale>  2 0.23122498E+03</rscale>
<asrwt>0</asrwt>
<pdfrwt beam="1">  1       21 0.10686729E-01 0.23122498E+03</pdfrwt>
<pdfrwt beam="2">  1       21 0.12002203E+00 0.23122498E+03</pdfrwt>
<totfact> 0.37300925E+04</totfact>
</mgrwt>
</event>
<event>
 4    1  0.3945814E+000  0.2719228E+03  0.7546771E-02  0.1100184E+00
         21   -1    0    0  501  502  0.00000000000E+00  0.00000000000E+00  0.14234992575E+03  0.14234992575E+03  0.00000000000E+00 0.  1.
         21   -1    0    0  502  503 -0.00000000000E+00 -0.00000000000E+00 -0.58991576745E+03  0.58991576745E+03  0.00000000000E+00 0. -1.
          6    1    1    2  501    0  0.19132574073E+03  0.86066646576E+02 -0.97230993448E+02  0.28878343582E+03  0.17300000000E+03 0.  1.
         -6    1    1    2    0  503 -0.19132574073E+03 -0.86066646576E+02 -0.35033484824E+03  0.44348225738E+03  0.17300000000E+03 0. -1.
<mgrwt>
<rscale>  2 0.27192280E+03</rscale>
<asrwt>0</asrwt>
<pdfrwt beam="1">  1       21 0.21899989E-01 0.27192280E+03</pdfrwt>
<pdfrwt beam="2">  1       21 0.90756272E-01 0.27192280E+03</pdfrwt>
<totfact> 0.19225139E+04</totfact>
</mgrwt>
</event>
<event>
 4    1  0.3945814E+000  0.2484378E+03  0.7546771E-02  0.1114296E+00
         21   -1    0    0  503  502  0.00000000000E+00  0.00000000000E+00  0.33612538028E+03  0.33612538028E+03  0.00000000000E+00 0.  1.
         21   -1    0    0  501  503 -0.00000000000E+00 -0.00000000000E+00 -0.31730008124E+03  0.31730008124E+03  0.00000000000E+00 0. -1.
          6    1    1    2  501    0  0.10134239239E+03  0.14670394583E+03 -0.20264537878E+03  0.32060330278E+03  0.17300000000E+03 0. -1.
         -6    1    1    2    0  502 -0.10134239239E+03 -0.14670394583E+03  0.22147067781E+03  0.33282215874E+03  0.17300000000E+03 0.  1.
<mgrwt>
<rscale>  2 0.24843778E+03</rscale>
<asrwt>0</asrwt>
<pdfrwt beam="1">  1       21 0.51711597E-01 0.24843778E+03</pdfrwt>
<pdfrwt beam="2">  1       21 0.48815397E-01 0.24843778E+03</pdfrwt>
<totfact> 0.13765892E+04</totfact>
</mgrwt>
</event>
<event>
 4    1  0.3945814E+000  0.2000596E+03  0.7546771E-02  0.1149689E+00
         21   -1    0    0  503  502  0.00000000000E+00  0.00000000000E+00  0.13048561817E+04  0.13048561817E+04  0.00000000000E+00 0. -1.
         21   -1    0    0  501  503 -0.00000000000E+00 -0.00000000000E+00 -0.54115910088E+02  0.54115910088E+02  0.00000000000E+00 0. -1.
          6    1    1    2  501    0  0.28238734793E+02  0.96423126629E+02  0.17814739584E+03  0.26788120527E+03  0.17300000000E+03 0. -1.
         -6    1    1    2    0  502 -0.28238734793E+02 -0.96423126629E+02  0.10725928758E+04  0.10910908866E+04  0.17300000000E+03 0. -1.
<mgrwt>
<rscale>  2 0.20005960E+03</rscale>
<asrwt>0</asrwt>
<pdfrwt beam="1">  1       21 0.20074708E+00 0.20005960E+03</pdfrwt>
<pdfrwt beam="2">  1       21 0.83255256E-02 0.20005960E+03</pdfrwt>
<totfact> 0.14778270E+04</totfact>
</mgrwt>
</event>
<event>
 4    1  0.3945814E+000  0.1992030E+03  0.7546771E-02  0.1150413E+00
         21   -1    0    0  503  502  0.00000000000E+00  0.00000000000E+00  0.70637362544E+02  0.70637362544E+02  0.00000000000E+00 0.  1.
         21   -1    0    0  501  503 -0.00000000000E+00 -0.00000000000E+00 -0.62806911163E+03  0.62806911163E+03  0.00000000000E+00 0.  1.
          6    1    1    2  501    0 -0.97121828342E+02  0.17894251028E+02 -0.39222203276E+03  0.43990905508E+03  0.17300000000E+03 0.  1.
         -6    1    1    2    0  502  0.97121828342E+02 -0.17894251028E+02 -0.16520971633E+03  0.25879741909E+03  0.17300000000E+03 0.  1.
<mgrwt>
<rscale>  2 0.19920305E+03</rscale>
<asrwt>0</asrwt>
<pdfrwt beam="1">  1       21 0.10867286E-01 0.19920305E+03</pdfrwt>
<pdfrwt beam="2">  1       21 0.96626020E-01 0.19920305E+03</pdfrwt>
<totfact> 0.62140788E+04</totfact>
</mgrwt>
</event>
<event>
 4    1  0.3945814E+000  0.1792338E+03  0.7546771E-02  0.1168547E+00
         21   -1    0    0  501  502  0.00000000000E+00  0.00000000000E+00  0.12505135943E+03  0.12505135943E+03  0.00000000000E+00 0. -1.
         21   -1    0    0  502  503 -0.00000000000E+00 -0.00000000000E+00 -0.54811117805E+03  0.54811117805E+03  0.00000000000E+00 0. -1.
          6    1    1    2  501    0 -0.95193830815E+01  0.45881903537E+02  0.33808281803E+02  0.18239453842E+03  0.17300000000E+03 0. -1.
         -6    1    1    2    0  503  0.95193830815E+01 -0.45881903537E+02 -0.45686810042E+03  0.49076799906E+03  0.17300000000E+03 0. -1.
<mgrwt>
<rscale>  2 0.17923384E+03</rscale>
<asrwt>0</asrwt>
<pdfrwt beam="1">  1       21 0.19238671E-01 0.17923384E+03</pdfrwt>
<pdfrwt beam="2">  1       21 0.84324796E-01 0.17923384E+03</pdfrwt>
<totfact> 0.30507531E+04</totfact>
</mgrwt>
</event>
<event>
 4    1  0.3945814E+000  0.1766006E+03  0.7546771E-02  0.1171134E+00
         21   -1    0    0  501  502  0.00000000000E+00  0.00000000000E+00  0.25399194144E+04  0.25399194144E+04  0.00000000000E+00 0. -1.
         21   -1    0    0  502  503 -0.00000000000E+00 -0.00000000000E+00 -0.15227711447E+02  0.15227711447E+02  0.00000000000E+00 0. -1.
          6    1    1    2  501    0 -0.31884134287E+02 -0.15562085845E+02  0.18245339665E+04  0.18330608205E+04  0.17300000000E+03 0. -1.
         -6    1    1    2    0  503  0.31884134287E+02  0.15562085845E+02  0.70015773642E+03  0.72208630537E+03  0.17300000000E+03 0. -1.
<mgrwt>
<rscale>  2 0.17660061E+03</rscale>
<asrwt>0</asrwt>
<pdfrwt beam="1">  1       21 0.39075650E+00 0.17660061E+03</pdfrwt>
<pdfrwt beam="2">  1       21 0.23427269E-02 0.17660061E+03</pdfrwt>
<totfact> 0.96537706E+03</totfact>
</mgrwt>
</event>
<event>
 4    1  0.3945814E+000  0.2306421E+03  0.7546771E-02  0.1126189E+00
         21   -1    0    0  503  502  0.00000000000E+00  0.00000000000E+00  0.94944161537E+03  0.94944161537E+03  0.00000000000E+00 0.  1.
         21   -1    0    0  501  503 -0.00000000000E+00 -0.00000000000E+00 -0.12722025506E+03  0.12722025506E+03  0.00000000000E+00 0.  1.
          6    1    1    2  501    0 -0.15083029532E+03 -0.22737847629E+02  0.84065701787E+01  0.23079527318E+03  0.17300000000E+03 0.  1.
         -6    1    1    2    0  502  0.15083029532E+03  0.22737847629E+02  0.81381479013E+03  0.84586659724E+03  0.17300000000E+03 0.  1.
<mgrwt>
<rscale>  2 0.23064212E+03</rscale>
<asrwt>0</asrwt>
<pdfrwt beam="1">  1       21 0.14606794E+00 0.23064212E+03</pdfrwt>
<pdfrwt beam="2">  1       21 0.19572348E-01 0.23064212E+03</pdfrwt>
<totfact> 0.74875368E+03</totfact>
</mgrwt>
</event>
<event>
 4    1  0.3945814E+000  0.2089730E+03  0.7546771E-02  0.1142382E+00
         21   -1    0    0  501  502  0.00000000000E+00  0.00000000000E+00  0.13015851339E+03  0.13015851339E+03  0.00000000000E+00 0.  1.
         21   -1    0    0  502  503 -0.00000000000E+00 -0.00000000000E+00 -0.52759243740E+03  0.52759243740E+03  0.00000000000E+00 0. -1.
          6    1    1    2  501    0 -0.10904327742E+03  0.43014789258E+02 -0.27931102327E+00  0.20897317163E+03  0.17300000000E+03 0.  1.
         -6    1    1    2    0  503  0.10904327742E+03 -0.43014789258E+02 -0.39715461299E+03  0.44877777916E+03  0.17300000000E+03 0. -1.
<mgrwt>
<rscale>  2 0.20897298E+03</rscale>
<asrwt>0</asrwt>
<pdfrwt beam="1">  1       21 0.20024386E-01 0.20897298E+03</pdfrwt>
<pdfrwt beam="2">  1       21 0.81168068E-01 0.20897298E+03</pdfrwt>
<totfact> 0.30376676E+04</totfact>
</mgrwt>
</event>
<event>
 4    1  0.3945814E+000  0.2012761E+03  0.7546771E-02  0.1148667E+00
         21   -1    0    0  501  502  0.00000000000E+00  0.00000000000E+00  0.62777266316E+02  0.62777266316E+02  0.00000000000E+00 0.  1.
         21   -1    0    0  502  503 -0.00000000000E+00 -0.00000000000E+00 -0.65277688176E+03  0.65277688176E+03  0.00000000000E+00 0.  1.
          6    1    1    2  501    0 -0.10197704680E+03  0.13555725616E+02 -0.33321243544E+03  0.38928473243E+03  0.17300000000E+03 0.  1.
         -6    1    1    2    0  503  0.10197704680E+03 -0.13555725616E+02 -0.25678718001E+03  0.32626941565E+03  0.17300000000E+03 0.  1.
<mgrwt>
<rscale>  2 0.20127612E+03</rscale>
<asrwt>0</asrwt>
<pdfrwt beam="1">  1       21 0.96580412E-02 0.20127612E+03</pdfrwt>
<pdfrwt beam="2">  1       21 0.10042721E+00 0.20127612E+03</pdfrwt>
<totfact> 0.69834362E+04</totfact>
</mgrwt>
</event>
<event>
 4    1  0.3945814E+000  0.2491608E+03  0.7546771E-02  0.1113836E+00
         21   -1    0    0  503  502  0.00000000000E+00  0.00000000000E+00  0.39685787338E+03  0.39685787338E+03  0.00000000000E+00 0.  1.
         21   -1    0    0  501  503 -0.00000000000E+00 -0.00000000000E+00 -0.17298047666E+03  0.17298047666E+03  0.00000000000E+00 0. -1.
          6    1    1    2  501    0 -0.41214814176E+02 -0.17450911262E+03  0.20006551467E+03  0.31954233124E+03  0.17300000000E+03 0. -1.
         -6    1    1    2    0  502  0.41214814176E+02  0.17450911262E+03  0.23811882049E+02  0.25029601879E+03  0.17300000000E+03 0.  1.
<mgrwt>
<rscale>  2 0.24916077E+03</rscale>
<asrwt>0</asrwt>
<pdfrwt beam="1">  1       21 0.61055057E-01 0.24916077E+03</pdfrwt>
<pdfrwt beam="2">  1       21 0.26612381E-01 0.24916077E+03</pdfrwt>
<totfact> 0.32615210E+04</totfact>
</mgrwt>
</event>
<event>
 4    1  0.3945814E+000  0.2426708E+03  0.7546771E-02  0.1118026E+00
         21   -1    0    0  503  502  0.00000000000E+00  0.00000000000E+00  0.26274143397E+03  0.26274143397E+03  0.00000000000E+00 0. -1.
         21   -1    0    0  501  503 -0.00000000000E+00 -0.00000000000E+00 -0.28846348750E+03  0.28846348750E+03  0.00000000000E+00 0.  1.
          6    1    1    2  501    0  0.80627641110E+02  0.14986425066E+03 -0.14301127597E+03  0.28167594003E+03  0.17300000000E+03 0.  1.
         -6    1    1    2    0  502 -0.80627641110E+02 -0.14986425066E+03  0.11728922243E+03  0.26952898144E+03  0.17300000000E+03 0. -1.
<mgrwt>
<rscale>  2 0.24267079E+03</rscale>
<asrwt>0</asrwt>
<pdfrwt beam="1">  1       21 0.40421759E-01 0.24267079E+03</pdfrwt>
<pdfrwt beam="2">  1       21 0.44378998E-01 0.24267079E+03</pdfrwt>
<totfact> 0.28020634E+04</totfact>
</mgrwt>
</event>
<event>
 4    1  0.3945814E+000  0.1886354E+03  0.7546771E-02  0.1159698E+00
         21   -1    0    0  503  502  0.00000000000E+00  0.00000000000E+00  0.42384861872E+02  0.42384861872E+02  0.00000000000E+00 0. -1.
         21   -1    0    0  501  503 -0.00000000000E+00 -0.00000000000E+00 -0.90850240084E+03  0.90850240084E+03  0.00000000000E+00 0.  1.
          6    1    1    2  501    0  0.21634006424E+01 -0.75163928754E+02 -0.56406097679E+03  0.59476725030E+03  0.17300000000E+03 0. -1.
         -6    1    1    2    0  502 -0.21634006424E+01  0.75163928754E+02 -0.30205656218E+03  0.35612001241E+03  0.17300000000E+03 0.  1.
<mgrwt>
<rscale>  2 0.18863535E+03</rscale>
<asrwt>0</asrwt>
<pdfrwt beam="1">  1       21 0.65207483E-02 0.18863535E+03</pdfrwt>
<pdfrwt beam="2">  1       21 0.13976959E+00 0.18863535E+03</pdfrwt>
<totfact> 0.61554524E+04</totfact>
</mgrwt>
</event>
<event>
 4    1  0.3945814E+000  0.2062699E+03  0.7546771E-02  0.1144554E+00
         21   -1    0    0  501  502  0.00000000000E+00  0.00000000000E+00  0.38983619385E+03  0.38983619385E+03  0.00000000000E+00 0.  1.
         21   -1    0    0  502  503 -0.00000000000E+00 -0.00000000000E+00 -0.12434787606E+03  0.12434787606E+03  0.00000000000E+00 0.  1.
          6    1    1    2  501    0 -0.61390196282E+02  0.94071847135E+02  0.22264912948E+03  0.30351260844E+03  0.17300000000E+03 0.  1.
         -6    1    1    2    0  503  0.61390196282E+02 -0.94071847135E+02  0.42839188313E+02  0.21067146147E+03  0.17300000000E+03 0.  1.
<mgrwt>
<rscale>  2 0.20626989E+03</rscale>
<asrwt>0</asrwt>
<pdfrwt beam="1">  1       21 0.59974798E-01 0.20626989E+03</pdfrwt>
<pdfrwt beam="2">  1       21 0.19130443E-01 0.20626989E+03</pdfrwt>
<totfact> 0.64633543E+04</totfact>
</mgrwt>
</event>
<event>
 4    1  0.3945814E+000  0.1836378E+03  0.7546771E-02  0.1164328E+00
         21   -1    0    0  501  502  0.00000000000E+00  0.00000000000E+00  0.11413881261E+03  0.11413881261E+03  0.00000000000E+00 0.  1.
         21   -1    0    0  502  503 -0.00000000000E+00 -0.00000000000E+00 -0.34127256017E+03  0.34127256017E+03  0.00000000000E+00 0.  1.
          6    1    1    2  501    0 -0.31931151033E+02 -0.52671258788E+02 -0.30133438766E+02  0.18609375068E+03  0.17300000000E+03 0.  1.
         -6    1    1    2    0  503  0.31931151033E+02  0.52671258788E+02 -0.19700030880E+03  0.26931762211E+03  0.17300000000E+03 0.  1.
<mgrwt>
<rscale>  2 0.18363785E+03</rscale>
<asrwt>0</asrwt>
<pdfrwt beam="1">  1       21 0.17559818E-01 0.18363785E+03</pdfrwt>
<pdfrwt beam="2">  1       21 0.52503470E-01 0.18363785E+03</pdfrwt>
<totfact> 0.10144510E+05</totfact>
</mgrwt>
</event>
<event>
 4    1  0.3945814E+000  0.1878114E+03  0.7546771E-02  0.1160450E+00
         21   -1    0    0  501  502  0.00000000000E+00  0.00000000000E+00  0.56420800157E+03  0.56420800157E+03  0.00000000000E+00 0.  1.
         21   -1    0    0  502  503 -0.00000000000E+00 -0.00000000000E+00 -0.18252286443E+03  0.18252286443E+03  0.00000000000E+00 0.  1.
          6    1    1    2  501    0 -0.48173384390E+02  0.54985722460E+02  0.49358623009E+03  0.52811028316E+03  0.17300000000E+03 0.  1.
         -6    1    1    2    0  503  0.48173384390E+02 -0.54985722460E+02 -0.11190109296E+03  0.21862058284E+03  0.17300000000E+03 0.  1.
<mgrwt>
<rscale>  2 0.18781135E+03</rscale>
<asrwt>0</asrwt>
<pdfrwt beam="1">  1       21 0.86801230E-01 0.18781135E+03</pdfrwt>
<pdfrwt beam="2">  1       21 0.28080441E-01 0.18781135E+03</pdfrwt>
<totfact> 0.13880586E+04</totfact>
</mgrwt>
</event>
<event>
 4    1  0.3945814E+000  0.1834426E+03  0.7546771E-02  0.1164512E+00
         21   -1    0    0  501  502  0.00000000000E+00  0.00000000000E+00  0.25697978811E+03  0.25697978811E+03  0.00000000000E+00 0.  1.
         21   -1    0    0  502  503 -0.00000000000E+00 -0.00000000000E+00 -0.29185866161E+03  0.29185866161E+03  0.00000000000E+00 0.  1.
          6    1    1    2  501    0  0.60777141718E+02  0.53228717793E+01  0.18632086526E+03  0.26147018712E+03  0.17300000000E+03 0.  1.
         -6    1    1    2    0  503 -0.60777141718E+02 -0.53228717793E+01 -0.22119973876E+03  0.28736826260E+03  0.17300000000E+03 0.  1.
<mgrwt>
<rscale>  2 0.18344262E+03</rscale>
<asrwt>0</asrwt>
<pdfrwt beam="1">  1       21 0.39535352E-01 0.18344262E+03</pdfrwt>
<pdfrwt beam="2">  1       21 0.44901333E-01 0.18344262E+03</pdfrwt>
<totfact> 0.29502896E+04</totfact>
</mgrwt>
</event>
<event>
 4    1  0.3945814E+000  0.1980120E+03  0.7546771E-02  0.1151427E+00
         21   -1    0    0  501  502  0.00000000000E+00  0.00000000000E+00  0.44000358011E+03  0.44000358011E+03  0.00000000000E+00 0. -1.
         21   -1    0    0  502  503 -0.00000000000E+00 -0.00000000000E+00 -0.11818377875E+03  0.11818377875E+03  0.00000000000E+00 0. -1.
          6    1    1    2  501    0 -0.94174936143E+02  0.20268735783E+02  0.29933710426E+03  0.35890310981E+03  0.17300000000E+03 0. -1.
         -6    1    1    2    0  503  0.94174936143E+02 -0.20268735783E+02  0.22482697102E+02  0.19928424904E+03  0.17300000000E+03 0. -1.
<mgrwt>
<rscale>  2 0.19801197E+03</rscale>
<asrwt>0</asrwt>
<pdfrwt beam="1">  1       21 0.67692858E-01 0.19801197E+03</pdfrwt>
<pdfrwt beam="2">  1       21 0.18182120E-01 0.19801197E+03</pdfrwt>
<totfact> 0.54824476E+04</totfact>
</mgrwt>
</event>
<event>
 4    1  0.3945814E+000  0.2164837E+03  0.7546771E-02  0.1136532E+00
         21   -1    0    0  501  502  0.00000000000E+00  0.00000000000E+00  0.49653314765E+03  0.49653314765E+03  0.00000000000E+00 0.  1.
         21   -1    0    0  502  503 -0.00000000000E+00 -0.00000000000E+00 -0.11136383209E+03  0.11136383209E+03  0.00000000000E+00 0. -1.
          6    1    1    2  501    0  0.12310449306E+03  0.42207450492E+02  0.31126650229E+03  0.37914643680E+03  0.17300000000E+03 0.  1.
         -6    1    1    2    0  503 -0.12310449306E+03 -0.42207450492E+02  0.73902813263E+02  0.22875054294E+03  0.17300000000E+03 0. -1.
<mgrwt>
<rscale>  2 0.21648368E+03</rscale>
<asrwt>0</asrwt>
<pdfrwt beam="1">  1       21 0.76389714E-01 0.21648368E+03</pdfrwt>
<pdfrwt beam="2">  1       21 0.17132897E-01 0.21648368E+03</pdfrwt>
<totfact> 0.46377013E+04</totfact>
</mgrwt>
</event>
<event>
 4    1  0.3945814E+000  0.1910944E+03  0.7546771E-02  0.1157478E+00
         21   -1    0    0  501  502  0.00000000000E+00  0.00000000000E+00  0.37077886507E+03  0.37077886507E+03  0.00000000000E+00 0.  1.
         21   -1    0    0  502  503 -0.00000000000E+00 -0.00000000000E+00 -0.19842290169E+03  0.19842290169E+03  0.00000000000E+00 0.  1.
          6    1    1    2  501    0 -0.25882172672E+01  0.81125587046E+02  0.28815416718E+03  0.34575986437E+03  0.17300000000E+03 0.  1.
         -6    1    1    2    0  503  0.25882172672E+01 -0.81125587046E+02 -0.11579820380E+03  0.22344190239E+03  0.17300000000E+03 0.  1.
<mgrwt>
<rscale>  2 0.19109437E+03</rscale>
<asrwt>0</asrwt>
<pdfrwt beam="1">  1       21 0.57042902E-01 0.19109437E+03</pdfrwt>
<pdfrwt beam="2">  1       21 0.30526600E-01 0.19109437E+03</pdfrwt>
<totfact> 0.29762915E+04</totfact>
</mgrwt>
</event>
<event>
 4    1  0.3945814E+000  0.1738922E+03  0.7546771E-02  0.1173849E+00
         21   -1    0    0  501  502  0.00000000000E+00  0.00000000000E+00  0.12718967892E+04  0.12718967892E+04  0.00000000000E+00 0.  1.
         21   -1    0    0  502  503 -0.00000000000E+00 -0.00000000000E+00 -0.33265497498E+02  0.33265497498E+02  0.00000000000E+00 0.  1.
          6    1    1    2  501    0  0.11009564952E+02 -0.13721179554E+02  0.96789170562E+03  0.98338844568E+03  0.17300000000E+03 0.  1.
         -6    1    1    2    0  503 -0.11009564952E+02  0.13721179554E+02  0.27073958605E+03  0.32177384099E+03  0.17300000000E+03 0.  1.
<mgrwt>
<rscale>  2 0.17389215E+03</rscale>
<asrwt>0</asrwt>
<pdfrwt beam="1">  1       21 0.19567639E+00 0.17389215E+03</pdfrwt>
<pdfrwt beam="2">  1       21 0.51177698E-02 0.17389215E+03</pdfrwt>
<totfact> 0.37508630E+04</totfact>
</mgrwt>
</event>
<event>
 4    1  0.3945814E+000  0.1907709E+03  0.7546771E-02  0.1157768E+00
         21   -1    0    0  501  502  0.00000000000E+00  0.00000000000E+00  0.44060008650E+02  0.44060008650E+02  0.00000000000E+00 0.  1.
         21   -1    0    0  502  503 -0.00000000000E+00 -0.00000000000E+00 -0.12940583388E+04  0.12940583388E+04  0.00000000000E+00 0.  1.
          6    1    1    2  501    0  0.36869464911E+02  0.71450453532E+02 -0.22261763118E+03  0.29317594455E+03  0.17300000000E+03 0.  1.
         -6    1    1    2    0  503 -0.36869464911E+02 -0.71450453532E+02 -0.10273806990E+04  0.10449424029E+04  0.17300000000E+03 0.  1.
<mgrwt>
<rscale>  2 0.19077087E+03</rscale>
<asrwt>0</asrwt>
<pdfrwt beam="1">  1       21 0.67784633E-02 0.19077087E+03</pdfrwt>
<pdfrwt beam="2">  1       21 0.19908589E+00 0.19077087E+03</pdfrwt>
<totfact> 0.21792615E+04</totfact>
</mgrwt>
</event>
<event>
 4    1  0.3945814E+000  0.1922127E+03  0.7546771E-02  0.1156481E+00
         21   -1    0    0  501  502  0.00000000000E+00  0.00000000000E+00  0.66895204605E+03  0.66895204605E+03  0.00000000000E+00 0.  1.
         21   -1    0    0  502  503 -0.00000000000E+00 -0.00000000000E+00 -0.56155060516E+02  0.56155060516E+02  0.00000000000E+00 0. -1.
          6    1    1    2  501    0  0.72414439023E+02  0.42105634818E+02  0.25984703608E+03  0.32321234138E+03  0.17300000000E+03 0. -1.
         -6    1    1    2    0  503 -0.72414439023E+02 -0.42105634818E+02  0.35294994945E+03  0.40189476518E+03  0.17300000000E+03 0.  1.
<mgrwt>
<rscale>  2 0.19221273E+03</rscale>
<asrwt>0</asrwt>
<pdfrwt beam="1">  1       21 0.10291569E+00 0.19221273E+03</pdfrwt>
<pdfrwt beam="2">  1       21 0.86392406E-02 0.19221273E+03</pdfrwt>
<totfact> 0.80463070E+04</totfact>
</mgrwt>
</event>
<event>
 4    1  0.3945814E+000  0.1757130E+03  0.7546771E-02  0.1172018E+00
         21   -1    0    0  501  502  0.00000000000E+00  0.00000000000E+00  0.26550070611E+02  0.26550070611E+02  0.00000000000E+00 0.  1.
         21   -1    0    0  502  503 -0.00000000000E+00 -0.00000000000E+00 -0.17551064840E+04  0.17551064840E+04  0.00000000000E+00 0.  1.
          6    1    1    2  501    0 -0.19342924832E+02 -0.23914550191E+02 -0.34681538666E+03  0.38878781730E+03  0.17300000000E+03 0.  1.
         -6    1    1    2    0  503  0.19342924832E+02  0.23914550191E+02 -0.13817410268E+04  0.13928687374E+04  0.17300000000E+03 0.  1.
<mgrwt>
<rscale>  2 0.17571299E+03</rscale>
<asrwt>0</asrwt>
<pdfrwt beam="1">  1       21 0.40846253E-02 0.17571299E+03</pdfrwt>
<pdfrwt beam="2">  1       21 0.27001644E+00 0.17571299E+03</pdfrwt>
<totfact> 0.19543174E+04</totfact>
</mgrwt>
</event>
<event>
 4    1  0.3945814E+000  0.1824221E+03  0.7546771E-02  0.1165479E+00
         21   -1    0    0  503  502  0.00000000000E+00  0.00000000000E+00  0.79970200066E+02  0.79970200066E+02  0.00000000000E+00 0.  1.
         21   -1    0    0  501  503 -0.00000000000E+00 -0.00000000000E+00 -0.41765594854E+03  0.41765594854E+03  0.00000000000E+00 0.  1.
          6    1    1    2  501    0  0.20617983953E+02 -0.54071309917E+02 -0.18389418650E+03  0.25902679330E+03  0.17300000000E+03 0.  1.
         -6    1    1    2    0  502 -0.20617983953E+02  0.54071309917E+02 -0.15379156198E+03  0.23859935531E+03  0.17300000000E+03 0.  1.
<mgrwt>
<rscale>  2 0.18242206E+03</rscale>
<asrwt>0</asrwt>
<pdfrwt beam="1">  1       21 0.12303108E-01 0.18242206E+03</pdfrwt>
<pdfrwt beam="2">  1       21 0.64254761E-01 0.18242206E+03</pdfrwt>
<totfact> 0.12587002E+05</totfact>
</mgrwt>
</event>
<event>
 4    1  0.3945814E+000  0.2760758E+03  0.7546771E-02  0.1097852E+00
         21   -1    0    0  503  502  0.00000000000E+00  0.00000000000E+00  0.14858773654E+04  0.14858773654E+04  0.00000000000E+00 0. -1.
         21   -1    0    0  501  503 -0.00000000000E+00 -0.00000000000E+00 -0.62066114555E+02  0.62066114555E+02  0.00000000000E+00 0. -1.
          6    1    1    2  501    0 -0.21068693063E+03 -0.43587653213E+02  0.38947889494E+03  0.47740095921E+03  0.17300000000E+03 0. -1.
         -6    1    1    2    0  502  0.21068693063E+03  0.43587653213E+02  0.10343323559E+04  0.10705425207E+04  0.17300000000E+03 0. -1.
<mgrwt>
<rscale>  2 0.27607583E+03</rscale>
<asrwt>0</asrwt>
<pdfrwt beam="1">  1       21 0.22859649E+00 0.27607583E+03</pdfrwt>
<pdfrwt beam="2">  1       21 0.95486341E-02 0.27607583E+03</pdfrwt>
<totfact> 0.73463762E+03</totfact>
</mgrwt>
</event>
<event>
 4    1  0.3945814E+000  0.1982065E+03  0.7546771E-02  0.1151261E+00
         21   -1    0    0  501  502  0.00000000000E+00  0.00000000000E+00  0.15508206294E+03  0.15508206294E+03  0.00000000000E+00 0.  1.
         21   -1    0    0  502  503 -0.00000000000E+00 -0.00000000000E+00 -0.89977328153E+03  0.89977328153E+03  0.00000000000E+00 0. -1.
          6    1    1    2  501    0 -0.57772900514E+02 -0.77583040340E+02  0.74712490008E+02  0.21182018871E+03  0.17300000000E+03 0.  1.
         -6    1    1    2    0  503  0.57772900514E+02  0.77583040340E+02 -0.81940370859E+03  0.84303515576E+03  0.17300000000E+03 0. -1.
<mgrwt>
<rscale>  2 0.19820655E+03</rscale>
<asrwt>0</asrwt>
<pdfrwt beam="1">  1       21 0.23858779E-01 0.19820655E+03</pdfrwt>
<pdfrwt beam="2">  1       21 0.13842666E+00 0.19820655E+03</pdfrwt>
<totfact> 0.60725551E+03</totfact>
</mgrwt>
</event>
<event>
 4    1  0.3945814E+000  0.1756998E+03  0.7546771E-02  0.1172031E+00
         21   -1    0    0  501  502  0.00000000000E+00  0.00000000000E+00  0.13099190987E+03  0.13099190987E+03  0.00000000000E+00 0. -1.
         21   -1    0    0  502  503 -0.00000000000E+00 -0.00000000000E+00 -0.32833519050E+03  0.32833519050E+03  0.00000000000E+00 0. -1.
          6    1    1    2  501    0  0.60558853011E+01  0.30078764666E+02  0.23339603563E+02  0.17724317455E+03  0.17300000000E+03 0. -1.
         -6    1    1    2    0  503 -0.60558853011E+01 -0.30078764666E+02 -0.22068288420E+03  0.28208392582E+03  0.17300000000E+03 0. -1.
<mgrwt>
<rscale>  2 0.17569976E+03</rscale>
<asrwt>0</asrwt>
<pdfrwt beam="1">  1       21 0.20152602E-01 0.17569976E+03</pdfrwt>
<pdfrwt beam="2">  1       21 0.50513106E-01 0.17569976E+03</pdfrwt>
<totfact> 0.85470303E+04</totfact>
</mgrwt>
</event>
<event>
 4    1  0.3945814E+000  0.2731429E+03  0.7546771E-02  0.1099494E+00
         21   -1    0    0  503  502  0.00000000000E+00  0.00000000000E+00  0.33201767273E+02  0.33201767273E+02  0.00000000000E+00 0.  1.
         21   -1    0    0  501  503 -0.00000000000E+00 -0.00000000000E+00 -0.22945461313E+04  0.22945461313E+04  0.00000000000E+00 0. -1.
          6    1    1    2  501    0  0.17417114976E+03 -0.11975990605E+03 -0.12980700185E+04  0.13264964371E+04  0.17300000000E+03 0.  1.
         -6    1    1    2    0  502 -0.17417114976E+03  0.11975990605E+03 -0.96327434551E+03  0.10012514615E+04  0.17300000000E+03 0.  1.
<mgrwt>
<rscale>  2 0.27314286E+03</rscale>
<asrwt>0</asrwt>
<pdfrwt beam="1">  1       21 0.51079633E-02 0.27314286E+03</pdfrwt>
<pdfrwt beam="2">  1       21 0.35300716E+00 0.27314286E+03</pdfrwt>
<totfact> 0.39890063E+03</totfact>
</mgrwt>
</event>
<event>
 4    1  0.3945814E+000  0.1836078E+03  0.7546771E-02  0.1164356E+00
         21   -1    0    0  501  502  0.00000000000E+00  0.00000000000E+00  0.16213495520E+04  0.16213495520E+04  0.00000000000E+00 0. -1.
         21   -1    0    0  502  503 -0.00000000000E+00 -0.00000000000E+00 -0.26980521769E+02  0.26980521769E+02  0.00000000000E+00 0. -1.
          6    1    1    2  501    0  0.52128619212E+02 -0.32640982304E+02  0.11918841702E+04  0.12059434903E+04  0.17300000000E+03 0. -1.
         -6    1    1    2    0  503 -0.52128619212E+02  0.32640982304E+02  0.40248486007E+03  0.44238658349E+03  0.17300000000E+03 0. -1.
<mgrwt>
<rscale>  2 0.18360781E+03</rscale>
<asrwt>0</asrwt>
<pdfrwt beam="1">  1       21 0.24943832E+00 0.18360781E+03</pdfrwt>
<pdfrwt beam="2">  1       21 0.41508508E-02 0.18360781E+03</pdfrwt>
<totfact> 0.24866433E+04</totfact>
</mgrwt>
</event>
<event>
 4    1  0.3945814E+000  0.2021986E+03  0.7546771E-02  0.1147897E+00
         21   -1    0    0  503  502  0.00000000000E+00  0.00000000000E+00  0.17509877771E+03  0.17509877771E+03  0.00000000000E+00 0. -1.
         21   -1    0    0  501  503 -0.00000000000E+00 -0.00000000000E+00 -0.23518221711E+03  0.23518221711E+03  0.00000000000E+00 0. -1.
          6    1    1    2  501    0  0.10134253698E+03 -0.26171843369E+02 -0.47429280975E+02  0.20768681200E+03  0.17300000000E+03 0.  1.
         -6    1    1    2    0  502 -0.10134253698E+03  0.26171843369E+02 -0.12654158427E+02  0.20259418282E+03  0.17300000000E+03 0.  1.
<mgrwt>
<rscale>  2 0.20219860E+03</rscale>
<asrwt>0</asrwt>
<pdfrwt beam="1">  1       21 0.26938273E-01 0.20219860E+03</pdfrwt>
<pdfrwt beam="2">  1       21 0.36181880E-01 0.20219860E+03</pdfrwt>
<totfact> 0.96322965E+04</totfact>
</mgrwt>
</event>
<event>
 4    1  0.3945814E+000  0.1902930E+03  0.7546771E-02  0.1158197E+00
         21   -1    0    0  501  502  0.00000000000E+00  0.00000000000E+00  0.18500516880E+03  0.18500516880E+03  0.00000000000E+00 0.  1.
         21   -1    0    0  502  503 -0.00000000000E+00 -0.00000000000E+00 -0.19923433556E+03  0.19923433556E+03  0.00000000000E+00 0. -1.
          6    1    1    2  501    0  0.66191114241E+02  0.43602104912E+02  0.18358236626E+02  0.19117644209E+03  0.17300000000E+03 0.  1.
         -6    1    1    2    0  503 -0.66191114241E+02 -0.43602104912E+02 -0.32587403388E+02  0.19306306228E+03  0.17300000000E+03 0.  1.
<mgrwt>
<rscale>  2 0.19029295E+03</rscale>
<asrwt>0</asrwt>
<pdfrwt beam="1">  1       21 0.28462334E-01 0.19029295E+03</pdfrwt>
<pdfrwt beam="2">  1       21 0.30651436E-01 0.19029295E+03</pdfrwt>
<totfact> 0.12071849E+05</totfact>
</mgrwt>
</event>
<event>
 4    1  0.3945814E+000  0.2102860E+03  0.7546771E-02  0.1141340E+00
         21   -1    0    0  501  502  0.00000000000E+00  0.00000000000E+00  0.28114299094E+03  0.28114299094E+03  0.00000000000E+00 0. -1.
         21   -1    0    0  502  503 -0.00000000000E+00 -0.00000000000E+00 -0.40181084328E+03  0.40181084328E+03  0.00000000000E+00 0. -1.
          6    1    1    2  501    0 -0.58757743960E+02 -0.10410921010E+03  0.20605179062E+03  0.29441049662E+03  0.17300000000E+03 0. -1.
         -6    1    1    2    0  503  0.58757743960E+02  0.10410921010E+03 -0.32671964296E+03  0.38854333761E+03  0.17300000000E+03 0. -1.
<mgrwt>
<rscale>  2 0.21028600E+03</rscale>
<asrwt>0</asrwt>
<pdfrwt beam="1">  1       21 0.43252768E-01 0.21028600E+03</pdfrwt>
<pdfrwt beam="2">  1       21 0.61817053E-01 0.21028600E+03</pdfrwt>
<totfact> 0.12344556E+04</totfact>
</mgrwt>
</event>
<event>
 4    1  0.3945814E+000  0.1811790E+03  0.7546771E-02  0.1166667E+00
         21   -1    0    0  501  502  0.00000000000E+00  0.00000000000E+00  0.14434288518E+04  0.14434288518E+04  0.00000000000E+00 0.  1.
         21   -1    0    0  502  503 -0.00000000000E+00 -0.00000000000E+00 -0.31199537454E+02  0.31199537454E+02  0.00000000000E+00 0.  1.
          6    1    1    2  501    0 -0.53820615846E+02 -0.41716117170E+00  0.10900089192E+04  0.11049639255E+04  0.17300000000E+03 0.  1.
         -6    1    1    2    0  503  0.53820615846E+02  0.41716117170E+00  0.32222039510E+03  0.36966446371E+03  0.17300000000E+03 0.  1.
<mgrwt>
<rscale>  2 0.18117901E+03</rscale>
<asrwt>0</asrwt>
<pdfrwt beam="1">  1       21 0.22206593E+00 0.18117901E+03</pdfrwt>
<pdfrwt beam="2">  1       21 0.47999300E-02 0.18117901E+03</pdfrwt>
<totfact> 0.28417657E+04</totfact>
</mgrwt>
</event>
<event>
 4    1  0.3945814E+000  0.1945149E+03  0.7546771E-02  0.1154451E+00
         21   -1    0    0  501  502  0.00000000000E+00  0.00000000000E+00  0.17211628208E+03  0.17211628208E+03  0.00000000000E+00 0.  1.
         21   -1    0    0  502  503 -0.00000000000E+00 -0.00000000000E+00 -0.46598279807E+03  0.46598279807E+03  0.00000000000E+00 0.  1.
          6    1    1    2  501    0  0.35907851359E+02 -0.81349162179E+02  0.84954015039E+02  0.21225749609E+03  0.17300000000E+03 0.  1.
         -6    1    1    2    0  503 -0.35907851359E+02  0.81349162179E+02 -0.37882053103E+03  0.42584158405E+03  0.17300000000E+03 0.  1.
<mgrwt>
<rscale>  2 0.19451494E+03</rscale>
<asrwt>0</asrwt>
<pdfrwt beam="1">  1       21 0.26479428E-01 0.19451494E+03</pdfrwt>
<pdfrwt beam="2">  1       21 0.71689661E-01 0.19451494E+03</pdfrwt>
<totfact> 0.23824418E+04</totfact>
</mgrwt>
</event>
<event>
 4    1  0.3945814E+000  0.2153917E+03  0.7546771E-02  0.1137366E+00
         21   -1    0    0  503  502  0.00000000000E+00  0.00000000000E+00  0.51991527356E+03  0.51991527356E+03  0.00000000000E+00 0. -1.
         21   -1    0    0  501  503 -0.00000000000E+00 -0.00000000000E+00 -0.89597323390E+02  0.89597323390E+02  0.00000000000E+00 0. -1.
          6    1    1    2  501    0  0.48399536603E+02  0.11883635685E+03  0.23459261480E+03  0.31847651369E+03  0.17300000000E+03 0. -1.
         -6    1    1    2    0  502 -0.48399536603E+02 -0.11883635685E+03  0.19572533536E+03  0.29103608325E+03  0.17300000000E+03 0. -1.
<mgrwt>
<rscale>  2 0.21539172E+03</rscale>
<asrwt>0</asrwt>
<pdfrwt beam="1">  1       21 0.79986963E-01 0.21539172E+03</pdfrwt>
<pdfrwt beam="2">  1       21 0.13784204E-01 0.21539172E+03</pdfrwt>
<totfact> 0.62259493E+04</totfact>
</mgrwt>
</event>
<event>
 4    1  0.3945814E+000  0.2199886E+03  0.7546771E-02  0.1133892E+00
         21   -1    0    0  501  502  0.00000000000E+00  0.00000000000E+00  0.55066658966E+02  0.55066658966E+02  0.00000000000E+00 0.  1.
         21   -1    0    0  502  503 -0.00000000000E+00 -0.00000000000E+00 -0.87986780577E+03  0.87986780577E+03  0.00000000000E+00 0.  1.
          6    1    1    2  501    0 -0.12200743257E+03 -0.59834471432E+02 -0.39645102063E+03  0.45339650344E+03  0.17300000000E+03 0.  1.
         -6    1    1    2    0  503  0.12200743257E+03  0.59834471432E+02 -0.42835012617E+03  0.48153796129E+03  0.17300000000E+03 0.  1.
<mgrwt>
<rscale>  2 0.21998859E+03</rscale>
<asrwt>0</asrwt>
<pdfrwt beam="1">  1       21 0.84717943E-02 0.21998859E+03</pdfrwt>
<pdfrwt beam="2">  1       21 0.13536427E+00 0.21998859E+03</pdfrwt>
<totfact> 0.41731444E+04</totfact>
</mgrwt>
</event>
<event>
 4    1  0.3945814E+000  0.2304062E+03  0.7546771E-02  0.1126354E+00
         21   -1    0    0  501  502  0.00000000000E+00  0.00000000000E+00  0.10409428460E+03  0.10409428460E+03  0.00000000000E+00 0.  1.
         21   -1    0    0  502  503 -0.00000000000E+00 -0.00000000000E+00 -0.51624626572E+03  0.51624626572E+03  0.00000000000E+00 0.  1.
          6    1    1    2  501    0 -0.79863957558E+02  0.12953668253E+03 -0.17192976022E+03  0.28748364525E+03  0.17300000000E+03 0.  1.
         -6    1    1    2    0  503  0.79863957558E+02 -0.12953668253E+03 -0.24022222090E+03  0.33285690507E+03  0.17300000000E+03 0.  1.
<mgrwt>
<rscale>  2 0.23040617E+03</rscale>
<asrwt>0</asrwt>
<pdfrwt beam="1">  1       21 0.16014506E-01 0.23040617E+03</pdfrwt>
<pdfrwt beam="2">  1       21 0.79422500E-01 0.23040617E+03</pdfrwt>
<totfact> 0.47792797E+04</totfact>
</mgrwt>
</event>
<event>
 4    1  0.3945814E+000  0.1763856E+03  0.7546771E-02  0.1171348E+00
         21   -1    0    0  503  502  0.00000000000E+00  0.00000000000E+00  0.17596911534E+03  0.17596911534E+03  0.00000000000E+00 0. -1.
         21   -1    0    0  501  503 -0.00000000000E+00 -0.00000000000E+00 -0.82246130455E+03  0.82246130455E+03  0.00000000000E+00 0. -1.
          6    1    1    2  501    0 -0.24295600330E+02  0.24343113667E+02 -0.76556087322E+03  0.78561779128E+03  0.17300000000E+03 0. -1.
         -6    1    1    2    0  502  0.24295600330E+02 -0.24343113667E+02  0.11906868401E+03  0.21281262860E+03  0.17300000000E+03 0. -1.
<mgrwt>
<rscale>  2 0.17638555E+03</rscale>
<asrwt>0</asrwt>
<pdfrwt beam="1">  1       21 0.27072171E-01 0.17638555E+03</pdfrwt>
<pdfrwt beam="2">  1       21 0.12653251E+00 0.17638555E+03</pdfrwt>
<totfact> 0.60956390E+03</totfact>
</mgrwt>
</event>
<event>
 4    1  0.3945814E+000  0.1787226E+03  0.7546771E-02  0.1169045E+00
         21   -1    0    0  501  502  0.00000000000E+00  0.00000000000E+00  0.23441925919E+03  0.23441925919E+03  0.00000000000E+00 0. -1.
         21   -1    0    0  502  503 -0.00000000000E+00 -0.00000000000E+00 -0.19339779884E+03  0.19339779884E+03  0.00000000000E+00 0.  1.
          6    1    1    2  501    0  0.17627090808E+02  0.41255844568E+02 -0.95759218958E+02  0.20275992468E+03  0.17300000000E+03 0.  1.
         -6    1    1    2    0  503 -0.17627090808E+02 -0.41255844568E+02  0.13678067930E+03  0.22505713335E+03  0.17300000000E+03 0. -1.
<mgrwt>
<rscale>  2 0.17872258E+03</rscale>
<asrwt>0</asrwt>
<pdfrwt beam="1">  1       21 0.36064501E-01 0.17872258E+03</pdfrwt>
<pdfrwt beam="2">  1       21 0.29753508E-01 0.17872258E+03</pdfrwt>
<totfact> 0.80742268E+04</totfact>
</mgrwt>
</event>
<event>
 4    1  0.3945814E+000  0.1984862E+03  0.7546771E-02  0.1151023E+00
         21   -1    0    0  503  502  0.00000000000E+00  0.00000000000E+00  0.25009452146E+03  0.25009452146E+03  0.00000000000E+00 0.  1.
         21   -1    0    0  501  503 -0.00000000000E+00 -0.00000000000E+00 -0.26064090861E+03  0.26064090861E+03  0.00000000000E+00 0.  1.
          6    1    1    2  501    0  0.84053555812E+02 -0.49018074249E+02 -0.16589415158E+03  0.25868444363E+03  0.17300000000E+03 0.  1.
         -6    1    1    2    0  502 -0.84053555812E+02  0.49018074249E+02  0.15534776444E+03  0.25205098644E+03  0.17300000000E+03 0.  1.
<mgrwt>
<rscale>  2 0.19848620E+03</rscale>
<asrwt>0</asrwt>
<pdfrwt beam="1">  1       21 0.38476080E-01 0.19848620E+03</pdfrwt>
<pdfrwt beam="2">  1       21 0.40098601E-01 0.19848620E+03</pdfrwt>
<totfact> 0.38923465E+04</totfact>
</mgrwt>
</event>
<event>
 4    1  0.3945814E+000  0.1850076E+03  0.7546771E-02  0.1163043E+00
         21   -1    0    0  503  502  0.00000000000E+00  0.00000000000E+00  0.26394876451E+02  0.26394876451E+02  0.00000000000E+00 0. -1.
         21   -1    0    0  501  503 -0.00000000000E+00 -0.00000000000E+00 -0.20040344799E+04  0.20040344799E+04  0.00000000000E+00 0. -1.
          6    1    1    2  501    0  0.39920097544E+02  0.52011598883E+02 -0.15919336220E+04  0.16026479580E+04  0.17300000000E+03 0. -1.
         -6    1    1    2    0  502 -0.39920097544E+02 -0.52011598883E+02 -0.38570598150E+03  0.42778139835E+03  0.17300000000E+03 0. -1.
<mgrwt>
<rscale>  2 0.18500762E+03</rscale>
<asrwt>0</asrwt>
<pdfrwt beam="1">  1       21 0.40607494E-02 0.18500762E+03</pdfrwt>
<pdfrwt beam="2">  1       21 0.30831306E+00 0.18500762E+03</pdfrwt>
<totfact> 0.11779630E+04</totfact>
</mgrwt>
</event>
<event>
 4    1  0.3945814E+000  0.1848893E+03  0.7546771E-02  0.1163153E+00
         21   -1    0    0  503  502  0.00000000000E+00  0.00000000000E+00  0.31711118345E+03  0.31711118345E+03  0.00000000000E+00 0. -1.
         21   -1    0    0  501  503 -0.00000000000E+00 -0.00000000000E+00 -0.10821493245E+03  0.10821493245E+03  0.00000000000E+00 0. -1.
          6    1    1    2  501    0  0.38662318775E+02 -0.52538247033E+02  0.91252441910E+02  0.20618208081E+03  0.17300000000E+03 0. -1.
         -6    1    1    2    0  502 -0.38662318775E+02  0.52538247033E+02  0.11764380909E+03  0.21914403508E+03  0.17300000000E+03 0. -1.
<mgrwt>
<rscale>  2 0.18488927E+03</rscale>
<asrwt>0</asrwt>
<pdfrwt beam="1">  1       21 0.48786336E-01 0.18488927E+03</pdfrwt>
<pdfrwt beam="2">  1       21 0.16648451E-01 0.18488927E+03</pdfrwt>
<totfact> 0.13035664E+05</totfact>
</mgrwt>
</event>
<event>
 4    1  0.3945814E+000  0.1824911E+03  0.7546771E-02  0.1165414E+00
         21   -1    0    0  501  502  0.00000000000E+00  0.00000000000E+00  0.12313084392E+03  0.12313084392E+03  0.00000000000E+00 0.  1.
         21   -1    0    0  502  503 -0.00000000000E+00 -0.00000000000E+00 -0.27353487216E+03  0.27353487216E+03  0.00000000000E+00 0.  1.
          6    1    1    2  501    0 -0.29097822398E+00  0.58085527729E+02 -0.54202870226E+02  0.19037059736E+03  0.17300000000E+03 0.  1.
         -6    1    1    2    0  503  0.29097822398E+00 -0.58085527729E+02 -0.96201158016E+02  0.20629511871E+03  0.17300000000E+03 0.  1.
<mgrwt>
<rscale>  2 0.18249113E+03</rscale>
<asrwt>0</asrwt>
<pdfrwt beam="1">  1       21 0.18943207E-01 0.18249113E+03</pdfrwt>
<pdfrwt beam="2">  1       21 0.42082288E-01 0.18249113E+03</pdfrwt>
<totfact> 0.13926707E+05</totfact>
</mgrwt>
</event>
<event>
 4    1  0.3945814E+000  0.3726885E+03  0.7546771E-02  0.1053670E+00
         21   -1    0    0  503  502  0.00000000000E+00  0.00000000000E+00  0.51069851189E+03  0.51069851189E+03  0.00000000000E+00 0.  1.
         21   -1    0    0  501  503 -0.00000000000E+00 -0.00000000000E+00 -0.38974852289E+03  0.38974852289E+03  0.00000000000E+00 0. -1.
          6    1    1    2  501    0 -0.87502073051E+02 -0.31829411284E+03  0.30796717232E+03  0.48346720084E+03  0.17300000000E+03 0.  1.
         -6    1    1    2    0  502  0.87502073051E+02  0.31829411284E+03 -0.18701718332E+03  0.41697983394E+03  0.17300000000E+03 0. -1.
<mgrwt>
<rscale>  2 0.37268855E+03</rscale>
<asrwt>0</asrwt>
<pdfrwt beam="1">  1       21 0.78569002E-01 0.37268855E+03</pdfrwt>
<pdfrwt beam="2">  1       21 0.59961311E-01 0.37268855E+03</pdfrwt>
<totfact> 0.33402059E+03</totfact>
</mgrwt>
</event>
<event>
 4    1  0.3945814E+000  0.2059584E+03  0.7546771E-02  0.1144807E+00
         21   -1    0    0  503  502  0.00000000000E+00  0.00000000000E+00  0.60962548890E+02  0.60962548890E+02  0.00000000000E+00 0.  1.
         21   -1    0    0  501  503 -0.00000000000E+00 -0.00000000000E+00 -0.75151835978E+03  0.75151835978E+03  0.00000000000E+00 0.  1.
          6    1    1    2  501    0 -0.96797183430E+02  0.55858395578E+02 -0.45587439286E+03  0.50024025942E+03  0.17300000000E+03 0. -1.
         -6    1    1    2    0  502  0.96797183430E+02 -0.55858395578E+02 -0.23468141803E+03  0.31224064925E+03  0.17300000000E+03 0. -1.
<mgrwt>
<rscale>  2 0.20595838E+03</rscale>
<asrwt>0</asrwt>
<pdfrwt beam="1">  1       21 0.93788546E-02 0.20595838E+03</pdfrwt>
<pdfrwt beam="2">  1       21 0.11561820E+00 0.20595838E+03</pdfrwt>
<totfact> 0.52211083E+04</totfact>
</mgrwt>
</event>
<event>
 4    1  0.3945814E+000  0.1815817E+03  0.7546771E-02  0.1166281E+00
         21   -1    0    0  503  502  0.00000000000E+00  0.00000000000E+00  0.22420448599E+03  0.22420448599E+03  0.00000000000E+00 0.  1.
         21   -1    0    0  501  503 -0.00000000000E+00 -0.00000000000E+00 -0.16735002149E+03  0.16735002149E+03  0.00000000000E+00 0.  1.
          6    1    1    2  501    0 -0.17187938947E+02 -0.52416431790E+02 -0.39739378721E+02  0.18587933126E+03  0.17300000000E+03 0. -1.
         -6    1    1    2    0  502  0.17187938947E+02  0.52416431790E+02  0.96593843219E+02  0.20567517622E+03  0.17300000000E+03 0. -1.
<mgrwt>
<rscale>  2 0.18158168E+03</rscale>
<asrwt>0</asrwt>
<pdfrwt beam="1">  1       21 0.34492998E-01 0.18158168E+03</pdfrwt>
<pdfrwt beam="2">  1       21 0.25746157E-01 0.18158168E+03</pdfrwt>
<totfact> 0.11644183E+05</totfact>
</mgrwt>
</event>
<event>
 4    1  0.3945814E+000  0.1857408E+03  0.7546771E-02  0.1162360E+00
         21   -1    0    0  501  502  0.00000000000E+00  0.00000000000E+00  0.26462858461E+02  0.26462858461E+02  0.00000000000E+00 0. -1.
         21   -1    0    0  502  503 -0.00000000000E+00 -0.00000000000E+00 -0.16829220207E+04  0.16829220207E+04  0.00000000000E+00 0. -1.
          6    1    1    2  501    0 -0.60649228861E+02  0.29871632745E+02 -0.42251154100E+03  0.46153618025E+03  0.17300000000E+03 0. -1.
         -6    1    1    2    0  503  0.60649228861E+02 -0.29871632745E+02 -0.12339476212E+04  0.12478486989E+04  0.17300000000E+03 0. -1.
<mgrwt>
<rscale>  2 0.18574080E+03</rscale>
<asrwt>0</asrwt>
<pdfrwt beam="1">  1       21 0.40712081E-02 0.18574080E+03</pdfrwt>
<pdfrwt beam="2">  1       21 0.25891114E+00 0.18574080E+03</pdfrwt>
<totfact> 0.22570515E+04</totfact>
</mgrwt>
</event>
<event>
 4    1  0.3945814E+000  0.1929576E+03  0.7546771E-02  0.1155821E+00
         21   -1    0    0  501  502  0.00000000000E+00  0.00000000000E+00  0.88928589067E+02  0.88928589067E+02  0.00000000000E+00 0.  1.
         21   -1    0    0  502  503 -0.00000000000E+00 -0.00000000000E+00 -0.48102230904E+03  0.48102230904E+03  0.00000000000E+00 0.  1.
          6    1    1    2  501    0  0.21959015810E+02 -0.82591900096E+02 -0.29863952970E+03  0.35555335611E+03  0.17300000000E+03 0.  1.
         -6    1    1    2    0  503 -0.21959015810E+02  0.82591900096E+02 -0.93454190268E+02  0.21439754200E+03  0.17300000000E+03 0.  1.
<mgrwt>
<rscale>  2 0.19295756E+03</rscale>
<asrwt>0</asrwt>
<pdfrwt beam="1">  1       21 0.13681321E-01 0.19295756E+03</pdfrwt>
<pdfrwt beam="2">  1       21 0.74003434E-01 0.19295756E+03</pdfrwt>
<totfact> 0.75928741E+04</totfact>
</mgrwt>
</event>
<event>
 4    1  0.3945814E+000  0.1891967E+03  0.7546771E-02  0.1159188E+00
         21   -1    0    0  503  502  0.00000000000E+00  0.00000000000E+00  0.15005454140E+03  0.15005454140E+03  0.00000000000E+00 0. -1.
         21   -1    0    0  501  503 -0.00000000000E+00 -0.00000000000E+00 -0.26532834173E+03  0.26532834173E+03  0.00000000000E+00 0. -1.
          6    1    1    2  501    0  0.36814300881E+02 -0.67164710481E+02 -0.12361884180E+03  0.22600223258E+03  0.17300000000E+03 0. -1.
         -6    1    1    2    0  502 -0.36814300881E+02  0.67164710481E+02  0.83450414687E+01  0.18938065054E+03  0.17300000000E+03 0. -1.
<mgrwt>
<rscale>  2 0.18919670E+03</rscale>
<asrwt>0</asrwt>
<pdfrwt beam="1">  1       21 0.23085314E-01 0.18919670E+03</pdfrwt>
<pdfrwt beam="2">  1       21 0.40819745E-01 0.18919670E+03</pdfrwt>
<totfact> 0.10202515E+05</totfact>
</mgrwt>
</event>
<event>
 4    1  0.3945814E+000  0.2072707E+03  0.7546771E-02  0.1143746E+00
         21   -1    0    0  501  502  0.00000000000E+00  0.00000000000E+00  0.13309955958E+03  0.13309955958E+03  0.00000000000E+00 0.  1.
         21   -1    0    0  502  503 -0.00000000000E+00 -0.00000000000E+00 -0.34026112822E+03  0.34026112822E+03  0.00000000000E+00 0.  1.
          6    1    1    2  501    0  0.19747098473E+02 -0.11243752895E+03 -0.49925948211E+02  0.21319884174E+03  0.17300000000E+03 0.  1.
         -6    1    1    2    0  503 -0.19747098473E+02  0.11243752895E+03 -0.15723562043E+03  0.26016184606E+03  0.17300000000E+03 0.  1.
<mgrwt>
<rscale>  2 0.20727071E+03</rscale>
<asrwt>0</asrwt>
<pdfrwt beam="1">  1       21 0.20476856E-01 0.20727071E+03</pdfrwt>
<pdfrwt beam="2">  1       21 0.52347865E-01 0.20727071E+03</pdfrwt>
<totfact> 0.75973122E+04</totfact>
</mgrwt>
</event>
<event>
 4    1  0.3945814E+000  0.1887520E+03  0.7546771E-02  0.1159592E+00
         21   -1    0    0  503  502  0.00000000000E+00  0.00000000000E+00  0.22929235798E+02  0.22929235798E+02  0.00000000000E+00 0. -1.
         21   -1    0    0  501  503 -0.00000000000E+00 -0.00000000000E+00 -0.15946652372E+04  0.15946652372E+04  0.00000000000E+00 0. -1.
          6    1    1    2  501    0  0.74999572639E+02 -0.85656519372E+01 -0.65638450451E+03  0.68298457087E+03  0.17300000000E+03 0. -1.
         -6    1    1    2    0  502 -0.74999572639E+02  0.85656519372E+01 -0.91535149692E+03  0.93460990215E+03  0.17300000000E+03 0. -1.
<mgrwt>
<rscale>  2 0.18875197E+03</rscale>
<asrwt>0</asrwt>
<pdfrwt beam="1">  1       21 0.35275733E-02 0.18875197E+03</pdfrwt>
<pdfrwt beam="2">  1       21 0.24533321E+00 0.18875197E+03</pdfrwt>
<totfact> 0.34357267E+04</totfact>
</mgrwt>
</event>
<event>
 4    1  0.3945814E+000  0.1806650E+03  0.7546771E-02  0.1167161E+00
         21   -1    0    0  501  502  0.00000000000E+00  0.00000000000E+00  0.53827061531E+03  0.53827061531E+03  0.00000000000E+00 0.  1.
         21   -1    0    0  502  503 -0.00000000000E+00 -0.00000000000E+00 -0.15039013681E+03  0.15039013681E+03  0.00000000000E+00 0.  1.
          6    1    1    2  501    0  0.17527984996E+02 -0.49026700534E+02  0.45994363817E+03  0.49415382010E+03  0.17300000000E+03 0.  1.
         -6    1    1    2    0  503 -0.17527984996E+02  0.49026700534E+02 -0.72063159674E+02  0.19450693202E+03  0.17300000000E+03 0.  1.
<mgrwt>
<rscale>  2 0.18066501E+03</rscale>
<asrwt>0</asrwt>
<pdfrwt beam="1">  1       21 0.82810863E-01 0.18066501E+03</pdfrwt>
<pdfrwt beam="2">  1       21 0.23136944E-01 0.18066501E+03</pdfrwt>
<totfact> 0.22478019E+04</totfact>
</mgrwt>
</event>
<event>
 4    1  0.3945814E+000  0.3018339E+03  0.7546771E-02  0.1084327E+00
         21   -1    0    0  501  502  0.00000000000E+00  0.00000000000E+00  0.72878449943E+03  0.72878449943E+03  0.00000000000E+00 0.  1.
         21   -1    0    0  502  503 -0.00000000000E+00 -0.00000000000E+00 -0.13907303472E+03  0.13907303472E+03  0.00000000000E+00 0.  1.
          6    1    1    2  501    0  0.18598016707E+03 -0.16305245669E+03  0.43285313385E+03  0.52769836238E+03  0.17300000000E+03 0.  1.
         -6    1    1    2    0  503 -0.18598016707E+03  0.16305245669E+03  0.15685833086E+03  0.34015917177E+03  0.17300000000E+03 0.  1.
<mgrwt>
<rscale>  2 0.30183394E+03</rscale>
<asrwt>0</asrwt>
<pdfrwt beam="1">  1       21 0.11212069E+00 0.30183394E+03</pdfrwt>
<pdfrwt beam="2">  1       21 0.21395852E-01 0.30183394E+03</pdfrwt>
<totfact> 0.11925740E+04</totfact>
</mgrwt>
</event>
<event>
 4    1  0.3945814E+000  0.2258718E+03  0.7546771E-02  0.1129580E+00
         21   -1    0    0  501  502  0.00000000000E+00  0.00000000000E+00  0.55154422491E+03  0.55154422491E+03  0.00000000000E+00 0.  1.
         21   -1    0    0  502  503 -0.00000000000E+00 -0.00000000000E+00 -0.92719718358E+02  0.92719718358E+02  0.00000000000E+00 0.  1.
          6    1    1    2  501    0  0.10632308682E+03 -0.98916565863E+02  0.24507765431E+03  0.33328837729E+03  0.17300000000E+03 0.  1.
         -6    1    1    2    0  503 -0.10632308682E+03  0.98916565863E+02  0.21374685224E+03  0.31097556598E+03  0.17300000000E+03 0.  1.
<mgrwt>
<rscale>  2 0.22587183E+03</rscale>
<asrwt>0</asrwt>
<pdfrwt beam="1">  1       21 0.84852956E-01 0.22587183E+03</pdfrwt>
<pdfrwt beam="2">  1       21 0.14264572E-01 0.22587183E+03</pdfrwt>
<totfact> 0.50887863E+04</totfact>
</mgrwt>
</event>
<event>
 4    1  0.3945814E+000  0.2427450E+03  0.7546771E-02  0.1117978E+00
         21   -1    0    0  503  502  0.00000000000E+00  0.00000000000E+00  0.48882077171E+02  0.48882077171E+02  0.00000000000E+00 0. -1.
         21   -1    0    0  501  503 -0.00000000000E+00 -0.00000000000E+00 -0.14441652191E+04  0.14441652191E+04  0.00000000000E+00 0. -1.
          6    1    1    2  501    0  0.16764420855E+03 -0.29859058626E+02 -0.10011499185E+04  0.10301583875E+04  0.17300000000E+03 0. -1.
         -6    1    1    2    0  502 -0.16764420855E+03  0.29859058626E+02 -0.39413322344E+03  0.46288890877E+03  0.17300000000E+03 0. -1.
<mgrwt>
<rscale>  2 0.24274502E+03</rscale>
<asrwt>0</asrwt>
<pdfrwt beam="1">  1       21 0.75203184E-02 0.24274502E+03</pdfrwt>
<pdfrwt beam="2">  1       21 0.22217930E+00 0.24274502E+03</pdfrwt>
<totfact> 0.12530551E+04</totfact>
</mgrwt>
</event>
<event>
 4    1  0.3945814E+000  0.1823801E+03  0.7546771E-02  0.1165519E+00
         21   -1    0    0  501  502  0.00000000000E+00  0.00000000000E+00  0.66559329140E+02  0.66559329140E+02  0.00000000000E+00 0. -1.
         21   -1    0    0  502  503 -0.00000000000E+00 -0.00000000000E+00 -0.78031576256E+03  0.78031576256E+03  0.00000000000E+00 0. -1.
          6    1    1    2  501    0 -0.53811338937E+02  0.20924998482E+02 -0.10296960619E+03  0.20944033890E+03  0.17300000000E+03 0. -1.
         -6    1    1    2    0  503  0.53811338937E+02 -0.20924998482E+02 -0.61078682723E+03  0.63743475280E+03  0.17300000000E+03 0. -1.
<mgrwt>
<rscale>  2 0.18238014E+03</rscale>
<asrwt>0</asrwt>
<pdfrwt beam="1">  1       21 0.10239897E-01 0.18238014E+03</pdfrwt>
<pdfrwt beam="2">  1       21 0.12004857E+00 0.18238014E+03</pdfrwt>
<totfact> 0.41281728E+04</totfact>
</mgrwt>
</event>
<event>
 4    1  0.3945814E+000  0.2115637E+03  0.7546771E-02  0.1140334E+00
         21   -1    0    0  503  502  0.00000000000E+00  0.00000000000E+00  0.24901982080E+03  0.24901982080E+03  0.00000000000E+00 0.  1.
         21   -1    0    0  501  503 -0.00000000000E+00 -0.00000000000E+00 -0.24440461432E+03  0.24440461432E+03  0.00000000000E+00 0.  1.
          6    1    1    2  501    0  0.97529633627E+02 -0.72925864418E+02 -0.12459310987E+03  0.24552526176E+03  0.17300000000E+03 0.  1.
         -6    1    1    2    0  502 -0.97529633627E+02  0.72925864418E+02  0.12920831636E+03  0.24789917336E+03  0.17300000000E+03 0.  1.
<mgrwt>
<rscale>  2 0.21156373E+03</rscale>
<asrwt>0</asrwt>
<pdfrwt beam="1">  1       21 0.38310742E-01 0.21156373E+03</pdfrwt>
<pdfrwt beam="2">  1       21 0.37600710E-01 0.21156373E+03</pdfrwt>
<totfact> 0.44401706E+04</totfact>
</mgrwt>
</event>
<event>
 4    1  0.3945814E+000  0.1765334E+03  0.7546771E-02  0.1171201E+00
         21   -1    0    0  503  502  0.00000000000E+00  0.00000000000E+00  0.13535341939E+03  0.13535341939E+03  0.00000000000E+00 0. -1.
         21   -1    0    0  501  503 -0.00000000000E+00 -0.00000000000E+00 -0.42178369819E+03  0.42178369819E+03  0.00000000000E+00 0. -1.
          6    1    1    2  501    0  0.29406638686E+02  0.19242554242E+02 -0.33093879395E+03  0.37507934045E+03  0.17300000000E+03 0. -1.
         -6    1    1    2    0  502 -0.29406638686E+02 -0.19242554242E+02  0.44508515152E+02  0.18205777713E+03  0.17300000000E+03 0. -1.
<mgrwt>
<rscale>  2 0.17653336E+03</rscale>
<asrwt>0</asrwt>
<pdfrwt beam="1">  1       21 0.20823603E-01 0.17653336E+03</pdfrwt>
<pdfrwt beam="2">  1       21 0.64889799E-01 0.17653336E+03</pdfrwt>
<totfact> 0.47191786E+04</totfact>
</mgrwt>
</event>
<event>
 4    1  0.3945814E+000  0.2178360E+03  0.7546771E-02  0.1135507E+00
         21   -1    0    0  503  502  0.00000000000E+00  0.00000000000E+00  0.31307936915E+03  0.31307936915E+03  0.00000000000E+00 0.  1.
         21   -1    0    0  501  503 -0.00000000000E+00 -0.00000000000E+00 -0.27861561857E+03  0.27861561857E+03  0.00000000000E+00 0.  1.
          6    1    1    2  501    0  0.36421528481E+02 -0.12726737550E+03 -0.18254723487E+03  0.28421119887E+03  0.17300000000E+03 0.  1.
         -6    1    1    2    0  502 -0.36421528481E+02  0.12726737550E+03  0.21701098544E+03  0.30748378885E+03  0.17300000000E+03 0.  1.
<mgrwt>
<rscale>  2 0.21783598E+03</rscale>
<asrwt>0</asrwt>
<pdfrwt beam="1">  1       21 0.48166057E-01 0.21783598E+03</pdfrwt>
<pdfrwt beam="2">  1       21 0.42863941E-01 0.21783598E+03</pdfrwt>
<totfact> 0.21246288E+04</totfact>
</mgrwt>
</event>
<event>
 4    1  0.3945814E+000  0.1755270E+03  0.7546771E-02  0.1172204E+00
         21   -1    0    0  501  502  0.00000000000E+00  0.00000000000E+00  0.53524481075E+02  0.53524481075E+02  0.00000000000E+00 0. -1.
         21   -1    0    0  502  503 -0.00000000000E+00 -0.00000000000E+00 -0.58160370200E+03  0.58160370200E+03  0.00000000000E+00 0. -1.
          6    1    1    2  501    0  0.29658168713E+02  0.10590878011E+01 -0.23182704856E+03  0.29078086093E+03  0.17300000000E+03 0.  1.
         -6    1    1    2    0  503 -0.29658168713E+02 -0.10590878011E+01 -0.29625217237E+03  0.34434732215E+03  0.17300000000E+03 0.  1.
<mgrwt>
<rscale>  2 0.17552700E+03</rscale>
<asrwt>0</asrwt>
<pdfrwt beam="1">  1       21 0.82345350E-02 0.17552700E+03</pdfrwt>
<pdfrwt beam="2">  1       21 0.89477499E-01 0.17552700E+03</pdfrwt>
<totfact> 0.12229968E+05</totfact>
</mgrwt>
</event>
<event>
 4    1  0.3945814E+000  0.1957255E+03  0.7546771E-02  0.1153396E+00
         21   -1    0    0  501  502  0.00000000000E+00  0.00000000000E+00  0.76229027510E+03  0.76229027510E+03  0.00000000000E+00 0.  1.
         21   -1    0    0  502  503 -0.00000000000E+00 -0.00000000000E+00 -0.51238779182E+02  0.51238779182E+02  0.00000000000E+00 0.  1.
          6    1    1    2  501    0 -0.83687924999E+02  0.37091715341E+02  0.41190483339E+03  0.45604172606E+03  0.17300000000E+03 0. -1.
         -6    1    1    2    0  503  0.83687924999E+02 -0.37091715341E+02  0.29914666253E+03  0.35748732822E+03  0.17300000000E+03 0. -1.
<mgrwt>
<rscale>  2 0.19572548E+03</rscale>
<asrwt>0</asrwt>
<pdfrwt beam="1">  1       21 0.11727542E+00 0.19572548E+03</pdfrwt>
<pdfrwt beam="2">  1       21 0.78828897E-02 0.19572548E+03</pdfrwt>
<totfact> 0.68706017E+04</totfact>
</mgrwt>
</event>
<event>
 4    1  0.3945814E+000  0.2289639E+03  0.7546771E-02  0.1127371E+00
         21   -1    0    0  503  502  0.00000000000E+00  0.00000000000E+00  0.47685492310E+03  0.47685492310E+03  0.00000000000E+00 0. -1.
         21   -1    0    0  501  503 -0.00000000000E+00 -0.00000000000E+00 -0.35196154524E+03  0.35196154524E+03  0.00000000000E+00 0.  1.
          6    1    1    2  501    0 -0.45098142908E+02 -0.14304420384E+03 -0.28119793828E+03  0.36262482987E+03  0.17300000000E+03 0.  1.
         -6    1    1    2    0  502  0.45098142908E+02  0.14304420384E+03  0.40609131613E+03  0.46619163847E+03  0.17300000000E+03 0. -1.
<mgrwt>
<rscale>  2 0.22896394E+03</rscale>
<asrwt>0</asrwt>
<pdfrwt beam="1">  1       21 0.73362296E-01 0.22896394E+03</pdfrwt>
<pdfrwt beam="2">  1       21 0.54147930E-01 0.22896394E+03</pdfrwt>
<totfact> 0.52426510E+03</totfact>
</mgrwt>
</event>
<event>
 4    1  0.3945814E+000  0.2542957E+03  0.7546771E-02  0.1110620E+00
         21   -1    0    0  503  502  0.00000000000E+00  0.00000000000E+00  0.43212404605E+03  0.43212404605E+03  0.00000000000E+00 0. -1.
         21   -1    0    0  501  503 -0.00000000000E+00 -0.00000000000E+00 -0.17084648560E+03  0.17084648560E+03  0.00000000000E+00 0.  1.
          6    1    1    2  501    0  0.15389752960E+03  0.10513263516E+03  0.24439953061E+02  0.25546747718E+03  0.17300000000E+03 0. -1.
         -6    1    1    2    0  502 -0.15389752960E+03 -0.10513263516E+03  0.23683760739E+03  0.34750305447E+03  0.17300000000E+03 0.  1.
<mgrwt>
<rscale>  2 0.25429573E+03</rscale>
<asrwt>0</asrwt>
<pdfrwt beam="1">  1       21 0.66480622E-01 0.25429573E+03</pdfrwt>
<pdfrwt beam="2">  1       21 0.26284075E-01 0.25429573E+03</pdfrwt>
<totfact> 0.27676232E+04</totfact>
</mgrwt>
</event>
<event>
 4    1  0.3945814E+000  0.2492326E+03  0.7546771E-02  0.1113791E+00
         21   -1    0    0  501  502  0.00000000000E+00  0.00000000000E+00  0.96438994922E+03  0.96438994922E+03  0.00000000000E+00 0.  1.
         21   -1    0    0  502  503 -0.00000000000E+00 -0.00000000000E+00 -0.94676945156E+02  0.94676945156E+02  0.00000000000E+00 0.  1.
          6    1    1    2  501    0  0.12328584159E+03  0.13033982773E+03  0.73425647624E+03  0.77540276136E+03  0.17300000000E+03 0.  1.
         -6    1    1    2    0  503 -0.12328584159E+03 -0.13033982773E+03  0.13545652783E+03  0.28366413302E+03  0.17300000000E+03 0.  1.
<mgrwt>
<rscale>  2 0.24923256E+03</rscale>
<asrwt>0</asrwt>
<pdfrwt beam="1">  1       21 0.14836768E+00 0.24923256E+03</pdfrwt>
<pdfrwt beam="2">  1       21 0.14565684E-01 0.24923256E+03</pdfrwt>
<totfact> 0.12262449E+04</totfact>
</mgrwt>
</event>
<event>
 4    1  0.3945814E+000  0.1956644E+03  0.7546771E-02  0.1153449E+00
         21   -1    0    0  503  502  0.00000000000E+00  0.00000000000E+00  0.13877549980E+02  0.13877549980E+02  0.00000000000E+00 0.  1.
         21   -1    0    0  501  503 -0.00000000000E+00 -0.00000000000E+00 -0.27587545207E+04  0.27587545207E+04  0.00000000000E+00 0.  1.
          6    1    1    2  501    0 -0.74718811905E+02  0.52655856778E+02 -0.13757133075E+04  0.13895580753E+04  0.17300000000E+03 0.  1.
         -6    1    1    2    0  502  0.74718811905E+02 -0.52655856778E+02 -0.13691636632E+04  0.13830739954E+04  0.17300000000E+03 0.  1.
<mgrwt>
<rscale>  2 0.19566436E+03</rscale>
<asrwt>0</asrwt>
<pdfrwt beam="1">  1       21 0.21350093E-02 0.19566436E+03</pdfrwt>
<pdfrwt beam="2">  1       21 0.42442345E+00 0.19566436E+03</pdfrwt>
<totfact> 0.67309329E+03</totfact>
</mgrwt>
</event>
<event>
 4    1  0.3945814E+000  0.2032071E+03  0.7546771E-02  0.1147061E+00
         21   -1    0    0  501  502  0.00000000000E+00  0.00000000000E+00  0.40602824141E+02  0.40602824141E+02  0.00000000000E+00 0.  1.
         21   -1    0    0  502  503 -0.00000000000E+00 -0.00000000000E+00 -0.10675238527E+04  0.10675238527E+04  0.00000000000E+00 0.  1.
          6    1    1    2  501    0  0.93095487483E+02 -0.51935992086E+02 -0.39292525772E+03  0.44236113665E+03  0.17300000000E+03 0.  1.
         -6    1    1    2    0  503 -0.93095487483E+02  0.51935992086E+02 -0.63399577083E+03  0.66576554018E+03  0.17300000000E+03 0.  1.
<mgrwt>
<rscale>  2 0.20320708E+03</rscale>
<asrwt>0</asrwt>
<pdfrwt beam="1">  1       21 0.62465896E-02 0.20320708E+03</pdfrwt>
<pdfrwt beam="2">  1       21 0.16423440E+00 0.20320708E+03</pdfrwt>
<totfact> 0.42879191E+04</totfact>
</mgrwt>
</event>
<event>
 4    1  0.3945814E+000  0.2350003E+03  0.7546771E-02  0.1123169E+00
         21   -1    0    0  501  502  0.00000000000E+00  0.00000000000E+00  0.17732158228E+04  0.17732158228E+04  0.00000000000E+00 0.  1.
         21   -1    0    0  502  503 -0.00000000000E+00 -0.00000000000E+00 -0.33662560595E+02  0.33662560595E+02  0.00000000000E+00 0. -1.
          6    1    1    2  501    0 -0.57481523449E+02 -0.14829704142E+03  0.62266312880E+03  0.66553325236E+03  0.17300000000E+03 0. -1.
         -6    1    1    2    0  503  0.57481523449E+02  0.14829704142E+03  0.11168901334E+04  0.11413451310E+04  0.17300000000E+03 0. -1.
<mgrwt>
<rscale>  2 0.23500029E+03</rscale>
<asrwt>0</asrwt>
<pdfrwt beam="1">  1       21 0.27280236E+00 0.23500029E+03</pdfrwt>
<pdfrwt beam="2">  1       21 0.51788569E-02 0.23500029E+03</pdfrwt>
<totfact> 0.11938113E+04</totfact>
</mgrwt>
</event>
<event>
 4    1  0.3945814E+000  0.2258935E+03  0.7546771E-02  0.1129564E+00
         21   -1    0    0  503  502  0.00000000000E+00  0.00000000000E+00  0.31741386240E+03  0.31741386240E+03  0.00000000000E+00 0. -1.
         21   -1    0    0  501  503 -0.00000000000E+00 -0.00000000000E+00 -0.19142464893E+03  0.19142464893E+03  0.00000000000E+00 0.  1.
          6    1    1    2  501    0  0.39072642360E+01  0.14520190263E+03 -0.38831929901E+02  0.22920684549E+03  0.17300000000E+03 0.  1.
         -6    1    1    2    0  502 -0.39072642360E+01 -0.14520190263E+03  0.16482114337E+03  0.27963166584E+03  0.17300000000E+03 0. -1.
<mgrwt>
<rscale>  2 0.22589347E+03</rscale>
<asrwt>0</asrwt>
<pdfrwt beam="1">  1       21 0.48832902E-01 0.22589347E+03</pdfrwt>
<pdfrwt beam="2">  1       21 0.29449946E-01 0.22589347E+03</pdfrwt>
<totfact> 0.43509072E+04</totfact>
</mgrwt>
</event>
<event>
 4    1  0.3945814E+000  0.2280767E+03  0.7546771E-02  0.1128001E+00
         21   -1    0    0  501  502  0.00000000000E+00  0.00000000000E+00  0.34614373196E+03  0.34614373196E+03  0.00000000000E+00 0. -1.
         21   -1    0    0  502  503 -0.00000000000E+00 -0.00000000000E+00 -0.19814169880E+03  0.19814169880E+03  0.00000000000E+00 0.  1.
          6    1    1    2  501    0 -0.49769501221E+01 -0.14854369615E+03  0.20775170191E+03  0.30851218670E+03  0.17300000000E+03 0. -1.
         -6    1    1    2    0  503  0.49769501221E+01  0.14854369615E+03 -0.59749668743E+02  0.23577324406E+03  0.17300000000E+03 0.  1.
<mgrwt>
<rscale>  2 0.22807674E+03</rscale>
<asrwt>0</asrwt>
<pdfrwt beam="1">  1       21 0.53252882E-01 0.22807674E+03</pdfrwt>
<pdfrwt beam="2">  1       21 0.30483338E-01 0.22807674E+03</pdfrwt>
<totfact> 0.33869919E+04</totfact>
</mgrwt>
</event>
<event>
 4    1  0.3945814E+000  0.2063998E+03  0.7546771E-02  0.1144449E+00
         21   -1    0    0  503  502  0.00000000000E+00  0.00000000000E+00  0.11173301830E+04  0.11173301830E+04  0.00000000000E+00 0.  1.
         21   -1    0    0  501  503 -0.00000000000E+00 -0.00000000000E+00 -0.54783152439E+02  0.54783152439E+02  0.00000000000E+00 0.  1.
          6    1    1    2  501    0 -0.11253929775E+03  0.26019154927E+01  0.20812765585E+03  0.29311769758E+03  0.17300000000E+03 0.  1.
         -6    1    1    2    0  502  0.11253929775E+03 -0.26019154927E+01  0.85441937474E+03  0.87899563789E+03  0.17300000000E+03 0.  1.
<mgrwt>
<rscale>  2 0.20639977E+03</rscale>
<asrwt>0</asrwt>
<pdfrwt beam="1">  1       21 0.17189693E+00 0.20639977E+03</pdfrwt>
<pdfrwt beam="2">  1       21 0.84281781E-02 0.20639977E+03</pdfrwt>
<totfact> 0.22462629E+04</totfact>
</mgrwt>
</event>
<event>
 4    1  0.3945814E+000  0.1881417E+03  0.7546771E-02  0.1160148E+00
         21   -1    0    0  503  502  0.00000000000E+00  0.00000000000E+00  0.74898836314E+02  0.74898836314E+02  0.00000000000E+00 0.  1.
         21   -1    0    0  501  503 -0.00000000000E+00 -0.00000000000E+00 -0.55624581701E+03  0.55624581701E+03  0.00000000000E+00 0.  1.
          6    1    1    2  501    0 -0.63871956810E+02  0.37264995780E+02 -0.36304592494E+03  0.40890053851E+03  0.17300000000E+03 0.  1.
         -6    1    1    2    0  502  0.63871956810E+02 -0.37264995780E+02 -0.11830105576E+03  0.22224411482E+03  0.17300000000E+03 0.  1.
<mgrwt>
<rscale>  2 0.18814172E+03</rscale>
<asrwt>0</asrwt>
<pdfrwt beam="1">  1       21 0.11522898E-01 0.18814172E+03</pdfrwt>
<pdfrwt beam="2">  1       21 0.85576276E-01 0.18814172E+03</pdfrwt>
<totfact> 0.74587421E+04</totfact>
</mgrwt>
</event>
<event>
 4    1  0.3945814E+000  0.1943460E+03  0.7546771E-02  0.1154599E+00
         21   -1    0    0  503  502  0.00000000000E+00  0.00000000000E+00  0.35229316139E+03  0.35229316139E+03  0.00000000000E+00 0. -1.
         21   -1    0    0  501  503 -0.00000000000E+00 -0.00000000000E+00 -0.12218293922E+03  0.12218293922E+03  0.00000000000E+00 0. -1.
          6    1    1    2  501    0 -0.88214140397E+02  0.77221848167E+01  0.32014463401E+02  0.19696520650E+03  0.17300000000E+03 0. -1.
         -6    1    1    2    0  502  0.88214140397E+02 -0.77221848167E+01  0.19809575877E+03  0.27751089411E+03  0.17300000000E+03 0. -1.
<mgrwt>
<rscale>  2 0.19434600E+03</rscale>
<asrwt>0</asrwt>
<pdfrwt beam="1">  1       21 0.54198948E-01 0.19434600E+03</pdfrwt>
<pdfrwt beam="2">  1       21 0.18797375E-01 0.19434600E+03</pdfrwt>
<totfact> 0.83305358E+04</totfact>
</mgrwt>
</event>
<event>
 4    1  0.3945814E+000  0.2305172E+03  0.7546771E-02  0.1126276E+00
         21   -1    0    0  501  502  0.00000000000E+00  0.00000000000E+00  0.89833228067E+03  0.89833228067E+03  0.00000000000E+00 0.  1.
         21   -1    0    0  502  503 -0.00000000000E+00 -0.00000000000E+00 -0.12136838673E+03  0.12136838673E+03  0.00000000000E+00 0. -1.
          6    1    1    2  501    0  0.62200220858E+02 -0.13906944971E+03  0.23440479802E+02  0.23170592442E+03  0.17300000000E+03 0.  1.
         -6    1    1    2    0  503 -0.62200220858E+02  0.13906944971E+03  0.75352341413E+03  0.78799474298E+03  0.17300000000E+03 0. -1.
<mgrwt>
<rscale>  2 0.23051720E+03</rscale>
<asrwt>0</asrwt>
<pdfrwt beam="1">  1       21 0.13820496E+00 0.23051720E+03</pdfrwt>
<pdfrwt beam="2">  1       21 0.18672060E-01 0.23051720E+03</pdfrwt>
<totfact> 0.94481907E+03</totfact>
</mgrwt>
</event>
<event>
 4    1  0.3945814E+000  0.1850118E+03  0.7546771E-02  0.1163039E+00
         21   -1    0    0  501  502  0.00000000000E+00  0.00000000000E+00  0.85252227317E+02  0.85252227317E+02  0.00000000000E+00 0. -1.
         21   -1    0    0  502  503 -0.00000000000E+00 -0.00000000000E+00 -0.53043998639E+03  0.53043998639E+03  0.00000000000E+00 0. -1.
          6    1    1    2  501    0  0.64783339548E+02 -0.10173398984E+02 -0.70819907398E+02  0.19810310046E+03  0.17300000000E+03 0. -1.
         -6    1    1    2    0  503 -0.64783339548E+02  0.10173398984E+02 -0.37436785167E+03  0.41758911324E+03  0.17300000000E+03 0. -1.
<mgrwt>
<rscale>  2 0.18501184E+03</rscale>
<asrwt>0</asrwt>
<pdfrwt beam="1">  1       21 0.13115728E-01 0.18501184E+03</pdfrwt>
<pdfrwt beam="2">  1       21 0.81606150E-01 0.18501184E+03</pdfrwt>
<totfact> 0.65999588E+04</totfact>
</mgrwt>
</event>
<event>
 4    1  0.3945814E+000  0.1834622E+03  0.7546771E-02  0.1164494E+00
         21   -1    0    0  503  502  0.00000000000E+00  0.00000000000E+00  0.13152909785E+03  0.13152909785E+03  0.00000000000E+00 0. -1.
         21   -1    0    0  501  503 -0.00000000000E+00 -0.00000000000E+00 -0.25703036247E+03  0.25703036247E+03  0.00000000000E+00 0. -1.
          6    1    1    2  501    0  0.29275819985E+02  0.53593772584E+02 -0.75631405862E+02  0.19844010595E+03  0.17300000000E+03 0. -1.
         -6    1    1    2    0  502 -0.29275819985E+02 -0.53593772584E+02 -0.49869858750E+02  0.19011935437E+03  0.17300000000E+03 0. -1.
<mgrwt>
<rscale>  2 0.18346217E+03</rscale>
<asrwt>0</asrwt>
<pdfrwt beam="1">  1       21 0.20235246E-01 0.18346217E+03</pdfrwt>
<pdfrwt beam="2">  1       21 0.39543132E-01 0.18346217E+03</pdfrwt>
<totfact> 0.13965119E+05</totfact>
</mgrwt>
</event>
<event>
 4    1  0.3945814E+000  0.2609615E+03  0.7546771E-02  0.1106567E+00
         21   -1    0    0  503  502  0.00000000000E+00  0.00000000000E+00  0.28788603271E+03  0.28788603271E+03  0.00000000000E+00 0.  1.
         21   -1    0    0  501  503 -0.00000000000E+00 -0.00000000000E+00 -0.40517339037E+03  0.40517339037E+03  0.00000000000E+00 0. -1.
          6    1    1    2  501    0  0.79510018701E+02  0.17846578770E+03 -0.28219255402E+03  0.38436118169E+03  0.17300000000E+03 0. -1.
         -6    1    1    2    0  502 -0.79510018701E+02 -0.17846578770E+03  0.16490519635E+03  0.30869824138E+03  0.17300000000E+03 0.  1.
<mgrwt>
<rscale>  2 0.26096145E+03</rscale>
<asrwt>0</asrwt>
<pdfrwt beam="1">  1       21 0.44290159E-01 0.26096145E+03</pdfrwt>
<pdfrwt beam="2">  1       21 0.62334368E-01 0.26096145E+03</pdfrwt>
<totfact> 0.11218435E+04</totfact>
</mgrwt>
</event>
<event>
 4    1  0.3945814E+000  0.1990800E+03  0.7546771E-02  0.1150518E+00
         21   -1    0    0  501  502  0.00000000000E+00  0.00000000000E+00  0.24801225826E+03  0.24801225826E+03  0.00000000000E+00 0.  1.
         21   -1    0    0  502  503 -0.00000000000E+00 -0.00000000000E+00 -0.18916725102E+03  0.18916725102E+03  0.00000000000E+00 0. -1.
          6    1    1    2  501    0  0.65256312996E+02  0.73793452255E+02  0.11554637296E+03  0.23018215458E+03  0.17300000000E+03 0.  1.
         -6    1    1    2    0  503 -0.65256312996E+02 -0.73793452255E+02 -0.56701365715E+02  0.20699735471E+03  0.17300000000E+03 0. -1.
<mgrwt>
<rscale>  2 0.19908003E+03</rscale>
<asrwt>0</asrwt>
<pdfrwt beam="1">  1       21 0.38155732E-01 0.19908003E+03</pdfrwt>
<pdfrwt beam="2">  1       21 0.29102654E-01 0.19908003E+03</pdfrwt>
<totfact> 0.74673062E+04</totfact>
</mgrwt>
</event>
<event>
 4    1  0.3945814E+000  0.2024067E+03  0.7546771E-02  0.1147724E+00
         21   -1    0    0  501  502  0.00000000000E+00  0.00000000000E+00  0.16010538085E+03  0.16010538085E+03  0.00000000000E+00 0.  1.
         21   -1    0    0  502  503 -0.00000000000E+00 -0.00000000000E+00 -0.31894608793E+03  0.31894608793E+03  0.00000000000E+00 0. -1.
          6    1    1    2  501    0 -0.10440763000E+03 -0.11769040730E+02  0.27086231685E+02  0.20421098763E+03  0.17300000000E+03 0.  1.
         -6    1    1    2    0  503  0.10440763000E+03  0.11769040730E+02 -0.18592693876E+03  0.27484048115E+03  0.17300000000E+03 0. -1.
<mgrwt>
<rscale>  2 0.20240668E+03</rscale>
<asrwt>0</asrwt>
<pdfrwt beam="1">  1       21 0.24631597E-01 0.20240668E+03</pdfrwt>
<pdfrwt beam="2">  1       21 0.49068628E-01 0.20240668E+03</pdfrwt>
<totfact> 0.61465441E+04</totfact>
</mgrwt>
</event>
<event>
 4    1  0.3945814E+000  0.2430241E+03  0.7546771E-02  0.1117794E+00
         21   -1    0    0  501  502  0.00000000000E+00  0.00000000000E+00  0.22677099148E+03  0.22677099148E+03  0.00000000000E+00 0. -1.
         21   -1    0    0  502  503 -0.00000000000E+00 -0.00000000000E+00 -0.26353218990E+03  0.26353218990E+03  0.00000000000E+00 0. -1.
          6    1    1    2  501    0 -0.13971957540E+03  0.98031425449E+02  0.81655360622E+01  0.24316125535E+03  0.17300000000E+03 0. -1.
         -6    1    1    2    0  503  0.13971957540E+03 -0.98031425449E+02 -0.44926734484E+02  0.24714192602E+03  0.17300000000E+03 0. -1.
<mgrwt>
<rscale>  2 0.24302411E+03</rscale>
<asrwt>0</asrwt>
<pdfrwt beam="1">  1       21 0.34887845E-01 0.24302411E+03</pdfrwt>
<pdfrwt beam="2">  1       21 0.40543414E-01 0.24302411E+03</pdfrwt>
<totfact> 0.45354243E+04</totfact>
</mgrwt>
</event>
<event>
 4    1  0.3945814E+000  0.1955565E+03  0.7546771E-02  0.1153543E+00
         21   -1    0    0  501  502  0.00000000000E+00  0.00000000000E+00  0.44108927151E+02  0.44108927151E+02  0.00000000000E+00 0.  1.
         21   -1    0    0  502  503 -0.00000000000E+00 -0.00000000000E+00 -0.15708314861E+04  0.15708314861E+04  0.00000000000E+00 0.  1.
          6    1    1    2  501    0  0.74687505165E+02 -0.52298386003E+02 -0.22286000804E+03  0.29649439757E+03  0.17300000000E+03 0.  1.
         -6    1    1    2    0  503 -0.74687505165E+02  0.52298386003E+02 -0.13038625509E+04  0.13184460157E+04  0.17300000000E+03 0.  1.
<mgrwt>
<rscale>  2 0.19555650E+03</rscale>
<asrwt>0</asrwt>
<pdfrwt beam="1">  1       21 0.67859887E-02 0.19555650E+03</pdfrwt>
<pdfrwt beam="2">  1       21 0.24166639E+00 0.19555650E+03</pdfrwt>
<totfact> 0.11853536E+04</totfact>
</mgrwt>
</event>
<event>
 4    1  0.3945814E+000  0.2234786E+03  0.7546771E-02  0.1131316E+00
         21   -1    0    0  501  502  0.00000000000E+00  0.00000000000E+00  0.31913228331E+03  0.31913228331E+03  0.00000000000E+00 0. -1.
         21   -1    0    0  502  503 -0.00000000000E+00 -0.00000000000E+00 -0.20101117449E+03  0.20101117449E+03  0.00000000000E+00 0. -1.
          6    1    1    2  501    0  0.13342687672E+03 -0.47020939427E+02  0.18144903214E+03  0.28786533560E+03  0.17300000000E+03 0. -1.
         -6    1    1    2    0  503 -0.13342687672E+03  0.47020939427E+02 -0.63327923321E+02  0.23227812219E+03  0.17300000000E+03 0. -1.
<mgrwt>
<rscale>  2 0.22347863E+03</rscale>
<asrwt>0</asrwt>
<pdfrwt beam="1">  1       21 0.49097274E-01 0.22347863E+03</pdfrwt>
<pdfrwt beam="2">  1       21 0.30924796E-01 0.22347863E+03</pdfrwt>
<totfact> 0.39140378E+04</totfact>
</mgrwt>
</event>
<event>
 4    1  0.3945814E+000  0.4307280E+03  0.7546771E-02  0.1033630E+00
         21   -1    0    0  501  502  0.00000000000E+00  0.00000000000E+00  0.35361590025E+03  0.35361590025E+03  0.00000000000E+00 0. -1.
         21   -1    0    0  502  503 -0.00000000000E+00 -0.00000000000E+00 -0.58989334306E+03  0.58989334306E+03  0.00000000000E+00 0.  1.
          6    1    1    2  501    0  0.38270763860E+03  0.95563922819E+02  0.38745232183E+02  0.43246710049E+03  0.17300000000E+03 0. -1.
         -6    1    1    2    0  503 -0.38270763860E+03 -0.95563922819E+02 -0.27502267499E+03  0.51104214282E+03  0.17300000000E+03 0.  1.
<mgrwt>
<rscale>  2 0.43072799E+03</rscale>
<asrwt>0</asrwt>
<pdfrwt beam="1">  1       21 0.54402446E-01 0.43072799E+03</pdfrwt>
<pdfrwt beam="2">  1       21 0.90752822E-01 0.43072799E+03</pdfrwt>
<totfact> 0.28798802E+03</totfact>
</mgrwt>
</event>
<event>
 4    1  0.3945814E+000  0.2701606E+03  0.7546771E-02  0.1101188E+00
         21   -1    0    0  501  502  0.00000000000E+00  0.00000000000E+00  0.15340927975E+04  0.15340927975E+04  0.00000000000E+00 0.  1.
         21   -1    0    0  502  503 -0.00000000000E+00 -0.00000000000E+00 -0.84465863998E+02  0.84465863998E+02  0.00000000000E+00 0. -1.
          6    1    1    2  501    0 -0.11184335890E+03  0.17478220652E+03  0.12596344693E+04  0.12882801532E+04  0.17300000000E+03 0.  1.
         -6    1    1    2    0  503  0.11184335890E+03 -0.17478220652E+03  0.18999246418E+03  0.33027850837E+03  0.17300000000E+03 0. -1.
<mgrwt>
<rscale>  2 0.27016061E+03</rscale>
<asrwt>0</asrwt>
<pdfrwt beam="1">  1       21 0.23601426E+00 0.27016061E+03</pdfrwt>
<pdfrwt beam="2">  1       21 0.12994749E-01 0.27016061E+03</pdfrwt>
<totfact> 0.38227396E+03</totfact>
</mgrwt>
</event>
<event>
 4    1  0.3945814E+000  0.1823859E+03  0.7546771E-02  0.1165514E+00
         21   -1    0    0  501  502  0.00000000000E+00  0.00000000000E+00  0.64800056932E+03  0.64800056932E+03  0.00000000000E+00 0. -1.
         21   -1    0    0  502  503 -0.00000000000E+00 -0.00000000000E+00 -0.52690687749E+03  0.52690687749E+03  0.00000000000E+00 0. -1.
          6    1    1    2  501    0 -0.32403090875E+02  0.47808453447E+02  0.61865088107E+03  0.64497559734E+03  0.17300000000E+03 0. -1.
         -6    1    1    2    0  503  0.32403090875E+02 -0.47808453447E+02 -0.49755718924E+03  0.52993184947E+03  0.17300000000E+03 0. -1.
<mgrwt>
<rscale>  2 0.18238588E+03</rscale>
<asrwt>0</asrwt>
<pdfrwt beam="1">  1       21 0.99692394E-01 0.18238588E+03</pdfrwt>
<pdfrwt beam="2">  1       21 0.81062597E-01 0.18238588E+03</pdfrwt>
<totfact> 0.11155067E+03</totfact>
</mgrwt>
</event>
<event>
 4    1  0.3945814E+000  0.3137118E+03  0.7546771E-02  0.1078580E+00
         21   -1    0    0  503  502  0.00000000000E+00  0.00000000000E+00  0.46770512203E+03  0.46770512203E+03  0.00000000000E+00 0. -1.
         21   -1    0    0  501  503 -0.00000000000E+00 -0.00000000000E+00 -0.21110660023E+03  0.21110660023E+03  0.00000000000E+00 0. -1.
          6    1    1    2  501    0  0.24696088198E+03  0.86581706029E+02  0.10895984963E+03  0.33209534456E+03  0.17300000000E+03 0. -1.
         -6    1    1    2    0  502 -0.24696088198E+03 -0.86581706029E+02  0.14763867217E+03  0.34671637770E+03  0.17300000000E+03 0. -1.
<mgrwt>
<rscale>  2 0.31371176E+03</rscale>
<asrwt>0</asrwt>
<pdfrwt beam="1">  1       21 0.71954634E-01 0.31371176E+03</pdfrwt>
<pdfrwt beam="2">  1       21 0.32477939E-01 0.31371176E+03</pdfrwt>
<totfact> 0.14949464E+04</totfact>
</mgrwt>
</event>
<event>
 4    1  0.3945814E+000  0.1759667E+03  0.7546771E-02  0.1171765E+00
         21   -1    0    0  503  502  0.00000000000E+00  0.00000000000E+00  0.47563904135E+02  0.47563904135E+02  0.00000000000E+00 0. -1.
         21   -1    0    0  501  503 -0.00000000000E+00 -0.00000000000E+00 -0.88797932769E+03  0.88797932769E+03  0.00000000000E+00 0. -1.
          6    1    1    2  501    0 -0.30553691325E+02  0.10086824662E+02 -0.66185636821E+03  0.68484897914E+03  0.17300000000E+03 0.  1.
         -6    1    1    2    0  502  0.30553691325E+02 -0.10086824662E+02 -0.17855905535E+03  0.25069425269E+03  0.17300000000E+03 0.  1.
<mgrwt>
<rscale>  2 0.17596668E+03</rscale>
<asrwt>0</asrwt>
<pdfrwt beam="1">  1       21 0.73175243E-02 0.17596668E+03</pdfrwt>
<pdfrwt beam="2">  1       21 0.13661219E+00 0.17596668E+03</pdfrwt>
<totfact> 0.53874815E+04</totfact>
</mgrwt>
</event>
<event>
 4    1  0.3945814E+000  0.1746402E+03  0.7546771E-02  0.1173093E+00
         21   -1    0    0  501  502  0.00000000000E+00  0.00000000000E+00  0.64921076819E+03  0.64921076819E+03  0.00000000000E+00 0.  1.
         21   -1    0    0  502  503 -0.00000000000E+00 -0.00000000000E+00 -0.55175997243E+02  0.55175997243E+02  0.00000000000E+00 0. -1.
          6    1    1    2  501    0  0.16063659955E+00 -0.23878116048E+02  0.43276645298E+03  0.46667546866E+03  0.17300000000E+03 0.  1.
         -6    1    1    2    0  503 -0.16063659955E+00  0.23878116048E+02  0.16126831797E+03  0.23771129676E+03  0.17300000000E+03 0. -1.
<mgrwt>
<rscale>  2 0.17464017E+03</rscale>
<asrwt>0</asrwt>
<pdfrwt beam="1">  1       21 0.99878574E-01 0.17464017E+03</pdfrwt>
<pdfrwt beam="2">  1       21 0.84886154E-02 0.17464017E+03</pdfrwt>
<totfact> 0.89789034E+04</totfact>
</mgrwt>
</event>
<event>
 4    1  0.3945814E+000  0.2769227E+03  0.7546771E-02  0.1097382E+00
         21   -1    0    0  503  502  0.00000000000E+00  0.00000000000E+00  0.79568541899E+02  0.79568541899E+02  0.00000000000E+00 0.  1.
         21   -1    0    0  501  503 -0.00000000000E+00 -0.00000000000E+00 -0.14342802984E+04  0.14342802984E+04  0.00000000000E+00 0. -1.
          6    1    1    2  501    0  0.15529279633E+03 -0.15047031945E+03 -0.11108844952E+04  0.11448801384E+04  0.17300000000E+03 0. -1.
         -6    1    1    2    0  502 -0.15529279633E+03  0.15047031945E+03 -0.24382726131E+03  0.36896870190E+03  0.17300000000E+03 0.  1.
<mgrwt>
<rscale>  2 0.27692268E+03</rscale>
<asrwt>0</asrwt>
<pdfrwt beam="1">  1       21 0.12241316E-01 0.27692268E+03</pdfrwt>
<pdfrwt beam="2">  1       21 0.22065848E+00 0.27692268E+03</pdfrwt>
<totfact> 0.52702434E+03</totfact>
</mgrwt>
</event>
<event>
 4    1  0.3945814E+000  0.1898106E+03  0.7546771E-02  0.1158632E+00
         21   -1    0    0  501  502  0.00000000000E+00  0.00000000000E+00  0.31107158718E+03  0.31107158718E+03  0.00000000000E+00 0. -1.
         21   -1    0    0  502  503 -0.00000000000E+00 -0.00000000000E+00 -0.14511169781E+03  0.14511169781E+03  0.00000000000E+00 0. -1.
          6    1    1    2  501    0  0.61260845250E+02  0.48437304748E+02  0.18545928790E+03  0.26537371973E+03  0.17300000000E+03 0. -1.
         -6    1    1    2    0  503 -0.61260845250E+02 -0.48437304748E+02 -0.19499398526E+02  0.19080956526E+03  0.17300000000E+03 0. -1.
<mgrwt>
<rscale>  2 0.18981060E+03</rscale>
<asrwt>0</asrwt>
<pdfrwt beam="1">  1       21 0.47857167E-01 0.18981060E+03</pdfrwt>
<pdfrwt beam="2">  1       21 0.22324877E-01 0.18981060E+03</pdfrwt>
<totfact> 0.78459499E+04</totfact>
</mgrwt>
</event>
<event>
 4    1  0.3945814E+000  0.1840093E+03  0.7546771E-02  0.1163978E+00
         21   -1    0    0  501  502  0.00000000000E+00  0.00000000000E+00  0.89414329181E+03  0.89414329181E+03  0.00000000000E+00 0.  1.
         21   -1    0    0  502  503 -0.00000000000E+00 -0.00000000000E+00 -0.37998016738E+02  0.37998016738E+02  0.00000000000E+00 0.  1.
          6    1    1    2  501    0 -0.38439870143E+02 -0.49525605545E+02  0.45533651674E+03  0.49111175174E+03  0.17300000000E+03 0.  1.
         -6    1    1    2    0  503  0.38439870143E+02  0.49525605545E+02  0.40080875833E+03  0.44102955681E+03  0.17300000000E+03 0.  1.
<mgrwt>
<rscale>  2 0.18400926E+03</rscale>
<asrwt>0</asrwt>
<pdfrwt beam="1">  1       21 0.13756049E+00 0.18400926E+03</pdfrwt>
<pdfrwt beam="2">  1       21 0.58458494E-02 0.18400926E+03</pdfrwt>
<totfact> 0.77513476E+04</totfact>
</mgrwt>
</event>
<event>
 4    1  0.3945814E+000  0.1791495E+03  0.7546771E-02  0.1168629E+00
         21   -1    0    0  503  502  0.00000000000E+00  0.00000000000E+00  0.19315341930E+03  0.19315341930E+03  0.00000000000E+00 0.  1.
         21   -1    0    0  501  503 -0.00000000000E+00 -0.00000000000E+00 -0.38149121178E+03  0.38149121178E+03  0.00000000000E+00 0.  1.
          6    1    1    2  501    0 -0.17084665252E+02  0.43285733491E+02 -0.31003263864E+03  0.35807091132E+03  0.17300000000E+03 0.  1.
         -6    1    1    2    0  502  0.17084665252E+02 -0.43285733491E+02  0.12169484616E+03  0.21657371977E+03  0.17300000000E+03 0.  1.
<mgrwt>
<rscale>  2 0.17914949E+03</rscale>
<asrwt>0</asrwt>
<pdfrwt beam="1">  1       21 0.29715911E-01 0.17914949E+03</pdfrwt>
<pdfrwt beam="2">  1       21 0.58690954E-01 0.17914949E+03</pdfrwt>
<totfact> 0.29708453E+04</totfact>
</mgrwt>
</event>
<event>
 4    1  0.3945814E+000  0.2053501E+03  0.7546771E-02  0.1145302E+00
         21   -1    0    0  501  502  0.00000000000E+00  0.00000000000E+00  0.49150632380E+03  0.49150632380E+03  0.00000000000E+00 0.  1.
         21   -1    0    0  502  503 -0.00000000000E+00 -0.00000000000E+00 -0.86625248258E+02  0.86625248258E+02  0.00000000000E+00 0.  1.
          6    1    1    2  501    0 -0.67231978795E+02 -0.87860923191E+02  0.17413744460E+03  0.26924436932E+03  0.17300000000E+03 0.  1.
         -6    1    1    2    0  503  0.67231978795E+02  0.87860923191E+02  0.23074363094E+03  0.30888720274E+03  0.17300000000E+03 0.  1.
<mgrwt>
<rscale>  2 0.20535014E+03</rscale>
<asrwt>0</asrwt>
<pdfrwt beam="1">  1       21 0.75616356E-01 0.20535014E+03</pdfrwt>
<pdfrwt beam="2">  1       21 0.13326962E-01 0.20535014E+03</pdfrwt>
<totfact> 0.75448083E+04</totfact>
</mgrwt>
</event>
<event>
 4    1  0.3945814E+000  0.1835769E+03  0.7546771E-02  0.1164386E+00
         21   -1    0    0  501  502  0.00000000000E+00  0.00000000000E+00  0.24746223055E+03  0.24746223055E+03  0.00000000000E+00 0. -1.
         21   -1    0    0  502  503 -0.00000000000E+00 -0.00000000000E+00 -0.17439441283E+03  0.17439441283E+03  0.00000000000E+00 0. -1.
          6    1    1    2  501    0  0.33917739996E+02  0.51196246253E+02  0.13526588233E+03  0.22802922541E+03  0.17300000000E+03 0. -1.
         -6    1    1    2    0  503 -0.33917739996E+02 -0.51196246253E+02 -0.62198064616E+02  0.19382741797E+03  0.17300000000E+03 0. -1.
<mgrwt>
<rscale>  2 0.18357687E+03</rscale>
<asrwt>0</asrwt>
<pdfrwt beam="1">  1       21 0.38071112E-01 0.18357687E+03</pdfrwt>
<pdfrwt beam="2">  1       21 0.26829910E-01 0.18357687E+03</pdfrwt>
<totfact> 0.88334129E+04</totfact>
</mgrwt>
</event>
<event>
 4    1  0.3945814E+000  0.1801778E+03  0.7546771E-02  0.1167631E+00
         21   -1    0    0  501  502  0.00000000000E+00  0.00000000000E+00  0.39258656426E+03  0.39258656426E+03  0.00000000000E+00 0.  1.
         21   -1    0    0  502  503 -0.00000000000E+00 -0.00000000000E+00 -0.82832019101E+02  0.82832019101E+02  0.00000000000E+00 0.  1.
          6    1    1    2  501    0  0.15817668931E+02 -0.47799935614E+02  0.16462703421E+03  0.24406165796E+03  0.17300000000E+03 0.  1.
         -6    1    1    2    0  503 -0.15817668931E+02  0.47799935614E+02  0.14512751095E+03  0.23135692540E+03  0.17300000000E+03 0.  1.
<mgrwt>
<rscale>  2 0.18017778E+03</rscale>
<asrwt>0</asrwt>
<pdfrwt beam="1">  1       21 0.60397932E-01 0.18017778E+03</pdfrwt>
<pdfrwt beam="2">  1       21 0.12743388E-01 0.18017778E+03</pdfrwt>
<totfact> 0.13517512E+05</totfact>
</mgrwt>
</event>
<event>
 4    1  0.3945814E+000  0.1856071E+03  0.7546771E-02  0.1162484E+00
         21   -1    0    0  503  502  0.00000000000E+00  0.00000000000E+00  0.37521833246E+02  0.37521833246E+02  0.00000000000E+00 0. -1.
         21   -1    0    0  501  503 -0.00000000000E+00 -0.00000000000E+00 -0.95695490880E+03  0.95695490880E+03  0.00000000000E+00 0.  1.
          6    1    1    2  501    0 -0.63273426819E+02  0.22748081678E+02 -0.55986909560E+03  0.58983337136E+03  0.17300000000E+03 0.  1.
         -6    1    1    2    0  502  0.63273426819E+02 -0.22748081678E+02 -0.35956397996E+03  0.40464337069E+03  0.17300000000E+03 0.  1.
<mgrwt>
<rscale>  2 0.18560712E+03</rscale>
<asrwt>0</asrwt>
<pdfrwt beam="1">  1       21 0.57725911E-02 0.18560712E+03</pdfrwt>
<pdfrwt beam="2">  1       21 0.14722380E+00 0.18560712E+03</pdfrwt>
<totfact> 0.66369362E+04</totfact>
</mgrwt>
</event>
<event>
 4    1  0.3945814E+000  0.1852433E+03  0.7546771E-02  0.1162823E+00
         21   -1    0    0  503  502  0.00000000000E+00  0.00000000000E+00  0.52922332150E+03  0.52922332150E+03  0.00000000000E+00 0. -1.
         21   -1    0    0  501  503 -0.00000000000E+00 -0.00000000000E+00 -0.68157960847E+02  0.68157960847E+02  0.00000000000E+00 0. -1.
          6    1    1    2  501    0  0.47570490908E+02  0.46077553950E+02  0.29642999722E+03  0.34955090593E+03  0.17300000000E+03 0. -1.
         -6    1    1    2    0  502 -0.47570490908E+02 -0.46077553950E+02  0.16463536343E+03  0.24783037642E+03  0.17300000000E+03 0. -1.
<mgrwt>
<rscale>  2 0.18524333E+03</rscale>
<asrwt>0</asrwt>
<pdfrwt beam="1">  1       21 0.81418970E-01 0.18524333E+03</pdfrwt>
<pdfrwt beam="2">  1       21 0.10485840E-01 0.18524333E+03</pdfrwt>
<totfact> 0.98901682E+04</totfact>
</mgrwt>
</event>
<event>
 4    1  0.3945814E+000  0.2579495E+03  0.7546771E-02  0.1108381E+00
         21   -1    0    0  501  502  0.00000000000E+00  0.00000000000E+00  0.77723319761E+03  0.77723319761E+03  0.00000000000E+00 0. -1.
         21   -1    0    0  502  503 -0.00000000000E+00 -0.00000000000E+00 -0.32621535148E+03  0.32621535148E+03  0.00000000000E+00 0.  1.
          6    1    1    2  501    0 -0.19076615485E+03 -0.14738735402E+02  0.69934014237E+03  0.74539559356E+03  0.17300000000E+03 0. -1.
         -6    1    1    2    0  503  0.19076615485E+03  0.14738735402E+02 -0.24832229624E+03  0.35805295554E+03  0.17300000000E+03 0.  1.
<mgrwt>
<rscale>  2 0.25794952E+03</rscale>
<asrwt>0</asrwt>
<pdfrwt beam="1">  1       21 0.11957434E+00 0.25794952E+03</pdfrwt>
<pdfrwt beam="2">  1       21 0.50186977E-01 0.25794952E+03</pdfrwt>
<totfact> 0.19095731E+03</totfact>
</mgrwt>
</event>
<event>
 4    1  0.3945814E+000  0.1912892E+03  0.7546771E-02  0.1157304E+00
         21   -1    0    0  501  502  0.00000000000E+00  0.00000000000E+00  0.13208162553E+03  0.13208162553E+03  0.00000000000E+00 0.  1.
         21   -1    0    0  502  503 -0.00000000000E+00 -0.00000000000E+00 -0.48901517741E+03  0.48901517741E+03  0.00000000000E+00 0.  1.
          6    1    1    2  501    0  0.76951761949E+02  0.27221289035E+02  0.25995468781E+02  0.19304749841E+03  0.17300000000E+03 0.  1.
         -6    1    1    2    0  503 -0.76951761949E+02 -0.27221289035E+02 -0.38292902067E+03  0.42804930453E+03  0.17300000000E+03 0.  1.
<mgrwt>
<rscale>  2 0.19128924E+03</rscale>
<asrwt>0</asrwt>
<pdfrwt beam="1">  1       21 0.20320250E-01 0.19128924E+03</pdfrwt>
<pdfrwt beam="2">  1       21 0.75233104E-01 0.19128924E+03</pdfrwt>
<totfact> 0.35407129E+04</totfact>
</mgrwt>
</event>
<event>
 4    1  0.3945814E+000  0.1810893E+03  0.7546771E-02  0.1166753E+00
         21   -1    0    0  503  502  0.00000000000E+00  0.00000000000E+00  0.31582619658E+03  0.31582619658E+03  0.00000000000E+00 0.  1.
         21   -1    0    0  501  503 -0.00000000000E+00 -0.00000000000E+00 -0.25142039692E+03  0.25142039692E+03  0.00000000000E+00 0.  1.
          6    1    1    2  501    0 -0.42402420890E+02  0.32655205273E+02 -0.18510004013E+03  0.25895048288E+03  0.17300000000E+03 0.  1.
         -6    1    1    2    0  502  0.42402420890E+02 -0.32655205273E+02  0.24950583979E+03  0.30829611061E+03  0.17300000000E+03 0.  1.
<mgrwt>
<rscale>  2 0.18108928E+03</rscale>
<asrwt>0</asrwt>
<pdfrwt beam="1">  1       21 0.48588646E-01 0.18108928E+03</pdfrwt>
<pdfrwt beam="2">  1       21 0.38680061E-01 0.18108928E+03</pdfrwt>
<totfact> 0.26234052E+04</totfact>
</mgrwt>
</event>
<event>
 4    1  0.3945814E+000  0.2002454E+03  0.7546771E-02  0.1149532E+00
         21   -1    0    0  503  502  0.00000000000E+00  0.00000000000E+00  0.23372273704E+03  0.23372273704E+03  0.00000000000E+00 0.  1.
         21   -1    0    0  501  503 -0.00000000000E+00 -0.00000000000E+00 -0.93369835084E+03  0.93369835084E+03  0.00000000000E+00 0. -1.
          6    1    1    2  501    0  0.40412014966E+02 -0.92390982111E+02 -0.87735150843E+03  0.89991327020E+03  0.17300000000E+03 0. -1.
         -6    1    1    2    0  502 -0.40412014966E+02  0.92390982111E+02  0.17737589463E+03  0.26750781769E+03  0.17300000000E+03 0.  1.
<mgrwt>
<rscale>  2 0.20024541E+03</rscale>
<asrwt>0</asrwt>
<pdfrwt beam="1">  1       21 0.35957343E-01 0.20024541E+03</pdfrwt>
<pdfrwt beam="2">  1       21 0.14364590E+00 0.20024541E+03</pdfrwt>
<totfact> 0.24793140E+03</totfact>
</mgrwt>
</event>
<event>
 4    1  0.3945814E+000  0.3082482E+03  0.7546771E-02  0.1081189E+00
         21   -1    0    0  501  502  0.00000000000E+00  0.00000000000E+00  0.32794544972E+03  0.32794544972E+03  0.00000000000E+00 0. -1.
         21   -1    0    0  502  503 -0.00000000000E+00 -0.00000000000E+00 -0.29011547479E+03  0.29011547479E+03  0.00000000000E+00 0.  1.
          6    1    1    2  501    0 -0.13387176148E+03  0.21717800261E+03  0.30121548304E+02  0.30971638803E+03  0.17300000000E+03 0. -1.
         -6    1    1    2    0  503  0.13387176148E+03 -0.21717800261E+03  0.77084266231E+01  0.30834453649E+03  0.17300000000E+03 0.  1.
<mgrwt>
<rscale>  2 0.30824817E+03</rscale>
<asrwt>0</asrwt>
<pdfrwt beam="1">  1       21 0.50453146E-01 0.30824817E+03</pdfrwt>
<pdfrwt beam="2">  1       21 0.44633150E-01 0.30824817E+03</pdfrwt>
<totfact> 0.17006094E+04</totfact>
</mgrwt>
</event>
<event>
 4    1  0.3945814E+000  0.1789187E+03  0.7546771E-02  0.1168854E+00
         21   -1    0    0  503  502  0.00000000000E+00  0.00000000000E+00  0.10952511836E+04  0.10952511836E+04  0.00000000000E+00 0.  1.
         21   -1    0    0  501  503 -0.00000000000E+00 -0.00000000000E+00 -0.34509110793E+02  0.34509110793E+02  0.00000000000E+00 0.  1.
          6    1    1    2  501    0 -0.44955794302E+02 -0.78669358305E+01  0.30938978658E+03  0.35739886983E+03  0.17300000000E+03 0.  1.
         -6    1    1    2    0  502  0.44955794302E+02  0.78669358305E+01  0.75135228619E+03  0.77236142451E+03  0.17300000000E+03 0.  1.
<mgrwt>
<rscale>  2 0.17891873E+03</rscale>
<asrwt>0</asrwt>
<pdfrwt beam="1">  1       21 0.16850016E+00 0.17891873E+03</pdfrwt>
<pdfrwt beam="2">  1       21 0.53090948E-02 0.17891873E+03</pdfrwt>
<totfact> 0.53546923E+04</totfact>
</mgrwt>
</event>
<event>
 4    1  0.3945814E+000  0.1838379E+03  0.7546771E-02  0.1164140E+00
         21   -1    0    0  501  502  0.00000000000E+00  0.00000000000E+00  0.48168075973E+02  0.48168075973E+02  0.00000000000E+00 0. -1.
         21   -1    0    0  502  503 -0.00000000000E+00 -0.00000000000E+00 -0.16700275473E+04  0.16700275473E+04  0.00000000000E+00 0. -1.
          6    1    1    2  501    0  0.13222754721E+02  0.60766307905E+02 -0.15673564084E+03  0.24158320829E+03  0.17300000000E+03 0. -1.
         -6    1    1    2    0  503 -0.13222754721E+02 -0.60766307905E+02 -0.14651238304E+04  0.14766124149E+04  0.17300000000E+03 0. -1.
<mgrwt>
<rscale>  2 0.18383793E+03</rscale>
<asrwt>0</asrwt>
<pdfrwt beam="1">  1       21 0.74104730E-02 0.18383793E+03</pdfrwt>
<pdfrwt beam="2">  1       21 0.25692732E+00 0.18383793E+03</pdfrwt>
<totfact> 0.83747632E+03</totfact>
</mgrwt>
</event>
<event>
 4    1  0.3945814E+000  0.2283868E+03  0.7546771E-02  0.1127780E+00
         21   -1    0    0  501  502  0.00000000000E+00  0.00000000000E+00  0.16077307654E+03  0.16077307654E+03  0.00000000000E+00 0. -1.
         21   -1    0    0  502  503 -0.00000000000E+00 -0.00000000000E+00 -0.38150888695E+03  0.38150888695E+03  0.00000000000E+00 0.  1.
          6    1    1    2  501    0 -0.94343243250E+02  0.11545952431E+03 -0.54961983264E+01  0.22845296561E+03  0.17300000000E+03 0. -1.
         -6    1    1    2    0  503  0.94343243250E+02 -0.11545952431E+03 -0.21523961208E+03  0.31382899788E+03  0.17300000000E+03 0.  1.
<mgrwt>
<rscale>  2 0.22838684E+03</rscale>
<asrwt>0</asrwt>
<pdfrwt beam="1">  1       21 0.24734320E-01 0.22838684E+03</pdfrwt>
<pdfrwt beam="2">  1       21 0.58693674E-01 0.22838684E+03</pdfrwt>
<totfact> 0.41262779E+04</totfact>
</mgrwt>
</event>
<event>
 4    1  0.3945814E+000  0.2399463E+03  0.7546771E-02  0.1119829E+00
         21   -1    0    0  503  502  0.00000000000E+00  0.00000000000E+00  0.20058134061E+04  0.20058134061E+04  0.00000000000E+00 0. -1.
         21   -1    0    0  501  503 -0.00000000000E+00 -0.00000000000E+00 -0.32289742653E+02  0.32289742653E+02  0.00000000000E+00 0. -1.
          6    1    1    2  501    0 -0.94435274725E+02  0.13684739241E+03  0.64715791143E+03  0.69020836872E+03  0.17300000000E+03 0. -1.
         -6    1    1    2    0  502  0.94435274725E+02 -0.13684739241E+03  0.13263657520E+04  0.13478947800E+04  0.17300000000E+03 0. -1.
<mgrwt>
<rscale>  2 0.23994631E+03</rscale>
<asrwt>0</asrwt>
<pdfrwt beam="1">  1       21 0.30858658E+00 0.23994631E+03</pdfrwt>
<pdfrwt beam="2">  1       21 0.49676543E-02 0.23994631E+03</pdfrwt>
<totfact> 0.78943460E+03</totfact>
</mgrwt>
</event>
<event>
 4    1  0.3945814E+000  0.3220688E+03  0.7546771E-02  0.1074701E+00
         21   -1    0    0  501  502  0.00000000000E+00  0.00000000000E+00  0.70504404399E+03  0.70504404399E+03  0.00000000000E+00 0.  1.
         21   -1    0    0  502  503 -0.00000000000E+00 -0.00000000000E+00 -0.19024011863E+03  0.19024011863E+03  0.00000000000E+00 0. -1.
          6    1    1    2  501    0  0.17694031430E+03  0.20613458220E+03  0.44292038117E+02  0.32510017755E+03  0.17300000000E+03 0. -1.
         -6    1    1    2    0  503 -0.17694031430E+03 -0.20613458220E+03  0.47051188724E+03  0.57018398507E+03  0.17300000000E+03 0.  1.
<mgrwt>
<rscale>  2 0.32206884E+03</rscale>
<asrwt>0</asrwt>
<pdfrwt beam="1">  1       21 0.10846831E+00 0.32206884E+03</pdfrwt>
<pdfrwt beam="2">  1       21 0.29267711E-01 0.32206884E+03</pdfrwt>
<totfact> 0.69981739E+03</totfact>
</mgrwt>
</event>
<event>
 4    1  0.3945814E+000  0.1933912E+03  0.7546771E-02  0.1155438E+00
         21   -1    0    0  501  502  0.00000000000E+00  0.00000000000E+00  0.19370764609E+03  0.19370764609E+03  0.00000000000E+00 0. -1.
         21   -1    0    0  502  503 -0.00000000000E+00 -0.00000000000E+00 -0.22708296421E+03  0.22708296421E+03  0.00000000000E+00 0. -1.
          6    1    1    2  501    0 -0.10317782210E+02  0.85817927559E+02  0.64732471045E+02  0.20393740738E+03  0.17300000000E+03 0. -1.
         -6    1    1    2    0  503  0.10317782210E+02 -0.85817927559E+02 -0.98107789164E+02  0.21685320292E+03  0.17300000000E+03 0. -1.
<mgrwt>
<rscale>  2 0.19339124E+03</rscale>
<asrwt>0</asrwt>
<pdfrwt beam="1">  1       21 0.29801176E-01 0.19339124E+03</pdfrwt>
<pdfrwt beam="2">  1       21 0.34935841E-01 0.19339124E+03</pdfrwt>
<totfact> 0.85241151E+04</totfact>
</mgrwt>
</event>
<event>
 4    1  0.3945814E+000  0.2235427E+03  0.7546771E-02  0.1131269E+00
         21   -1    0    0  501  502  0.00000000000E+00  0.00000000000E+00  0.50264272616E+03  0.50264272616E+03  0.00000000000E+00 0.  1.
         21   -1    0    0  502  503 -0.00000000000E+00 -0.00000000000E+00 -0.32645185257E+03  0.32645185257E+03  0.00000000000E+00 0. -1.
          6    1    1    2  501    0  0.14060408455E+03  0.16517431787E+02  0.43380435433E+03  0.48801388503E+03  0.17300000000E+03 0.  1.
         -6    1    1    2    0  503 -0.14060408455E+03 -0.16517431787E+02 -0.25761348075E+03  0.34108069369E+03  0.17300000000E+03 0. -1.
<mgrwt>
<rscale>  2 0.22354269E+03</rscale>
<asrwt>0</asrwt>
<pdfrwt beam="1">  1       21 0.77329650E-01 0.22354269E+03</pdfrwt>
<pdfrwt beam="2">  1       21 0.50223362E-01 0.22354269E+03</pdfrwt>
<totfact> 0.54787062E+03</totfact>
</mgrwt>
</event>
<event>
 4    1  0.3945814E+000  0.2117065E+03  0.7546771E-02  0.1140222E+00
         21   -1    0    0  503  502  0.00000000000E+00  0.00000000000E+00  0.25258002048E+03  0.25258002048E+03  0.00000000000E+00 0. -1.
         21   -1    0    0  501  503 -0.00000000000E+00 -0.00000000000E+00 -0.20537669125E+03  0.20537669125E+03  0.00000000000E+00 0.  1.
          6    1    1    2  501    0  0.45032224221E+02  0.11341401084E+03 -0.60838622598E+02  0.22027477630E+03  0.17300000000E+03 0.  1.
         -6    1    1    2    0  502 -0.45032224221E+02 -0.11341401084E+03  0.10804195183E+03  0.23768193543E+03  0.17300000000E+03 0. -1.
<mgrwt>
<rscale>  2 0.21170649E+03</rscale>
<asrwt>0</asrwt>
<pdfrwt beam="1">  1       21 0.38858465E-01 0.21170649E+03</pdfrwt>
<pdfrwt beam="2">  1       21 0.31596414E-01 0.21170649E+03</pdfrwt>
<totfact> 0.60954132E+04</totfact>
</mgrwt>
</event>
<event>
 4    1  0.3945814E+000  0.2604041E+03  0.7546771E-02  0.1106901E+00
         21   -1    0    0  501  502  0.00000000000E+00  0.00000000000E+00  0.12454328861E+04  0.12454328861E+04  0.00000000000E+00 0.  1.
         21   -1    0    0  502  503 -0.00000000000E+00 -0.00000000000E+00 -0.76105308514E+02  0.76105308514E+02  0.00000000000E+00 0.  1.
          6    1    1    2  501    0  0.68838227023E+01 -0.19450943559E+03  0.93715859274E+03  0.97266465727E+03  0.17300000000E+03 0.  1.
         -6    1    1    2    0  503 -0.68838227023E+01  0.19450943559E+03  0.23216898489E+03  0.34887353739E+03  0.17300000000E+03 0.  1.
<mgrwt>
<rscale>  2 0.26040412E+03</rscale>
<asrwt>0</asrwt>
<pdfrwt beam="1">  1       21 0.19160504E+00 0.26040412E+03</pdfrwt>
<pdfrwt beam="2">  1       21 0.11708510E-01 0.26040412E+03</pdfrwt>
<totfact> 0.88791980E+03</totfact>
</mgrwt>
</event>
<event>
 4    1  0.3945814E+000  0.1757586E+03  0.7546771E-02  0.1171972E+00
         21   -1    0    0  503  502  0.00000000000E+00  0.00000000000E+00  0.35894271143E+03  0.35894271143E+03  0.00000000000E+00 0. -1.
         21   -1    0    0  501  503 -0.00000000000E+00 -0.00000000000E+00 -0.96513451095E+02  0.96513451095E+02  0.00000000000E+00 0. -1.
          6    1    1    2  501    0  0.30827251904E+02  0.34320554833E+01  0.56272812024E+02  0.18454735934E+03  0.17300000000E+03 0. -1.
         -6    1    1    2    0  502 -0.30827251904E+02 -0.34320554833E+01  0.20615644831E+03  0.27090880319E+03  0.17300000000E+03 0. -1.
<mgrwt>
<rscale>  2 0.17575864E+03</rscale>
<asrwt>0</asrwt>
<pdfrwt beam="1">  1       21 0.55221955E-01 0.17575864E+03</pdfrwt>
<pdfrwt beam="2">  1       21 0.14848223E-01 0.17575864E+03</pdfrwt>
<totfact> 0.12433192E+05</totfact>
</mgrwt>
</event>
<event>
 4    1  0.3945814E+000  0.1900852E+03  0.7546771E-02  0.1158385E+00
         21   -1    0    0  501  502  0.00000000000E+00  0.00000000000E+00  0.71980330093E+03  0.71980330093E+03  0.00000000000E+00 0.  1.
         21   -1    0    0  502  503 -0.00000000000E+00 -0.00000000000E+00 -0.53481452450E+02  0.53481452450E+02  0.00000000000E+00 0.  1.
          6    1    1    2  501    0  0.78671705511E+02 -0.37609682372E+01  0.42896878584E+03  0.46919782753E+03  0.17300000000E+03 0.  1.
         -6    1    1    2    0  503 -0.78671705511E+02  0.37609682372E+01  0.23735306264E+03  0.30408692585E+03  0.17300000000E+03 0.  1.
<mgrwt>
<rscale>  2 0.19008520E+03</rscale>
<asrwt>0</asrwt>
<pdfrwt beam="1">  1       21 0.11073896E+00 0.19008520E+03</pdfrwt>
<pdfrwt beam="2">  1       21 0.82279163E-02 0.19008520E+03</pdfrwt>
<totfact> 0.73518371E+04</totfact>
</mgrwt>
</event>
<event>
 4    1  0.3945814E+000  0.1921573E+03  0.7546771E-02  0.1156530E+00
         21   -1    0    0  501  502  0.00000000000E+00  0.00000000000E+00  0.20314146719E+03  0.20314146719E+03  0.00000000000E+00 0. -1.
         21   -1    0    0  502  503 -0.00000000000E+00 -0.00000000000E+00 -0.24432599853E+03  0.24432599853E+03  0.00000000000E+00 0. -1.
          6    1    1    2  501    0 -0.61105991321E+02  0.57109582851E+02  0.92619348347E+02  0.21331383058E+03  0.17300000000E+03 0. -1.
         -6    1    1    2    0  503  0.61105991321E+02 -0.57109582851E+02 -0.13380387968E+03  0.23415363513E+03  0.17300000000E+03 0. -1.
<mgrwt>
<rscale>  2 0.19215735E+03</rscale>
<asrwt>0</asrwt>
<pdfrwt beam="1">  1       21 0.31252534E-01 0.19215735E+03</pdfrwt>
<pdfrwt beam="2">  1       21 0.37588615E-01 0.19215735E+03</pdfrwt>
<totfact> 0.67169969E+04</totfact>
</mgrwt>
</event>
<event>
 4    1  0.3945814E+000  0.2028960E+03  0.7546771E-02  0.1147318E+00
         21   -1    0    0  503  502  0.00000000000E+00  0.00000000000E+00  0.38282133208E+02  0.38282133208E+02  0.00000000000E+00 0. -1.
         21   -1    0    0  501  503 -0.00000000000E+00 -0.00000000000E+00 -0.10812511726E+04  0.10812511726E+04  0.00000000000E+00 0.  1.
          6    1    1    2  501    0  0.10600012060E+03  0.13279185216E+01 -0.56282919978E+03  0.59828379308E+03  0.17300000000E+03 0. -1.
         -6    1    1    2    0  502 -0.10600012060E+03 -0.13279185216E+01 -0.48013983957E+03  0.52124951268E+03  0.17300000000E+03 0. -1.
<mgrwt>
<rscale>  2 0.20289601E+03</rscale>
<asrwt>0</asrwt>
<pdfrwt beam="1">  1       21 0.58895593E-02 0.20289601E+03</pdfrwt>
<pdfrwt beam="2">  1       21 0.16634633E+00 0.20289601E+03</pdfrwt>
<totfact> 0.45814186E+04</totfact>
</mgrwt>
</event>
<event>
 4    1  0.3945814E+000  0.1801097E+03  0.7546771E-02  0.1167697E+00
         21   -1    0    0  503  502  0.00000000000E+00  0.00000000000E+00  0.86472901446E+03  0.86472901446E+03  0.00000000000E+00 0. -1.
         21   -1    0    0  501  503 -0.00000000000E+00 -0.00000000000E+00 -0.43723117374E+02  0.43723117374E+02  0.00000000000E+00 0. -1.
          6    1    1    2  501    0 -0.33933748714E+02  0.36864523229E+02  0.23933222684E+03  0.29953198023E+03  0.17300000000E+03 0. -1.
         -6    1    1    2    0  502  0.33933748714E+02 -0.36864523229E+02  0.58167367024E+03  0.60892015160E+03  0.17300000000E+03 0. -1.
<mgrwt>
<rscale>  2 0.18010967E+03</rscale>
<asrwt>0</asrwt>
<pdfrwt beam="1">  1       21 0.13303522E+00 0.18010967E+03</pdfrwt>
<pdfrwt beam="2">  1       21 0.67266341E-02 0.18010967E+03</pdfrwt>
<totfact> 0.66481442E+04</totfact>
</mgrwt>
</event>
<event>
 4    1  0.3945814E+000  0.2344356E+03  0.7546771E-02  0.1123556E+00
         21   -1    0    0  503  502  0.00000000000E+00  0.00000000000E+00  0.88565689459E+02  0.88565689459E+02  0.00000000000E+00 0. -1.
         21   -1    0    0  501  503 -0.00000000000E+00 -0.00000000000E+00 -0.64694517563E+03  0.64694517563E+03  0.00000000000E+00 0. -1.
          6    1    1    2  501    0  0.10404816587E+03 -0.11918477887E+03 -0.35346300140E+03  0.42414163400E+03  0.17300000000E+03 0. -1.
         -6    1    1    2    0  502 -0.10404816587E+03  0.11918477887E+03 -0.20491648477E+03  0.31136923108E+03  0.17300000000E+03 0. -1.
<mgrwt>
<rscale>  2 0.23443556E+03</rscale>
<asrwt>0</asrwt>
<pdfrwt beam="1">  1       21 0.13625491E-01 0.23443556E+03</pdfrwt>
<pdfrwt beam="2">  1       21 0.99530026E-01 0.23443556E+03</pdfrwt>
<totfact> 0.37945599E+04</totfact>
</mgrwt>
</event>
<event>
 4    1  0.3945814E+000  0.2489897E+03  0.7546771E-02  0.1113945E+00
         21   -1    0    0  501  502  0.00000000000E+00  0.00000000000E+00  0.96978111525E+02  0.96978111525E+02  0.00000000000E+00 0.  1.
         21   -1    0    0  502  503 -0.00000000000E+00 -0.00000000000E+00 -0.97639593912E+03  0.97639593912E+03  0.00000000000E+00 0. -1.
          6    1    1    2  501    0 -0.96066565135E+02 -0.15112271892E+03 -0.12435386390E+03  0.27831590788E+03  0.17300000000E+03 0.  1.
         -6    1    1    2    0  503  0.96066565135E+02  0.15112271892E+03 -0.75506396370E+03  0.79505814277E+03  0.17300000000E+03 0. -1.
<mgrwt>
<rscale>  2 0.24898968E+03</rscale>
<asrwt>0</asrwt>
<pdfrwt beam="1">  1       21 0.14919709E-01 0.24898968E+03</pdfrwt>
<pdfrwt beam="2">  1       21 0.15021476E+00 0.24898968E+03</pdfrwt>
<totfact> 0.11357875E+04</totfact>
</mgrwt>
</event>
<event>
 4    1  0.3945814E+000  0.1807358E+03  0.7546771E-02  0.1167093E+00
         21   -1    0    0  503  502  0.00000000000E+00  0.00000000000E+00  0.64496247912E+03  0.64496247912E+03  0.00000000000E+00 0. -1.
         21   -1    0    0  501  503 -0.00000000000E+00 -0.00000000000E+00 -0.50930341593E+02  0.50930341593E+02  0.00000000000E+00 0.  1.
          6    1    1    2  501    0  0.47226172321E+02  0.22497435791E+02  0.32296634880E+03  0.37009824159E+03  0.17300000000E+03 0.  1.
         -6    1    1    2    0  502 -0.47226172321E+02 -0.22497435791E+02  0.27106578872E+03  0.32579457912E+03  0.17300000000E+03 0. -1.
<mgrwt>
<rscale>  2 0.18073585E+03</rscale>
<asrwt>0</asrwt>
<pdfrwt beam="1">  1       21 0.99224991E-01 0.18073585E+03</pdfrwt>
<pdfrwt beam="2">  1       21 0.78354376E-02 0.18073585E+03</pdfrwt>
<totfact> 0.10454610E+05</totfact>
</mgrwt>
</event>
<event>
 4    1  0.3945814E+000  0.2604544E+03  0.7546771E-02  0.1106871E+00
         21   -1    0    0  501  502  0.00000000000E+00  0.00000000000E+00  0.51337178806E+03  0.51337178806E+03  0.00000000000E+00 0.  1.
         21   -1    0    0  502  503 -0.00000000000E+00 -0.00000000000E+00 -0.23901888496E+03  0.23901888496E+03  0.00000000000E+00 0. -1.
          6    1    1    2  501    0  0.23101465863E+02 -0.19332312688E+03 -0.11438552239E+03  0.28446538778E+03  0.17300000000E+03 0.  1.
         -6    1    1    2    0  503 -0.23101465863E+02  0.19332312688E+03  0.38873842548E+03  0.46792528523E+03  0.17300000000E+03 0.  1.
<mgrwt>
<rscale>  2 0.26045443E+03</rscale>
<asrwt>0</asrwt>
<pdfrwt beam="1">  1       21 0.78980275E-01 0.26045443E+03</pdfrwt>
<pdfrwt beam="2">  1       21 0.36772136E-01 0.26045443E+03</pdfrwt>
<totfact> 0.96842579E+03</totfact>
</mgrwt>
</event>
<event>
 4    1  0.3945814E+000  0.1938158E+03  0.7546771E-02  0.1155064E+00
         21   -1    0    0  501  502  0.00000000000E+00  0.00000000000E+00  0.33396987597E+04  0.33396987597E+04  0.00000000000E+00 0.  1.
         21   -1    0    0  502  503 -0.00000000000E+00 -0.00000000000E+00 -0.27035496975E+02  0.27035496975E+02  0.00000000000E+00 0.  1.
          6    1    1    2  501    0 -0.87378093950E+02  0.79364074921E+00  0.29427132615E+04  0.29490889951E+04  0.17300000000E+03 0.  1.
         -6    1    1    2    0  503  0.87378093950E+02 -0.79364074921E+00  0.36995000118E+03  0.41764526161E+03  0.17300000000E+03 0.  1.
<mgrwt>
<rscale>  2 0.19381579E+03</rscale>
<asrwt>0</asrwt>
<pdfrwt beam="1">  1       21 0.51379948E+00 0.19381579E+03</pdfrwt>
<pdfrwt beam="2">  1       21 0.41593099E-02 0.19381579E+03</pdfrwt>
<totfact> 0.55319791E+02</totfact>
</mgrwt>
</event>
<event>
 4    1  0.3945814E+000  0.1845064E+03  0.7546771E-02  0.1163512E+00
         21   -1    0    0  503  502  0.00000000000E+00  0.00000000000E+00  0.15939835417E+03  0.15939835417E+03  0.00000000000E+00 0.  1.
         21   -1    0    0  501  503 -0.00000000000E+00 -0.00000000000E+00 -0.73346096757E+03  0.73346096757E+03  0.00000000000E+00 0.  1.
          6    1    1    2  501    0  0.61763471301E+02  0.17288720794E+02 -0.66288678469E+03  0.68808539846E+03  0.17300000000E+03 0.  1.
         -6    1    1    2    0  502 -0.61763471301E+02 -0.17288720794E+02  0.88824171285E+02  0.20477392329E+03  0.17300000000E+03 0.  1.
<mgrwt>
<rscale>  2 0.18450644E+03</rscale>
<asrwt>0</asrwt>
<pdfrwt beam="1">  1       21 0.24522824E-01 0.18450644E+03</pdfrwt>
<pdfrwt beam="2">  1       21 0.11284015E+00 0.18450644E+03</pdfrwt>
<totfact> 0.97043642E+03</totfact>
</mgrwt>
</event>
<event>
 4    1  0.3945814E+000  0.1747046E+03  0.7546771E-02  0.1173029E+00
         21   -1    0    0  503  502  0.00000000000E+00  0.00000000000E+00  0.91216120707E+03  0.91216120707E+03  0.00000000000E+00 0. -1.
         21   -1    0    0  501  503 -0.00000000000E+00 -0.00000000000E+00 -0.67123341879E+02  0.67123341879E+02  0.00000000000E+00 0. -1.
          6    1    1    2  501    0  0.71620106813E+01 -0.23267932223E+02  0.75769914582E+02  0.19042786304E+03  0.17300000000E+03 0. -1.
         -6    1    1    2    0  502 -0.71620106813E+01  0.23267932223E+02  0.76926795060E+03  0.78885668590E+03  0.17300000000E+03 0. -1.
<mgrwt>
<rscale>  2 0.17470458E+03</rscale>
<asrwt>0</asrwt>
<pdfrwt beam="1">  1       21 0.14033248E+00 0.17470458E+03</pdfrwt>
<pdfrwt beam="2">  1       21 0.10326669E-01 0.17470458E+03</pdfrwt>
<totfact> 0.27573516E+04</totfact>
</mgrwt>
</event>
<event>
 4    1  0.3945814E+000  0.2096687E+03  0.7546771E-02  0.1141829E+00
         21   -1    0    0  503  502  0.00000000000E+00  0.00000000000E+00  0.17556869818E+03  0.17556869818E+03  0.00000000000E+00 0. -1.
         21   -1    0    0  501  503 -0.00000000000E+00 -0.00000000000E+00 -0.44184450121E+03  0.44184450121E+03  0.00000000000E+00 0. -1.
          6    1    1    2  501    0 -0.81239553935E+02 -0.86209729838E+02 -0.33634637105E+03  0.39634563699E+03  0.17300000000E+03 0. -1.
         -6    1    1    2    0  502  0.81239553935E+02  0.86209729838E+02  0.70070568024E+02  0.22106756240E+03  0.17300000000E+03 0. -1.
<mgrwt>
<rscale>  2 0.20966875E+03</rscale>
<asrwt>0</asrwt>
<pdfrwt beam="1">  1       21 0.27010569E-01 0.20966875E+03</pdfrwt>
<pdfrwt beam="2">  1       21 0.67976077E-01 0.20966875E+03</pdfrwt>
<totfact> 0.25562043E+04</totfact>
</mgrwt>
</event>
<event>
 4    1  0.3945814E+000  0.1837395E+03  0.7546771E-02  0.1164232E+00
         21   -1    0    0  503  502  0.00000000000E+00  0.00000000000E+00  0.37164965319E+03  0.37164965319E+03  0.00000000000E+00 0. -1.
         21   -1    0    0  501  503 -0.00000000000E+00 -0.00000000000E+00 -0.22981485266E+03  0.22981485266E+03  0.00000000000E+00 0. -1.
          6    1    1    2  501    0  0.58364028160E+02  0.20612176798E+02 -0.16294526358E+03  0.24558375463E+03  0.17300000000E+03 0. -1.
         -6    1    1    2    0  502 -0.58364028160E+02 -0.20612176798E+02  0.30478006410E+03  0.35588075122E+03  0.17300000000E+03 0. -1.
<mgrwt>
<rscale>  2 0.18373955E+03</rscale>
<asrwt>0</asrwt>
<pdfrwt beam="1">  1       21 0.57176870E-01 0.18373955E+03</pdfrwt>
<pdfrwt beam="2">  1       21 0.35356131E-01 0.18373955E+03</pdfrwt>
<totfact> 0.22269784E+04</totfact>
</mgrwt>
</event>
<event>
 4    1  0.3945814E+000  0.3048597E+03  0.7546771E-02  0.1082836E+00
         21   -1    0    0  503  502  0.00000000000E+00  0.00000000000E+00  0.36150197522E+03  0.36150197522E+03  0.00000000000E+00 0. -1.
         21   -1    0    0  501  503 -0.00000000000E+00 -0.00000000000E+00 -0.29954061527E+03  0.29954061527E+03  0.00000000000E+00 0. -1.
          6    1    1    2  501    0 -0.25077599007E+03 -0.11037421033E+02 -0.93442455909E+02  0.31885876878E+03  0.17300000000E+03 0. -1.
         -6    1    1    2    0  502  0.25077599007E+03  0.11037421033E+02  0.15540381586E+03  0.34218382172E+03  0.17300000000E+03 0. -1.
<mgrwt>
<rscale>  2 0.30485968E+03</rscale>
<asrwt>0</asrwt>
<pdfrwt beam="1">  1       21 0.55615688E-01 0.30485968E+03</pdfrwt>
<pdfrwt beam="2">  1       21 0.46083172E-01 0.30485968E+03</pdfrwt>
<totfact> 0.12951784E+04</totfact>
</mgrwt>
</event>
<event>
 4    1  0.3945814E+000  0.1747142E+03  0.7546771E-02  0.1173019E+00
         21   -1    0    0  501  502  0.00000000000E+00  0.00000000000E+00  0.26042352427E+03  0.26042352427E+03  0.00000000000E+00 0. -1.
         21   -1    0    0  502  503 -0.00000000000E+00 -0.00000000000E+00 -0.28403916725E+03  0.28403916725E+03  0.00000000000E+00 0. -1.
          6    1    1    2  501    0  0.42411455457E+01 -0.24043174925E+02  0.19682417103E+03  0.26318209643E+03  0.17300000000E+03 0. -1.
         -6    1    1    2    0  503 -0.42411455457E+01  0.24043174925E+02 -0.22043981401E+03  0.28128059509E+03  0.17300000000E+03 0. -1.
<mgrwt>
<rscale>  2 0.17471423E+03</rscale>
<asrwt>0</asrwt>
<pdfrwt beam="1">  1       21 0.40065158E-01 0.17471423E+03</pdfrwt>
<pdfrwt beam="2">  1       21 0.43698333E-01 0.17471423E+03</pdfrwt>
<totfact> 0.30509755E+04</totfact>
</mgrwt>
</event>
<event>
 4    1  0.3945814E+000  0.2230960E+03  0.7546771E-02  0.1131596E+00
         21   -1    0    0  501  502  0.00000000000E+00  0.00000000000E+00  0.15353291636E+03  0.15353291636E+03  0.00000000000E+00 0. -1.
         21   -1    0    0  502  503 -0.00000000000E+00 -0.00000000000E+00 -0.48634539739E+03  0.48634539739E+03  0.00000000000E+00 0. -1.
          6    1    1    2  501    0  0.33387154789E+02 -0.13685072769E+03  0.18341121900E+02  0.22384865541E+03  0.17300000000E+03 0. -1.
         -6    1    1    2    0  503 -0.33387154789E+02  0.13685072769E+03 -0.35115360292E+03  0.41602965834E+03  0.17300000000E+03 0. -1.
<mgrwt>
<rscale>  2 0.22309600E+03</rscale>
<asrwt>0</asrwt>
<pdfrwt beam="1">  1       21 0.23620449E-01 0.22309600E+03</pdfrwt>
<pdfrwt beam="2">  1       21 0.74822368E-01 0.22309600E+03</pdfrwt>
<totfact> 0.26523066E+04</totfact>
</mgrwt>
</event>
<event>
 4    1  0.3945814E+000  0.2438014E+03  0.7546771E-02  0.1117286E+00
         21   -1    0    0  503  502  0.00000000000E+00  0.00000000000E+00  0.20662842335E+03  0.20662842335E+03  0.00000000000E+00 0.  1.
         21   -1    0    0  501  503 -0.00000000000E+00 -0.00000000000E+00 -0.36169930029E+03  0.36169930029E+03  0.00000000000E+00 0.  1.
          6    1    1    2  501    0 -0.10352998119E+03 -0.13708278236E+03 -0.20609970871E+03  0.31924322413E+03  0.17300000000E+03 0.  1.
         -6    1    1    2    0  502  0.10352998119E+03  0.13708278236E+03  0.51028831774E+02  0.24908449951E+03  0.17300000000E+03 0.  1.
<mgrwt>
<rscale>  2 0.24380145E+03</rscale>
<asrwt>0</asrwt>
<pdfrwt beam="1">  1       21 0.31788988E-01 0.24380145E+03</pdfrwt>
<pdfrwt beam="2">  1       21 0.55646046E-01 0.24380145E+03</pdfrwt>
<totfact> 0.28201632E+04</totfact>
</mgrwt>
</event>
<event>
 4    1  0.3945814E+000  0.3983633E+03  0.7546771E-02  0.1044348E+00
         21   -1    0    0  501  502  0.00000000000E+00  0.00000000000E+00  0.73149282122E+03  0.73149282122E+03  0.00000000000E+00 0.  1.
         21   -1    0    0  502  503 -0.00000000000E+00 -0.00000000000E+00 -0.22808963480E+03  0.22808963480E+03  0.00000000000E+00 0.  1.
          6    1    1    2  501    0  0.27765741056E+03  0.22731193127E+03  0.14564394450E+03  0.42415269692E+03  0.17300000000E+03 0.  1.
         -6    1    1    2    0  503 -0.27765741056E+03 -0.22731193127E+03  0.35775924193E+03  0.53542975909E+03  0.17300000000E+03 0.  1.
<mgrwt>
<rscale>  2 0.39836334E+03</rscale>
<asrwt>0</asrwt>
<pdfrwt beam="1">  1       21 0.11253736E+00 0.39836334E+03</pdfrwt>
<pdfrwt beam="2">  1       21 0.35090714E-01 0.39836334E+03</pdfrwt>
<totfact> 0.43096335E+03</totfact>
</mgrwt>
</event>
<event>
 4    1  0.3945814E+000  0.1941361E+03  0.7546771E-02  0.1154783E+00
         21   -1    0    0  503  502  0.00000000000E+00  0.00000000000E+00  0.28021464081E+03  0.28021464081E+03  0.00000000000E+00 0.  1.
         21   -1    0    0  501  503 -0.00000000000E+00 -0.00000000000E+00 -0.24550904784E+03  0.24550904784E+03  0.00000000000E+00 0.  1.
          6    1    1    2  501    0  0.80061317199E+02  0.36742745262E+02 -0.15940279676E+03  0.25119334278E+03  0.17300000000E+03 0.  1.
         -6    1    1    2    0  502 -0.80061317199E+02 -0.36742745262E+02  0.19410838973E+03  0.27453034587E+03  0.17300000000E+03 0.  1.
<mgrwt>
<rscale>  2 0.19413615E+03</rscale>
<asrwt>0</asrwt>
<pdfrwt beam="1">  1       21 0.43109945E-01 0.19413615E+03</pdfrwt>
<pdfrwt beam="2">  1       21 0.37770623E-01 0.19413615E+03</pdfrwt>
<totfact> 0.34950165E+04</totfact>
</mgrwt>
</event>
<event>
 4    1  0.3945814E+000  0.1985306E+03  0.7546771E-02  0.1150985E+00
         21   -1    0    0  501  502  0.00000000000E+00  0.00000000000E+00  0.44792915043E+03  0.44792915043E+03  0.00000000000E+00 0.  1.
         21   -1    0    0  502  503 -0.00000000000E+00 -0.00000000000E+00 -0.10243856234E+03  0.10243856234E+03  0.00000000000E+00 0.  1.
          6    1    1    2  501    0  0.93354497264E+02  0.27755064532E+02  0.27608469924E+03  0.34005465285E+03  0.17300000000E+03 0.  1.
         -6    1    1    2    0  503 -0.93354497264E+02 -0.27755064532E+02  0.69405888856E+02  0.21031305992E+03  0.17300000000E+03 0.  1.
<mgrwt>
<rscale>  2 0.19853062E+03</rscale>
<asrwt>0</asrwt>
<pdfrwt beam="1">  1       21 0.68912176E-01 0.19853062E+03</pdfrwt>
<pdfrwt beam="2">  1       21 0.15759779E-01 0.19853062E+03</pdfrwt>
<totfact> 0.68566916E+04</totfact>
</mgrwt>
</event>
<event>
 4    1  0.3945814E+000  0.3981748E+03  0.7546771E-02  0.1044414E+00
         21   -1    0    0  501  502  0.00000000000E+00  0.00000000000E+00  0.58922509733E+03  0.58922509733E+03  0.00000000000E+00 0.  1.
         21   -1    0    0  502  503 -0.00000000000E+00 -0.00000000000E+00 -0.38555621560E+03  0.38555621560E+03  0.00000000000E+00 0. -1.
          6    1    1    2  501    0 -0.34433448491E+03 -0.10023950352E+03  0.36973236709E+03  0.54336471991E+03  0.17300000000E+03 0.  1.
         -6    1    1    2    0  503  0.34433448491E+03  0.10023950352E+03 -0.16606348536E+03  0.43141659303E+03  0.17300000000E+03 0. -1.
<mgrwt>
<rscale>  2 0.39817483E+03</rscale>
<asrwt>0</asrwt>
<pdfrwt beam="1">  1       21 0.90650015E-01 0.39817483E+03</pdfrwt>
<pdfrwt beam="2">  1       21 0.59316341E-01 0.39817483E+03</pdfrwt>
<totfact> 0.24252048E+03</totfact>
</mgrwt>
</event>
<event>
 4    1  0.3945814E+000  0.1740420E+03  0.7546771E-02  0.1173697E+00
         21   -1    0    0  503  502  0.00000000000E+00  0.00000000000E+00  0.28714155735E+03  0.28714155735E+03  0.00000000000E+00 0.  1.
         21   -1    0    0  501  503 -0.00000000000E+00 -0.00000000000E+00 -0.27712572021E+03  0.27712572021E+03  0.00000000000E+00 0.  1.
          6    1    1    2  501    0 -0.11044902480E+02 -0.15479876584E+02 -0.21702637396E+03  0.27819249351E+03  0.17300000000E+03 0.  1.
         -6    1    1    2    0  502  0.11044902480E+02  0.15479876584E+02  0.22704221110E+03  0.28607478405E+03  0.17300000000E+03 0.  1.
<mgrwt>
<rscale>  2 0.17404200E+03</rscale>
<asrwt>0</asrwt>
<pdfrwt beam="1">  1       21 0.44175624E-01 0.17404200E+03</pdfrwt>
<pdfrwt beam="2">  1       21 0.42634726E-01 0.17404200E+03</pdfrwt>
<totfact> 0.26322263E+04</totfact>
</mgrwt>
</event>
<event>
 4    1  0.3945814E+000  0.1924782E+03  0.7546771E-02  0.1156245E+00
         21   -1    0    0  503  502  0.00000000000E+00  0.00000000000E+00  0.24218079546E+02  0.24218079546E+02  0.00000000000E+00 0. -1.
         21   -1    0    0  501  503 -0.00000000000E+00 -0.00000000000E+00 -0.15459926939E+04  0.15459926939E+04  0.00000000000E+00 0.  1.
          6    1    1    2  501    0 -0.34802407164E+02 -0.76861272802E+02 -0.84133472661E+03  0.86307125141E+03  0.17300000000E+03 0. -1.
         -6    1    1    2    0  502  0.34802407164E+02  0.76861272802E+02 -0.68043988775E+03  0.70713952205E+03  0.17300000000E+03 0. -1.
<mgrwt>
<rscale>  2 0.19247821E+03</rscale>
<asrwt>0</asrwt>
<pdfrwt beam="1">  1       21 0.37258582E-02 0.19247821E+03</pdfrwt>
<pdfrwt beam="2">  1       21 0.23784504E+00 0.19247821E+03</pdfrwt>
<totfact> 0.34634459E+04</totfact>
</mgrwt>
</event>
<event>
 4    1  0.3945814E+000  0.2734660E+03  0.7546771E-02  0.1099312E+00
         21   -1    0    0  503  502  0.00000000000E+00  0.00000000000E+00  0.35656672361E+03  0.35656672361E+03  0.00000000000E+00 0. -1.
         21   -1    0    0  501  503 -0.00000000000E+00 -0.00000000000E+00 -0.32278228417E+03  0.32278228417E+03  0.00000000000E+00 0.  1.
          6    1    1    2  501    0  0.11278506697E+02 -0.21148860846E+03 -0.18412948041E+03  0.32967757245E+03  0.17300000000E+03 0.  1.
         -6    1    1    2    0  502 -0.11278506697E+02  0.21148860846E+03  0.21791391985E+03  0.34967143533E+03  0.17300000000E+03 0. -1.
<mgrwt>
<rscale>  2 0.27346597E+03</rscale>
<asrwt>0</asrwt>
<pdfrwt beam="1">  1       21 0.54856419E-01 0.27346597E+03</pdfrwt>
<pdfrwt beam="2">  1       21 0.49658813E-01 0.27346597E+03</pdfrwt>
<totfact> 0.11570750E+04</totfact>
</mgrwt>
</event>
<event>
 4    1  0.3945814E+000  0.2366124E+03  0.7546771E-02  0.1122070E+00
         21   -1    0    0  503  502  0.00000000000E+00  0.00000000000E+00  0.15914098004E+03  0.15914098004E+03  0.00000000000E+00 0. -1.
         21   -1    0    0  501  503 -0.00000000000E+00 -0.00000000000E+00 -0.68190216256E+03  0.68190216256E+03  0.00000000000E+00 0. -1.
          6    1    1    2  501    0  0.34676586781E+01 -0.16138280063E+03 -0.55396618126E+03  0.60238190791E+03  0.17300000000E+03 0. -1.
         -6    1    1    2    0  502 -0.34676586781E+01  0.16138280063E+03  0.31204998738E+02  0.23866123469E+03  0.17300000000E+03 0. -1.
<mgrwt>
<rscale>  2 0.23661241E+03</rscale>
<asrwt>0</asrwt>
<pdfrwt beam="1">  1       21 0.24483228E-01 0.23661241E+03</pdfrwt>
<pdfrwt beam="2">  1       21 0.10490802E+00 0.23661241E+03</pdfrwt>
<totfact> 0.11215845E+04</totfact>
</mgrwt>
</event>
<event>
 4    1  0.3945814E+000  0.1876699E+03  0.7546771E-02  0.1160580E+00
         21   -1    0    0  501  502  0.00000000000E+00  0.00000000000E+00  0.59352274084E+03  0.59352274084E+03  0.00000000000E+00 0. -1.
         21   -1    0    0  502  503 -0.00000000000E+00 -0.00000000000E+00 -0.16088139329E+03  0.16088139329E+03  0.00000000000E+00 0. -1.
          6    1    1    2  501    0 -0.34250037551E+02 -0.64170957153E+02  0.51598945267E+03  0.54905836855E+03  0.17300000000E+03 0. -1.
         -6    1    1    2    0  503  0.34250037551E+02  0.64170957153E+02 -0.83348105121E+02  0.20534576558E+03  0.17300000000E+03 0. -1.
<mgrwt>
<rscale>  2 0.18766986E+03</rscale>
<asrwt>0</asrwt>
<pdfrwt beam="1">  1       21 0.91311190E-01 0.18766986E+03</pdfrwt>
<pdfrwt beam="2">  1       21 0.24750984E-01 0.18766986E+03</pdfrwt>
<totfact> 0.15735105E+04</totfact>
</mgrwt>
</event>
<event>
 4    1  0.3945814E+000  0.1940909E+03  0.7546771E-02  0.1154823E+00
         21   -1    0    0  503  502  0.00000000000E+00  0.00000000000E+00  0.77101851110E+03  0.77101851110E+03  0.00000000000E+00 0. -1.
         21   -1    0    0  501  503 -0.00000000000E+00 -0.00000000000E+00 -0.17816755977E+03  0.17816755977E+03  0.00000000000E+00 0. -1.
          6    1    1    2  501    0  0.79257695336E+02  0.38216215941E+02 -0.10789015754E+03  0.22206203531E+03  0.17300000000E+03 0. -1.
         -6    1    1    2    0  502 -0.79257695336E+02 -0.38216215941E+02  0.70074110887E+03  0.72712403556E+03  0.17300000000E+03 0. -1.
<mgrwt>
<rscale>  2 0.19409086E+03</rscale>
<asrwt>0</asrwt>
<pdfrwt beam="1">  1       21 0.11861823E+00 0.19409086E+03</pdfrwt>
<pdfrwt beam="2">  1       21 0.27410394E-01 0.19409086E+03</pdfrwt>
<totfact> 0.68919460E+03</totfact>
</mgrwt>
</event>
<event>
 4    1  0.3945814E+000  0.1865672E+03  0.7546771E-02  0.1161594E+00
         21   -1    0    0  503  502  0.00000000000E+00  0.00000000000E+00  0.15322374833E+04  0.15322374833E+04  0.00000000000E+00 0. -1.
         21   -1    0    0  501  503 -0.00000000000E+00 -0.00000000000E+00 -0.43073882227E+02  0.43073882227E+02  0.00000000000E+00 0. -1.
          6    1    1    2  501    0 -0.68648547113E+02  0.12872510896E+02  0.20309407642E+03  0.27577985502E+03  0.17300000000E+03 0. -1.
         -6    1    1    2    0  502  0.68648547113E+02 -0.12872510896E+02  0.12860695246E+04  0.12995315105E+04  0.17300000000E+03 0. -1.
<mgrwt>
<rscale>  2 0.18656721E+03</rscale>
<asrwt>0</asrwt>
<pdfrwt beam="1">  1       21 0.23572880E+00 0.18656721E+03</pdfrwt>
<pdfrwt beam="2">  1       21 0.66267523E-02 0.18656721E+03</pdfrwt>
<totfact> 0.13505201E+04</totfact>
</mgrwt>
</event>
<event>
 4    1  0.3945814E+000  0.1754614E+03  0.7546771E-02  0.1172269E+00
         21   -1    0    0  501  502  0.00000000000E+00  0.00000000000E+00  0.13256180262E+03  0.13256180262E+03  0.00000000000E+00 0.  1.
         21   -1    0    0  502  503 -0.00000000000E+00 -0.00000000000E+00 -0.31245643557E+03  0.31245643557E+03  0.00000000000E+00 0.  1.
          6    1    1    2  501    0  0.28222032353E+02 -0.78237531974E+01  0.22791560847E+02  0.17693543871E+03  0.17300000000E+03 0.  1.
         -6    1    1    2    0  503 -0.28222032353E+02  0.78237531974E+01 -0.20268619379E+03  0.26808279948E+03  0.17300000000E+03 0.  1.
<mgrwt>
<rscale>  2 0.17546138E+03</rscale>
<asrwt>0</asrwt>
<pdfrwt beam="1">  1       21 0.20394124E-01 0.17546138E+03</pdfrwt>
<pdfrwt beam="2">  1       21 0.48070221E-01 0.17546138E+03</pdfrwt>
<totfact> 0.92659061E+04</totfact>
</mgrwt>
</event>
<event>
 4    1  0.3945814E+000  0.2196287E+03  0.7546771E-02  0.1134160E+00
         21   -1    0    0  503  502  0.00000000000E+00  0.00000000000E+00  0.99967915240E+02  0.99967915240E+02  0.00000000000E+00 0. -1.
         21   -1    0    0  501  503 -0.00000000000E+00 -0.00000000000E+00 -0.69689297132E+03  0.69689297132E+03  0.00000000000E+00 0. -1.
          6    1    1    2  501    0 -0.13508190412E+03 -0.77877323357E+01 -0.51944200511E+03  0.56396521725E+03  0.17300000000E+03 0. -1.
         -6    1    1    2    0  502  0.13508190412E+03  0.77877323357E+01 -0.77483050969E+02  0.23289566931E+03  0.17300000000E+03 0. -1.
<mgrwt>
<rscale>  2 0.21962871E+03</rscale>
<asrwt>0</asrwt>
<pdfrwt beam="1">  1       21 0.15379680E-01 0.21962871E+03</pdfrwt>
<pdfrwt beam="2">  1       21 0.10721430E+00 0.21962871E+03</pdfrwt>
<totfact> 0.25639010E+04</totfact>
</mgrwt>
</event>
<event>
 4    1  0.3945814E+000  0.2193863E+03  0.7546771E-02  0.1134341E+00
         21   -1    0    0  501  502  0.00000000000E+00  0.00000000000E+00  0.59546265150E+03  0.59546265150E+03  0.00000000000E+00 0.  1.
         21   -1    0    0  502  503 -0.00000000000E+00 -0.00000000000E+00 -0.15918280669E+03  0.15918280669E+03  0.00000000000E+00 0.  1.
          6    1    1    2  501    0 -0.43852390202E+02 -0.12758659091E+03  0.48286570642E+03  0.53036747708E+03  0.17300000000E+03 0.  1.
         -6    1    1    2    0  503  0.43852390202E+02  0.12758659091E+03 -0.46585861609E+02  0.22427798111E+03  0.17300000000E+03 0.  1.
<mgrwt>
<rscale>  2 0.21938635E+03</rscale>
<asrwt>0</asrwt>
<pdfrwt beam="1">  1       21 0.91609638E-01 0.21938635E+03</pdfrwt>
<pdfrwt beam="2">  1       21 0.24489663E-01 0.21938635E+03</pdfrwt>
<totfact> 0.15621110E+04</totfact>
</mgrwt>
</event>
<event>
 4    1  0.3945814E+000  0.2266874E+03  0.7546771E-02  0.1128993E+00
         21   -1    0    0  503  502  0.00000000000E+00  0.00000000000E+00  0.35781072642E+02  0.35781072642E+02  0.00000000000E+00 0. -1.
         21   -1    0    0  501  503 -0.00000000000E+00 -0.00000000000E+00 -0.14409314434E+04  0.14409314434E+04  0.00000000000E+00 0. -1.
          6    1    1    2  501    0  0.14493370588E+03 -0.21269333223E+02 -0.74508606644E+03  0.77880704288E+03  0.17300000000E+03 0. -1.
         -6    1    1    2    0  502 -0.14493370588E+03  0.21269333223E+02 -0.66006430437E+03  0.69790547321E+03  0.17300000000E+03 0. -1.
<mgrwt>
<rscale>  2 0.22668737E+03</rscale>
<asrwt>0</asrwt>
<pdfrwt beam="1">  1       21 0.55047812E-02 0.22668737E+03</pdfrwt>
<pdfrwt beam="2">  1       21 0.22168173E+00 0.22668737E+03</pdfrwt>
<totfact> 0.21869602E+04</totfact>
</mgrwt>
</event>
<event>
 4    1  0.3945814E+000  0.1798785E+03  0.7546771E-02  0.1167921E+00
         21   -1    0    0  501  502  0.00000000000E+00  0.00000000000E+00  0.18503893685E+03  0.18503893685E+03  0.00000000000E+00 0. -1.
         21   -1    0    0  502  503 -0.00000000000E+00 -0.00000000000E+00 -0.45304673382E+03  0.45304673382E+03  0.00000000000E+00 0. -1.
          6    1    1    2  501    0  0.49222469418E+02  0.21028993873E+01  0.11599849212E+03  0.21403720204E+03  0.17300000000E+03 0. -1.
         -6    1    1    2    0  503 -0.49222469418E+02 -0.21028993873E+01 -0.38400628910E+03  0.42404846863E+03  0.17300000000E+03 0. -1.
<mgrwt>
<rscale>  2 0.17987850E+03</rscale>
<asrwt>0</asrwt>
<pdfrwt beam="1">  1       21 0.28467529E-01 0.17987850E+03</pdfrwt>
<pdfrwt beam="2">  1       21 0.69699497E-01 0.17987850E+03</pdfrwt>
<totfact> 0.22237155E+04</totfact>
</mgrwt>
</event>
<event>
 4    1  0.3945814E+000  0.2604341E+03  0.7546771E-02  0.1106883E+00
         21   -1    0    0  501  502  0.00000000000E+00  0.00000000000E+00  0.55924214722E+03  0.55924214722E+03  0.00000000000E+00 0. -1.
         21   -1    0    0  502  503 -0.00000000000E+00 -0.00000000000E+00 -0.21717460343E+03  0.21717460343E+03  0.00000000000E+00 0. -1.
          6    1    1    2  501    0  0.15757271344E+03 -0.11431437522E+03  0.42899427734E+03  0.50185857210E+03  0.17300000000E+03 0. -1.
         -6    1    1    2    0  503 -0.15757271344E+03  0.11431437522E+03 -0.86926733554E+02  0.27455817855E+03  0.17300000000E+03 0. -1.
<mgrwt>
<rscale>  2 0.26043413E+03</rscale>
<asrwt>0</asrwt>
<pdfrwt beam="1">  1       21 0.86037253E-01 0.26043413E+03</pdfrwt>
<pdfrwt beam="2">  1       21 0.33411478E-01 0.26043413E+03</pdfrwt>
<totfact> 0.96404770E+03</totfact>
</mgrwt>
</event>
<event>
 4    1  0.3945814E+000  0.1970289E+03  0.7546771E-02  0.1152270E+00
         21   -1    0    0  501  502  0.00000000000E+00  0.00000000000E+00  0.57870550927E+03  0.57870550927E+03  0.00000000000E+00 0. -1.
         21   -1    0    0  502  503 -0.00000000000E+00 -0.00000000000E+00 -0.75150342546E+02  0.75150342546E+02  0.00000000000E+00 0.  1.
          6    1    1    2  501    0  0.75717842426E+02 -0.56197653805E+02  0.35890366280E+03  0.40942912344E+03  0.17300000000E+03 0. -1.
         -6    1    1    2    0  503 -0.75717842426E+02  0.56197653805E+02  0.14465150393E+03  0.24442672838E+03  0.17300000000E+03 0. -1.
<mgrwt>
<rscale>  2 0.19702885E+03</rscale>
<asrwt>0</asrwt>
<pdfrwt beam="1">  1       21 0.89031614E-01 0.19702885E+03</pdfrwt>
<pdfrwt beam="2">  1       21 0.11561592E-01 0.19702885E+03</pdfrwt>
<totfact> 0.67420166E+04</totfact>
</mgrwt>
</event>
<event>
 4    1  0.3945814E+000  0.1805469E+03  0.7546771E-02  0.1167275E+00
         21   -1    0    0  503  502  0.00000000000E+00  0.00000000000E+00  0.15510962981E+04  0.15510962981E+04  0.00000000000E+00 0. -1.
         21   -1    0    0  501  503 -0.00000000000E+00 -0.00000000000E+00 -0.26629640141E+02  0.26629640141E+02  0.00000000000E+00 0. -1.
          6    1    1    2  501    0  0.44324706056E+02 -0.26523743705E+02  0.40002582272E+03  0.43888249838E+03  0.17300000000E+03 0. -1.
         -6    1    1    2    0  502 -0.44324706056E+02  0.26523743705E+02  0.11244408352E+04  0.11388434398E+04  0.17300000000E+03 0. -1.
<mgrwt>
<rscale>  2 0.18054692E+03</rscale>
<asrwt>0</asrwt>
<pdfrwt beam="1">  1       21 0.23863013E+00 0.18054692E+03</pdfrwt>
<pdfrwt beam="2">  1       21 0.40968689E-02 0.18054692E+03</pdfrwt>
<totfact> 0.29513821E+04</totfact>
</mgrwt>
</event>
<event>
 4    1  0.3945814E+000  0.1774309E+03  0.7546771E-02  0.1170313E+00
         21   -1    0    0  501  502  0.00000000000E+00  0.00000000000E+00  0.40721003237E+03  0.40721003237E+03  0.00000000000E+00 0. -1.
         21   -1    0    0  502  503 -0.00000000000E+00 -0.00000000000E+00 -0.85670116077E+02  0.85670116077E+02  0.00000000000E+00 0. -1.
          6    1    1    2  501    0 -0.38717440247E+02  0.73270263842E+01  0.23775077747E+03  0.29666000351E+03  0.17300000000E+03 0. -1.
         -6    1    1    2    0  503  0.38717440247E+02 -0.73270263842E+01  0.83789138825E+02  0.19622014494E+03  0.17300000000E+03 0. -1.
<mgrwt>
<rscale>  2 0.17743090E+03</rscale>
<asrwt>0</asrwt>
<pdfrwt beam="1">  1       21 0.62647696E-01 0.17743090E+03</pdfrwt>
<pdfrwt beam="2">  1       21 0.13180018E-01 0.17743090E+03</pdfrwt>
<totfact> 0.11772378E+05</totfact>
</mgrwt>
</event>
<event>
 4    1  0.3945814E+000  0.2641728E+03  0.7546771E-02  0.1104662E+00
         21   -1    0    0  503  502  0.00000000000E+00  0.00000000000E+00  0.26475265452E+02  0.26475265452E+02  0.00000000000E+00 0.  1.
         21   -1    0    0  501  503 -0.00000000000E+00 -0.00000000000E+00 -0.27280982172E+04  0.27280982172E+04  0.00000000000E+00 0.  1.
          6    1    1    2  501    0  0.19959979187E+03  0.42679347720E+01 -0.16039476385E+04  0.16255569259E+04  0.17300000000E+03 0.  1.
         -6    1    1    2    0  502 -0.19959979187E+03 -0.42679347720E+01 -0.10976753132E+04  0.11290165568E+04  0.17300000000E+03 0.  1.
<mgrwt>
<rscale>  2 0.26417285E+03</rscale>
<asrwt>0</asrwt>
<pdfrwt beam="1">  1       21 0.40731174E-02 0.26417285E+03</pdfrwt>
<pdfrwt beam="2">  1       21 0.41970746E+00 0.26417285E+03</pdfrwt>
<totfact> 0.22763198E+03</totfact>
</mgrwt>
</event>
<event>
 4    1  0.3945814E+000  0.1901264E+03  0.7546771E-02  0.1158347E+00
         21   -1    0    0  503  502  0.00000000000E+00  0.00000000000E+00  0.57742911138E+03  0.57742911138E+03  0.00000000000E+00 0.  1.
         21   -1    0    0  501  503 -0.00000000000E+00 -0.00000000000E+00 -0.14301687619E+03  0.14301687619E+03  0.00000000000E+00 0.  1.
          6    1    1    2  501    0  0.55136298123E+02 -0.56382996292E+02 -0.52907669051E+02  0.19735063994E+03  0.17300000000E+03 0.  1.
         -6    1    1    2    0  502 -0.55136298123E+02  0.56382996292E+02  0.48731990424E+03  0.52309534762E+03  0.17300000000E+03 0.  1.
<mgrwt>
<rscale>  2 0.19012641E+03</rscale>
<asrwt>0</asrwt>
<pdfrwt beam="1">  1       21 0.88835246E-01 0.19012641E+03</pdfrwt>
<pdfrwt beam="2">  1       21 0.22002597E-01 0.19012641E+03</pdfrwt>
<totfact> 0.20926936E+04</totfact>
</mgrwt>
</event>
<event>
 4    1  0.3945814E+000  0.1893928E+03  0.7546771E-02  0.1159010E+00
         21   -1    0    0  501  502  0.00000000000E+00  0.00000000000E+00  0.78779541493E+03  0.78779541493E+03  0.00000000000E+00 0. -1.
         21   -1    0    0  502  503 -0.00000000000E+00 -0.00000000000E+00 -0.51536725406E+02  0.51536725406E+02  0.00000000000E+00 0.  1.
          6    1    1    2  501    0 -0.75079805107E+02 -0.17426022010E+02  0.51138238302E+03  0.54532704411E+03  0.17300000000E+03 0. -1.
         -6    1    1    2    0  503  0.75079805107E+02  0.17426022010E+02  0.22487630650E+03  0.29400509622E+03  0.17300000000E+03 0.  1.
<mgrwt>
<rscale>  2 0.18939283E+03</rscale>
<asrwt>0</asrwt>
<pdfrwt beam="1">  1       21 0.12119929E+00 0.18939283E+03</pdfrwt>
<pdfrwt beam="2">  1       21 0.79287276E-02 0.18939283E+03</pdfrwt>
<totfact> 0.62898742E+04</totfact>
</mgrwt>
</event>
<event>
 4    1  0.3945814E+000  0.1999899E+03  0.7546771E-02  0.1149748E+00
         21   -1    0    0  503  502  0.00000000000E+00  0.00000000000E+00  0.60064907060E+02  0.60064907060E+02  0.00000000000E+00 0.  1.
         21   -1    0    0  501  503 -0.00000000000E+00 -0.00000000000E+00 -0.77716471128E+03  0.77716471128E+03  0.00000000000E+00 0.  1.
          6    1    1    2  501    0 -0.21933840983E+02 -0.97907468309E+02 -0.51695807209E+03  0.55429379758E+03  0.17300000000E+03 0.  1.
         -6    1    1    2    0  502  0.21933840983E+02  0.97907468309E+02 -0.20014173212E+03  0.28293582076E+03  0.17300000000E+03 0.  1.
<mgrwt>
<rscale>  2 0.19998991E+03</rscale>
<asrwt>0</asrwt>
<pdfrwt beam="1">  1       21 0.92407556E-02 0.19998991E+03</pdfrwt>
<pdfrwt beam="2">  1       21 0.11956379E+00 0.19998991E+03</pdfrwt>
<totfact> 0.49502175E+04</totfact>
</mgrwt>
</event>
<event>
 4    1  0.3945814E+000  0.1881852E+03  0.7546771E-02  0.1160108E+00
         21   -1    0    0  501  502  0.00000000000E+00  0.00000000000E+00  0.13234250929E+03  0.13234250929E+03  0.00000000000E+00 0.  1.
         21   -1    0    0  502  503 -0.00000000000E+00 -0.00000000000E+00 -0.52275188713E+03  0.52275188713E+03  0.00000000000E+00 0.  1.
          6    1    1    2  501    0  0.63806199391E+02 -0.37595516711E+02  0.33635977131E+02  0.19116755194E+03  0.17300000000E+03 0.  1.
         -6    1    1    2    0  503 -0.63806199391E+02  0.37595516711E+02 -0.42404535497E+03  0.46392684448E+03  0.17300000000E+03 0.  1.
<mgrwt>
<rscale>  2 0.18818516E+03</rscale>
<asrwt>0</asrwt>
<pdfrwt beam="1">  1       21 0.20360386E-01 0.18818516E+03</pdfrwt>
<pdfrwt beam="2">  1       21 0.80423368E-01 0.18818516E+03</pdfrwt>
<totfact> 0.30414950E+04</totfact>
</mgrwt>
</event>
<event>
 4    1  0.3945814E+000  0.1957344E+03  0.7546771E-02  0.1153389E+00
         21   -1    0    0  503  502  0.00000000000E+00  0.00000000000E+00  0.57120792310E+03  0.57120792310E+03  0.00000000000E+00 0.  1.
         21   -1    0    0  501  503 -0.00000000000E+00 -0.00000000000E+00 -0.14883256289E+03  0.14883256289E+03  0.00000000000E+00 0.  1.
          6    1    1    2  501    0  0.91119968705E+02  0.89509935374E+01  0.47802728563E+03  0.51654821148E+03  0.17300000000E+03 0.  1.
         -6    1    1    2    0  502 -0.91119968705E+02 -0.89509935374E+01 -0.55651925420E+02  0.20349227451E+03  0.17300000000E+03 0.  1.
<mgrwt>
<rscale>  2 0.19573443E+03</rscale>
<asrwt>0</asrwt>
<pdfrwt beam="1">  1       21 0.87878141E-01 0.19573443E+03</pdfrwt>
<pdfrwt beam="2">  1       21 0.22897318E-01 0.19573443E+03</pdfrwt>
<totfact> 0.19832622E+04</totfact>
</mgrwt>
</event>
<event>
 4    1  0.3945814E+000  0.1752260E+03  0.7546771E-02  0.1172505E+00
         21   -1    0    0  501  502  0.00000000000E+00  0.00000000000E+00  0.83134516838E+02  0.83134516838E+02  0.00000000000E+00 0. -1.
         21   -1    0    0  502  503 -0.00000000000E+00 -0.00000000000E+00 -0.48886774515E+03  0.48886774515E+03  0.00000000000E+00 0. -1.
          6    1    1    2  501    0  0.21673719470E+02  0.17475615790E+02 -0.61442676821E+02  0.18568615941E+03  0.17300000000E+03 0. -1.
         -6    1    1    2    0  503 -0.21673719470E+02 -0.17475615790E+02 -0.34429055149E+03  0.38631610258E+03  0.17300000000E+03 0. -1.
<mgrwt>
<rscale>  2 0.17522599E+03</rscale>
<asrwt>0</asrwt>
<pdfrwt beam="1">  1       21 0.12789926E-01 0.17522599E+03</pdfrwt>
<pdfrwt beam="2">  1       21 0.75210422E-01 0.17522599E+03</pdfrwt>
<totfact> 0.83307268E+04</totfact>
</mgrwt>
</event>
<event>
 4    1  0.3945814E+000  0.1771894E+03  0.7546771E-02  0.1170551E+00
         21   -1    0    0  501  502  0.00000000000E+00  0.00000000000E+00  0.10185058372E+04  0.10185058372E+04  0.00000000000E+00 0. -1.
         21   -1    0    0  502  503 -0.00000000000E+00 -0.00000000000E+00 -0.81903227240E+02  0.81903227240E+02  0.00000000000E+00 0. -1.
          6    1    1    2  501    0 -0.19523428439E+02  0.32953456129E+02  0.90280036602E+03  0.92002423632E+03  0.17300000000E+03 0. -1.
         -6    1    1    2    0  503  0.19523428439E+02 -0.32953456129E+02  0.33802243967E+02  0.18038482815E+03  0.17300000000E+03 0. -1.
<mgrwt>
<rscale>  2 0.17718943E+03</rscale>
<asrwt>0</asrwt>
<pdfrwt beam="1">  1       21 0.15669320E+00 0.17718943E+03</pdfrwt>
<pdfrwt beam="2">  1       21 0.12600497E-01 0.17718943E+03</pdfrwt>
<totfact> 0.14477331E+04</totfact>
</mgrwt>
</event>
<event>
 4    1  0.3945814E+000  0.2126944E+03  0.7546771E-02  0.1139450E+00
         21   -1    0    0  503  502  0.00000000000E+00  0.00000000000E+00  0.97471949400E+02  0.97471949400E+02  0.00000000000E+00 0. -1.
         21   -1    0    0  501  503 -0.00000000000E+00 -0.00000000000E+00 -0.14574353000E+04  0.14574353000E+04  0.00000000000E+00 0. -1.
          6    1    1    2  501    0 -0.10301694461E+03 -0.68537696037E+02 -0.13218159531E+04  0.13388190022E+04  0.17300000000E+03 0. -1.
         -6    1    1    2    0  502  0.10301694461E+03  0.68537696037E+02 -0.38147397482E+02  0.21608824723E+03  0.17300000000E+03 0. -1.
<mgrwt>
<rscale>  2 0.21269440E+03</rscale>
<asrwt>0</asrwt>
<pdfrwt beam="1">  1       21 0.14995685E-01 0.21269440E+03</pdfrwt>
<pdfrwt beam="2">  1       21 0.22422080E+00 0.21269440E+03</pdfrwt>
<totfact> 0.36480486E+03</totfact>
</mgrwt>
</event>
<event>
 4    1  0.3945814E+000  0.1750957E+03  0.7546771E-02  0.1172636E+00
         21   -1    0    0  503  502  0.00000000000E+00  0.00000000000E+00  0.41957039323E+02  0.41957039323E+02  0.00000000000E+00 0.  1.
         21   -1    0    0  501  503 -0.00000000000E+00 -0.00000000000E+00 -0.74129833972E+03  0.74129833972E+03  0.00000000000E+00 0.  1.
          6    1    1    2  501    0 -0.19475480355E+02 -0.18714264601E+02 -0.39647076275E+03  0.43341387121E+03  0.17300000000E+03 0. -1.
         -6    1    1    2    0  502  0.19475480355E+02  0.18714264601E+02 -0.30287053765E+03  0.34984150784E+03  0.17300000000E+03 0. -1.
<mgrwt>
<rscale>  2 0.17509574E+03</rscale>
<asrwt>0</asrwt>
<pdfrwt beam="1">  1       21 0.64549297E-02 0.17509574E+03</pdfrwt>
<pdfrwt beam="2">  1       21 0.11404589E+00 0.17509574E+03</pdfrwt>
<totfact> 0.10484515E+05</totfact>
</mgrwt>
</event>
<event>
 4    1  0.3945814E+000  0.2080226E+03  0.7546771E-02  0.1143142E+00
         21   -1    0    0  501  502  0.00000000000E+00  0.00000000000E+00  0.14065940025E+03  0.14065940025E+03  0.00000000000E+00 0. -1.
         21   -1    0    0  502  503 -0.00000000000E+00 -0.00000000000E+00 -0.69946549986E+03  0.69946549986E+03  0.00000000000E+00 0. -1.
          6    1    1    2  501    0  0.80960279839E+02  0.82400406349E+02  0.34990315362E+02  0.21094481754E+03  0.17300000000E+03 0. -1.
         -6    1    1    2    0  503 -0.80960279839E+02 -0.82400406349E+02 -0.59379641497E+03  0.62918008257E+03  0.17300000000E+03 0. -1.
<mgrwt>
<rscale>  2 0.20802258E+03</rscale>
<asrwt>0</asrwt>
<pdfrwt beam="1">  1       21 0.21639908E-01 0.20802258E+03</pdfrwt>
<pdfrwt beam="2">  1       21 0.10761008E+00 0.20802258E+03</pdfrwt>
<totfact> 0.13573516E+04</totfact>
</mgrwt>
</event>
<event>
 4    1  0.3945814E+000  0.2353483E+03  0.7546771E-02  0.1122931E+00
         21   -1    0    0  503  502  0.00000000000E+00  0.00000000000E+00  0.50452790652E+02  0.50452790652E+02  0.00000000000E+00 0.  1.
         21   -1    0    0  501  503 -0.00000000000E+00 -0.00000000000E+00 -0.10989731022E+04  0.10989731022E+04  0.00000000000E+00 0.  1.
          6    1    1    2  501    0 -0.14087185568E+03 -0.74932811698E+02 -0.50576003894E+03  0.55783691432E+03  0.17300000000E+03 0.  1.
         -6    1    1    2    0  502  0.14087185568E+03  0.74932811698E+02 -0.54276027259E+03  0.59158897851E+03  0.17300000000E+03 0.  1.
<mgrwt>
<rscale>  2 0.23534827E+03</rscale>
<asrwt>0</asrwt>
<pdfrwt beam="1">  1       21 0.77619682E-02 0.23534827E+03</pdfrwt>
<pdfrwt beam="2">  1       21 0.16907278E+00 0.23534827E+03</pdfrwt>
<totfact> 0.26669934E+04</totfact>
</mgrwt>
</event>
<event>
 4    1  0.3945814E+000  0.2405073E+03  0.7546771E-02  0.1119455E+00
         21   -1    0    0  501  502  0.00000000000E+00  0.00000000000E+00  0.91886770023E+02  0.91886770023E+02  0.00000000000E+00 0. -1.
         21   -1    0    0  502  503 -0.00000000000E+00 -0.00000000000E+00 -0.10863178819E+04  0.10863178819E+04  0.00000000000E+00 0. -1.
          6    1    1    2  501    0 -0.11156278946E+03 -0.12437249525E+03 -0.11520234714E+03  0.26667462263E+03  0.17300000000E+03 0. -1.
         -6    1    1    2    0  503  0.11156278946E+03  0.12437249525E+03 -0.87922876471E+03  0.91153002927E+03  0.17300000000E+03 0. -1.
<mgrwt>
<rscale>  2 0.24050733E+03</rscale>
<asrwt>0</asrwt>
<pdfrwt beam="1">  1       21 0.14136427E-01 0.24050733E+03</pdfrwt>
<pdfrwt beam="2">  1       21 0.16712582E+00 0.24050733E+03</pdfrwt>
<totfact> 0.94345912E+03</totfact>
</mgrwt>
</event>
<event>
 4    1  0.3945814E+000  0.1896852E+03  0.7546771E-02  0.1158746E+00
         21   -1    0    0  503  502  0.00000000000E+00  0.00000000000E+00  0.23045467858E+04  0.23045467858E+04  0.00000000000E+00 0.  1.
         21   -1    0    0  501  503 -0.00000000000E+00 -0.00000000000E+00 -0.86763793806E+02  0.86763793806E+02  0.00000000000E+00 0. -1.
          6    1    1    2  501    0  0.31235515430E+02  0.71244678323E+02  0.26144060897E+02  0.19147838921E+03  0.17300000000E+03 0. -1.
         -6    1    1    2    0  502 -0.31235515430E+02 -0.71244678323E+02  0.21916389311E+04  0.21998321904E+04  0.17300000000E+03 0.  1.
<mgrwt>
<rscale>  2 0.18968516E+03</rscale>
<asrwt>0</asrwt>
<pdfrwt beam="1">  1       21 0.35454561E+00 0.18968516E+03</pdfrwt>
<pdfrwt beam="2">  1       21 0.13348278E-01 0.18968516E+03</pdfrwt>
<totfact> 0.80024128E+02</totfact>
</mgrwt>
</event>
<event>
 4    1  0.3945814E+000  0.2403615E+03  0.7546771E-02  0.1119552E+00
         21   -1    0    0  501  502  0.00000000000E+00  0.00000000000E+00  0.38179983723E+03  0.38179983723E+03  0.00000000000E+00 0. -1.
         21   -1    0    0  502  503 -0.00000000000E+00 -0.00000000000E+00 -0.27840372238E+03  0.27840372238E+03  0.00000000000E+00 0.  1.
          6    1    1    2  501    0 -0.35755200047E+02 -0.16299147280E+03  0.27472464479E+03  0.36503052611E+03  0.17300000000E+03 0. -1.
         -6    1    1    2    0  503  0.35755200047E+02  0.16299147280E+03 -0.17132852994E+03  0.29517303350E+03  0.17300000000E+03 0.  1.
<mgrwt>
<rscale>  2 0.24036151E+03</rscale>
<asrwt>0</asrwt>
<pdfrwt beam="1">  1       21 0.58738436E-01 0.24036151E+03</pdfrwt>
<pdfrwt beam="2">  1       21 0.42831342E-01 0.24036151E+03</pdfrwt>
<totfact> 0.13817016E+04</totfact>
</mgrwt>
</event>
<event>
 4    1  0.3945814E+000  0.1762431E+03  0.7546771E-02  0.1171489E+00
         21   -1    0    0  501  502  0.00000000000E+00  0.00000000000E+00  0.20182632981E+04  0.20182632981E+04  0.00000000000E+00 0. -1.
         21   -1    0    0  502  503 -0.00000000000E+00 -0.00000000000E+00 -0.17841672148E+02  0.17841672148E+02  0.00000000000E+00 0. -1.
          6    1    1    2  501    0  0.87406515704E+01 -0.32499590959E+02  0.13775739199E+04  0.13888021915E+04  0.17300000000E+03 0. -1.
         -6    1    1    2    0  503 -0.87406515704E+01  0.32499590959E+02  0.62284770600E+03  0.64730277867E+03  0.17300000000E+03 0. -1.
<mgrwt>
<rscale>  2 0.17624308E+03</rscale>
<asrwt>0</asrwt>
<pdfrwt beam="1">  1       21 0.31050187E+00 0.17624308E+03</pdfrwt>
<pdfrwt beam="2">  1       21 0.27448742E-02 0.17624308E+03</pdfrwt>
<totfact> 0.22141013E+04</totfact>
</mgrwt>
</event>
<event>
 4    1  0.3945814E+000  0.1764387E+03  0.7546771E-02  0.1171295E+00
         21   -1    0    0  501  502  0.00000000000E+00  0.00000000000E+00  0.14238607773E+03  0.14238607773E+03  0.00000000000E+00 0.  1.
         21   -1    0    0  502  503 -0.00000000000E+00 -0.00000000000E+00 -0.22678040471E+03  0.22678040471E+03  0.00000000000E+00 0.  1.
          6    1    1    2  501    0 -0.18208099973E+02  0.29497055239E+02 -0.72155351231E+01  0.17658616911E+03  0.17300000000E+03 0.  1.
         -6    1    1    2    0  503  0.18208099973E+02 -0.29497055239E+02 -0.77178791860E+02  0.19258031334E+03  0.17300000000E+03 0.  1.
<mgrwt>
<rscale>  2 0.17643869E+03</rscale>
<asrwt>0</asrwt>
<pdfrwt beam="1">  1       21 0.21905551E-01 0.17643869E+03</pdfrwt>
<pdfrwt beam="2">  1       21 0.34889293E-01 0.17643869E+03</pdfrwt>
<totfact> 0.15490511E+05</totfact>
</mgrwt>
</event>
<event>
 4    1  0.3945814E+000  0.2431198E+03  0.7546771E-02  0.1117732E+00
         21   -1    0    0  501  502  0.00000000000E+00  0.00000000000E+00  0.33108313630E+03  0.33108313630E+03  0.00000000000E+00 0.  1.
         21   -1    0    0  502  503 -0.00000000000E+00 -0.00000000000E+00 -0.68208619425E+03  0.68208619425E+03  0.00000000000E+00 0. -1.
          6    1    1    2  501    0  0.84346231853E+02  0.14853933207E+03  0.25976748488E+03  0.35578977810E+03  0.17300000000E+03 0.  1.
         -6    1    1    2    0  503 -0.84346231853E+02 -0.14853933207E+03 -0.61077054283E+03  0.65737955246E+03  0.17300000000E+03 0. -1.
<mgrwt>
<rscale>  2 0.24311976E+03</rscale>
<asrwt>0</asrwt>
<pdfrwt beam="1">  1       21 0.50935868E-01 0.24311976E+03</pdfrwt>
<pdfrwt beam="2">  1       21 0.10493634E+00 0.24311976E+03</pdfrwt>
<totfact> 0.25756008E+03</totfact>
</mgrwt>
</event>
<event>
 4    1  0.3945814E+000  0.2071769E+03  0.7546771E-02  0.1143821E+00
         21   -1    0    0  501  502  0.00000000000E+00  0.00000000000E+00  0.12047360775E+03  0.12047360775E+03  0.00000000000E+00 0. -1.
         21   -1    0    0  502  503 -0.00000000000E+00 -0.00000000000E+00 -0.11423895406E+04  0.11423895406E+04  0.00000000000E+00 0. -1.
          6    1    1    2  501    0  0.96962481161E+02  0.59929568907E+02 -0.10347523760E+04  0.10552889441E+04  0.17300000000E+03 0. -1.
         -6    1    1    2    0  503 -0.96962481161E+02 -0.59929568907E+02  0.12836443153E+02  0.20757420421E+03  0.17300000000E+03 0. -1.
<mgrwt>
<rscale>  2 0.20717692E+03</rscale>
<asrwt>0</asrwt>
<pdfrwt beam="1">  1       21 0.18534401E-01 0.20717692E+03</pdfrwt>
<pdfrwt beam="2">  1       21 0.17575223E+00 0.20717692E+03</pdfrwt>
<totfact> 0.51102353E+03</totfact>
</mgrwt>
</event>
<event>
 4    1  0.3945814E+000  0.2624004E+03  0.7546771E-02  0.1105710E+00
         21   -1    0    0  503  502  0.00000000000E+00  0.00000000000E+00  0.38553453366E+03  0.38553453366E+03  0.00000000000E+00 0.  1.
         21   -1    0    0  501  503 -0.00000000000E+00 -0.00000000000E+00 -0.18491295083E+03  0.18491295083E+03  0.00000000000E+00 0.  1.
          6    1    1    2  501    0  0.19304918988E+03  0.40706274700E+02  0.47583056650E+02  0.26667984137E+03  0.17300000000E+03 0.  1.
         -6    1    1    2    0  502 -0.19304918988E+03 -0.40706274700E+02  0.15303852618E+03  0.30376764312E+03  0.17300000000E+03 0.  1.
<mgrwt>
<rscale>  2 0.26240044E+03</rscale>
<asrwt>0</asrwt>
<pdfrwt beam="1">  1       21 0.59313005E-01 0.26240044E+03</pdfrwt>
<pdfrwt beam="2">  1       21 0.28448146E-01 0.26240044E+03</pdfrwt>
<totfact> 0.30330042E+04</totfact>
</mgrwt>
</event>
<event>
 4    1  0.3945814E+000  0.1960876E+03  0.7546771E-02  0.1153082E+00
         21   -1    0    0  501  502  0.00000000000E+00  0.00000000000E+00  0.12962269568E+03  0.12962269568E+03  0.00000000000E+00 0.  1.
         21   -1    0    0  502  503 -0.00000000000E+00 -0.00000000000E+00 -0.35282386442E+03  0.35282386442E+03  0.00000000000E+00 0. -1.
          6    1    1    2  501    0 -0.44268777704E+02 -0.81003900254E+02 -0.15334463237E+02  0.19668630430E+03  0.17300000000E+03 0.  1.
         -6    1    1    2    0  503  0.44268777704E+02  0.81003900254E+02 -0.20786670551E+03  0.28576025580E+03  0.17300000000E+03 0. -1.
<mgrwt>
<rscale>  2 0.19608762E+03</rscale>
<asrwt>0</asrwt>
<pdfrwt beam="1">  1       21 0.19941953E-01 0.19608762E+03</pdfrwt>
<pdfrwt beam="2">  1       21 0.54280594E-01 0.19608762E+03</pdfrwt>
<totfact> 0.74324347E+04</totfact>
</mgrwt>
</event>
<event>
 4    1  0.3945814E+000  0.2176169E+03  0.7546771E-02  0.1135672E+00
         21   -1    0    0  501  502  0.00000000000E+00  0.00000000000E+00  0.29524550257E+03  0.29524550257E+03  0.00000000000E+00 0.  1.
         21   -1    0    0  502  503 -0.00000000000E+00 -0.00000000000E+00 -0.24372774940E+03  0.24372774940E+03  0.00000000000E+00 0.  1.
          6    1    1    2  501    0  0.10478663153E+03 -0.80298771039E+02  0.18333185405E+03  0.28454823754E+03  0.17300000000E+03 0.  1.
         -6    1    1    2    0  503 -0.10478663153E+03  0.80298771039E+02 -0.13181410087E+03  0.25442501443E+03  0.17300000000E+03 0.  1.
<mgrwt>
<rscale>  2 0.21761694E+03</rscale>
<asrwt>0</asrwt>
<pdfrwt beam="1">  1       21 0.45422385E-01 0.21761694E+03</pdfrwt>
<pdfrwt beam="2">  1       21 0.37496577E-01 0.21761694E+03</pdfrwt>
<totfact> 0.31466900E+04</totfact>
</mgrwt>
</event>
<event>
 4    1  0.3945814E+000  0.1845308E+03  0.7546771E-02  0.1163489E+00
         21   -1    0    0  501  502  0.00000000000E+00  0.00000000000E+00  0.46302655396E+02  0.46302655396E+02  0.00000000000E+00 0. -1.
         21   -1    0    0  502  503 -0.00000000000E+00 -0.00000000000E+00 -0.76807410825E+03  0.76807410825E+03  0.00000000000E+00 0. -1.
          6    1    1    2  501    0 -0.49087274088E+02  0.41389020099E+02 -0.27691962350E+03  0.33277032521E+03  0.17300000000E+03 0. -1.
         -6    1    1    2    0  503  0.49087274088E+02 -0.41389020099E+02 -0.44485182935E+03  0.48160643843E+03  0.17300000000E+03 0. -1.
<mgrwt>
<rscale>  2 0.18453079E+03</rscale>
<asrwt>0</asrwt>
<pdfrwt beam="1">  1       21 0.71234866E-02 0.18453079E+03</pdfrwt>
<pdfrwt beam="2">  1       21 0.11816523E+00 0.18453079E+03</pdfrwt>
<totfact> 0.80814685E+04</totfact>
</mgrwt>
</event>
<event>
 4    1  0.3945814E+000  0.1835236E+03  0.7546771E-02  0.1164436E+00
         21   -1    0    0  503  502  0.00000000000E+00  0.00000000000E+00  0.68322395722E+02  0.68322395722E+02  0.00000000000E+00 0. -1.
         21   -1    0    0  501  503 -0.00000000000E+00 -0.00000000000E+00 -0.51640681382E+03  0.51640681382E+03  0.00000000000E+00 0. -1.
          6    1    1    2  501    0  0.44571945394E+01  0.61090522562E+02 -0.28632591131E+03  0.34009329017E+03  0.17300000000E+03 0. -1.
         -6    1    1    2    0  502 -0.44571945394E+01 -0.61090522562E+02 -0.16175850679E+03  0.24463591937E+03  0.17300000000E+03 0. -1.
<mgrwt>
<rscale>  2 0.18352362E+03</rscale>
<asrwt>0</asrwt>
<pdfrwt beam="1">  1       21 0.10511138E-01 0.18352362E+03</pdfrwt>
<pdfrwt beam="2">  1       21 0.79447198E-01 0.18352362E+03</pdfrwt>
<totfact> 0.10416020E+05</totfact>
</mgrwt>
</event>
<event>
 4    1  0.3945814E+000  0.2021709E+03  0.7546771E-02  0.1147920E+00
         21   -1    0    0  503  502  0.00000000000E+00  0.00000000000E+00  0.17588358575E+03  0.17588358575E+03  0.00000000000E+00 0.  1.
         21   -1    0    0  501  503 -0.00000000000E+00 -0.00000000000E+00 -0.23308771048E+03  0.23308771048E+03  0.00000000000E+00 0.  1.
          6    1    1    2  501    0 -0.46950038743E+02  0.93486813098E+02 -0.39812353879E+02  0.20605366748E+03  0.17300000000E+03 0.  1.
         -6    1    1    2    0  502  0.46950038743E+02 -0.93486813098E+02 -0.17391770854E+02  0.20291762874E+03  0.17300000000E+03 0.  1.
<mgrwt>
<rscale>  2 0.20217094E+03</rscale>
<asrwt>0</asrwt>
<pdfrwt beam="1">  1       21 0.27059013E-01 0.20217094E+03</pdfrwt>
<pdfrwt beam="2">  1       21 0.35859647E-01 0.20217094E+03</pdfrwt>
<totfact> 0.97216564E+04</totfact>
</mgrwt>
</event>
<event>
 4    1  0.3945814E+000  0.2043304E+03  0.7546771E-02  0.1146136E+00
         21   -1    0    0  503  502  0.00000000000E+00  0.00000000000E+00  0.48126221904E+03  0.48126221904E+03  0.00000000000E+00 0. -1.
         21   -1    0    0  501  503 -0.00000000000E+00 -0.00000000000E+00 -0.11125751104E+03  0.11125751104E+03  0.00000000000E+00 0.  1.
          6    1    1    2  501    0  0.23284040003E+02  0.10620616689E+03  0.45964838822E+02  0.20943653648E+03  0.17300000000E+03 0.  1.
         -6    1    1    2    0  502 -0.23284040003E+02 -0.10620616689E+03  0.32403986918E+03  0.38308319360E+03  0.17300000000E+03 0. -1.
<mgrwt>
<rscale>  2 0.20433036E+03</rscale>
<asrwt>0</asrwt>
<pdfrwt beam="1">  1       21 0.74040340E-01 0.20433036E+03</pdfrwt>
<pdfrwt beam="2">  1       21 0.17116540E-01 0.20433036E+03</pdfrwt>
<totfact> 0.50117083E+04</totfact>
</mgrwt>
</event>
<event>
 4    1  0.3945814E+000  0.2064498E+03  0.7546771E-02  0.1144409E+00
         21   -1    0    0  503  502  0.00000000000E+00  0.00000000000E+00  0.22823123300E+03  0.22823123300E+03  0.00000000000E+00 0.  1.
         21   -1    0    0  501  503 -0.00000000000E+00 -0.00000000000E+00 -0.21287639863E+03  0.21287639863E+03  0.00000000000E+00 0.  1.
          6    1    1    2  501    0  0.45527798342E+02 -0.10305218037E+03 -0.69593181935E+02  0.21786404768E+03  0.17300000000E+03 0.  1.
         -6    1    1    2    0  502 -0.45527798342E+02  0.10305218037E+03  0.84948016305E+02  0.22324358395E+03  0.17300000000E+03 0.  1.
<mgrwt>
<rscale>  2 0.20644983E+03</rscale>
<asrwt>0</asrwt>
<pdfrwt beam="1">  1       21 0.35112497E-01 0.20644983E+03</pdfrwt>
<pdfrwt beam="2">  1       21 0.32750215E-01 0.20644983E+03</pdfrwt>
<totfact> 0.69741302E+04</totfact>
</mgrwt>
</event>
<event>
 4    1  0.3945814E+000  0.2091515E+03  0.7546771E-02  0.1142240E+00
         21   -1    0    0  501  502  0.00000000000E+00  0.00000000000E+00  0.11100134022E+04  0.11100134022E+04  0.00000000000E+00 0.  1.
         21   -1    0    0  502  503 -0.00000000000E+00 -0.00000000000E+00 -0.52286448031E+02  0.52286448031E+02  0.00000000000E+00 0. -1.
          6    1    1    2  501    0 -0.10599394821E+03  0.50799800448E+02  0.81727411462E+03  0.84361206441E+03  0.17300000000E+03 0.  1.
         -6    1    1    2    0  503  0.10599394821E+03 -0.50799800448E+02  0.24045283952E+03  0.31868778580E+03  0.17300000000E+03 0. -1.
<mgrwt>
<rscale>  2 0.20915147E+03</rscale>
<asrwt>0</asrwt>
<pdfrwt beam="1">  1       21 0.17077128E+00 0.20915147E+03</pdfrwt>
<pdfrwt beam="2">  1       21 0.80440697E-02 0.20915147E+03</pdfrwt>
<totfact> 0.24771449E+04</totfact>
</mgrwt>
</event>
<event>
 4    1  0.3945814E+000  0.1915466E+03  0.7546771E-02  0.1157074E+00
         21   -1    0    0  503  502  0.00000000000E+00  0.00000000000E+00  0.36919457193E+03  0.36919457193E+03  0.00000000000E+00 0.  1.
         21   -1    0    0  501  503 -0.00000000000E+00 -0.00000000000E+00 -0.14021682467E+03  0.14021682467E+03  0.00000000000E+00 0. -1.
          6    1    1    2  501    0  0.74487375557E+02  0.34824225060E+02  0.25194725211E+03  0.31649251747E+03  0.17300000000E+03 0.  1.
         -6    1    1    2    0  502 -0.74487375557E+02 -0.34824225060E+02 -0.22969504857E+02  0.19291887912E+03  0.17300000000E+03 0.  1.
<mgrwt>
<rscale>  2 0.19154659E+03</rscale>
<asrwt>0</asrwt>
<pdfrwt beam="1">  1       21 0.56799165E-01 0.19154659E+03</pdfrwt>
<pdfrwt beam="2">  1       21 0.21571819E-01 0.19154659E+03</pdfrwt>
<totfact> 0.58388656E+04</totfact>
</mgrwt>
</event>
<event>
 4    1  0.3945814E+000  0.2296635E+03  0.7546771E-02  0.1126877E+00
         21   -1    0    0  501  502  0.00000000000E+00  0.00000000000E+00  0.74412407150E+02  0.74412407150E+02  0.00000000000E+00 0. -1.
         21   -1    0    0  502  503 -0.00000000000E+00 -0.00000000000E+00 -0.77706391749E+03  0.77706391749E+03  0.00000000000E+00 0.  1.
          6    1    1    2  501    0 -0.63228264697E+02 -0.13718064434E+03 -0.47748864741E+03  0.52984974384E+03  0.17300000000E+03 0.  1.
         -6    1    1    2    0  503  0.63228264697E+02  0.13718064434E+03 -0.22516286293E+03  0.32162658081E+03  0.17300000000E+03 0. -1.
<mgrwt>
<rscale>  2 0.22966354E+03</rscale>
<asrwt>0</asrwt>
<pdfrwt beam="1">  1       21 0.11448063E-01 0.22966354E+03</pdfrwt>
<pdfrwt beam="2">  1       21 0.11954829E+00 0.22966354E+03</pdfrwt>
<totfact> 0.33339878E+04</totfact>
</mgrwt>
</event>
<event>
 4    1  0.3945814E+000  0.1844381E+03  0.7546771E-02  0.1163576E+00
         21   -1    0    0  503  502  0.00000000000E+00  0.00000000000E+00  0.12271071813E+03  0.12271071813E+03  0.00000000000E+00 0.  1.
         21   -1    0    0  501  503 -0.00000000000E+00 -0.00000000000E+00 -0.30410971269E+03  0.30410971269E+03  0.00000000000E+00 0.  1.
          6    1    1    2  501    0 -0.61567791741E+02  0.17257161629E+02 -0.15416293385E+03  0.24038222227E+03  0.17300000000E+03 0.  1.
         -6    1    1    2    0  502  0.61567791741E+02 -0.17257161629E+02 -0.27236060712E+02  0.18643820856E+03  0.17300000000E+03 0.  1.
<mgrwt>
<rscale>  2 0.18443807E+03</rscale>
<asrwt>0</asrwt>
<pdfrwt beam="1">  1       21 0.18878572E-01 0.18443807E+03</pdfrwt>
<pdfrwt beam="2">  1       21 0.46786109E-01 0.18443807E+03</pdfrwt>
<totfact> 0.11274807E+05</totfact>
</mgrwt>
</event>
<event>
 4    1  0.3945814E+000  0.1802562E+03  0.7546771E-02  0.1167555E+00
         21   -1    0    0  503  502  0.00000000000E+00  0.00000000000E+00  0.10089198466E+03  0.10089198466E+03  0.00000000000E+00 0.  1.
         21   -1    0    0  501  503 -0.00000000000E+00 -0.00000000000E+00 -0.32503633771E+03  0.32503633771E+03  0.00000000000E+00 0. -1.
          6    1    1    2  501    0  0.17732001732E+02 -0.47422141997E+02 -0.91659696608E+02  0.20222211407E+03  0.17300000000E+03 0. -1.
         -6    1    1    2    0  502 -0.17732001732E+02  0.47422141997E+02 -0.13248465645E+03  0.22370620830E+03  0.17300000000E+03 0. -1.
<mgrwt>
<rscale>  2 0.18025616E+03</rscale>
<asrwt>0</asrwt>
<pdfrwt beam="1">  1       21 0.15521844E-01 0.18025616E+03</pdfrwt>
<pdfrwt beam="2">  1       21 0.50005591E-01 0.18025616E+03</pdfrwt>
<totfact> 0.14098941E+05</totfact>
</mgrwt>
</event>
<event>
 4    1  0.3945814E+000  0.1812351E+03  0.7546771E-02  0.1166613E+00
         21   -1    0    0  503  502  0.00000000000E+00  0.00000000000E+00  0.10597909378E+04  0.10597909378E+04  0.00000000000E+00 0. -1.
         21   -1    0    0  501  503 -0.00000000000E+00 -0.00000000000E+00 -0.39686884397E+02  0.39686884397E+02  0.00000000000E+00 0. -1.
          6    1    1    2  501    0  0.53304251384E+02  0.87075519461E+01  0.25275285173E+03  0.31101474038E+03  0.17300000000E+03 0. -1.
         -6    1    1    2    0  502 -0.53304251384E+02 -0.87075519461E+01  0.76735120162E+03  0.78846308177E+03  0.17300000000E+03 0. -1.
<mgrwt>
<rscale>  2 0.18123511E+03</rscale>
<asrwt>0</asrwt>
<pdfrwt beam="1">  1       21 0.16304474E+00 0.18123511E+03</pdfrwt>
<pdfrwt beam="2">  1       21 0.61056753E-02 0.18123511E+03</pdfrwt>
<totfact> 0.46083313E+04</totfact>
</mgrwt>
</event>
<event>
 4    1  0.3945814E+000  0.1905762E+03  0.7546771E-02  0.1157943E+00
         21   -1    0    0  501  502  0.00000000000E+00  0.00000000000E+00  0.29341876089E+03  0.29341876089E+03  0.00000000000E+00 0. -1.
         21   -1    0    0  502  503 -0.00000000000E+00 -0.00000000000E+00 -0.12981504519E+03  0.12981504519E+03  0.00000000000E+00 0. -1.
          6    1    1    2  501    0  0.33935596290E+02 -0.72378636958E+02  0.12743057009E+03  0.22925497154E+03  0.17300000000E+03 0. -1.
         -6    1    1    2    0  503 -0.33935596290E+02  0.72378636958E+02  0.36173145606E+02  0.19397883453E+03  0.17300000000E+03 0. -1.
<mgrwt>
<rscale>  2 0.19057621E+03</rscale>
<asrwt>0</asrwt>
<pdfrwt beam="1">  1       21 0.45141348E-01 0.19057621E+03</pdfrwt>
<pdfrwt beam="2">  1       21 0.19971545E-01 0.19057621E+03</pdfrwt>
<totfact> 0.10905602E+05</totfact>
</mgrwt>
</event>
<event>
 4    1  0.3945814E+000  0.1868832E+03  0.7546771E-02  0.1161303E+00
         21   -1    0    0  501  502  0.00000000000E+00  0.00000000000E+00  0.14512144831E+03  0.14512144831E+03  0.00000000000E+00 0.  1.
         21   -1    0    0  502  503 -0.00000000000E+00 -0.00000000000E+00 -0.26509089565E+03  0.26509089565E+03  0.00000000000E+00 0.  1.
          6    1    1    2  501    0 -0.70671824476E+02  0.13444201719E+01  0.22778896031E+01  0.18689703856E+03  0.17300000000E+03 0.  1.
         -6    1    1    2    0  503  0.70671824476E+02 -0.13444201719E+01 -0.12224733694E+03  0.22331530541E+03  0.17300000000E+03 0.  1.
<mgrwt>
<rscale>  2 0.18688316E+03</rscale>
<asrwt>0</asrwt>
<pdfrwt beam="1">  1       21 0.22326377E-01 0.18688316E+03</pdfrwt>
<pdfrwt beam="2">  1       21 0.40783214E-01 0.18688316E+03</pdfrwt>
<totfact> 0.10896530E+05</totfact>
</mgrwt>
</event>
<event>
 4    1  0.3945814E+000  0.2045775E+03  0.7546771E-02  0.1145933E+00
         21   -1    0    0  503  502  0.00000000000E+00  0.00000000000E+00  0.42917367679E+03  0.42917367679E+03  0.00000000000E+00 0. -1.
         21   -1    0    0  501  503 -0.00000000000E+00 -0.00000000000E+00 -0.13180493540E+03  0.13180493540E+03  0.00000000000E+00 0. -1.
          6    1    1    2  501    0 -0.11539587380E+02  0.10858074543E+03  0.56244344622E+01  0.20465476935E+03  0.17300000000E+03 0. -1.
         -6    1    1    2    0  502  0.11539587380E+02 -0.10858074543E+03  0.29174430692E+03  0.35632384284E+03  0.17300000000E+03 0. -1.
<mgrwt>
<rscale>  2 0.20457747E+03</rscale>
<asrwt>0</asrwt>
<pdfrwt beam="1">  1       21 0.66026719E-01 0.20457747E+03</pdfrwt>
<pdfrwt beam="2">  1       21 0.20277683E-01 0.20457747E+03</pdfrwt>
<totfact> 0.47101467E+04</totfact>
</mgrwt>
</event>
<event>
 4    1  0.3945814E+000  0.2037023E+03  0.7546771E-02  0.1146652E+00
         21   -1    0    0  501  502  0.00000000000E+00  0.00000000000E+00  0.34433579757E+02  0.34433579757E+02  0.00000000000E+00 0.  1.
         21   -1    0    0  502  503 -0.00000000000E+00 -0.00000000000E+00 -0.12899505941E+04  0.12899505941E+04  0.00000000000E+00 0.  1.
          6    1    1    2  501    0  0.38740527847E+02 -0.10032354827E+03 -0.45788767110E+03  0.50115442948E+03  0.17300000000E+03 0.  1.
         -6    1    1    2    0  503 -0.38740527847E+02  0.10032354827E+03 -0.79762934328E+03  0.82322974442E+03  0.17300000000E+03 0.  1.
<mgrwt>
<rscale>  2 0.20370234E+03</rscale>
<asrwt>0</asrwt>
<pdfrwt beam="1">  1       21 0.52974738E-02 0.20370234E+03</pdfrwt>
<pdfrwt beam="2">  1       21 0.19845394E+00 0.20370234E+03</pdfrwt>
<totfact> 0.33243262E+04</totfact>
</mgrwt>
</event>
<event>
 4    1  0.3945814E+000  0.1763409E+03  0.7546771E-02  0.1171392E+00
         21   -1    0    0  501  502  0.00000000000E+00  0.00000000000E+00  0.27827833365E+03  0.27827833365E+03  0.00000000000E+00 0.  1.
         21   -1    0    0  502  503 -0.00000000000E+00 -0.00000000000E+00 -0.17340320909E+03  0.17340320909E+03  0.00000000000E+00 0.  1.
          6    1    1    2  501    0  0.30274442203E+02 -0.15829333264E+02  0.18710746200E+03  0.25710953303E+03  0.17300000000E+03 0.  1.
         -6    1    1    2    0  503 -0.30274442203E+02  0.15829333264E+02 -0.82232337437E+02  0.19457200971E+03  0.17300000000E+03 0.  1.
<mgrwt>
<rscale>  2 0.17634089E+03</rscale>
<asrwt>0</asrwt>
<pdfrwt beam="1">  1       21 0.42812051E-01 0.17634089E+03</pdfrwt>
<pdfrwt beam="2">  1       21 0.26677417E-01 0.17634089E+03</pdfrwt>
<totfact> 0.70675028E+04</totfact>
</mgrwt>
</event>
<event>
 4    1  0.3945814E+000  0.1790408E+03  0.7546771E-02  0.1168735E+00
         21   -1    0    0  501  502  0.00000000000E+00  0.00000000000E+00  0.21512266844E+03  0.21512266844E+03  0.00000000000E+00 0. -1.
         21   -1    0    0  502  503 -0.00000000000E+00 -0.00000000000E+00 -0.60754125061E+03  0.60754125061E+03  0.00000000000E+00 0. -1.
          6    1    1    2  501    0 -0.33496050662E+02  0.31696003318E+02  0.16113645260E+03  0.24087461135E+03  0.17300000000E+03 0. -1.
         -6    1    1    2    0  503  0.33496050662E+02 -0.31696003318E+02 -0.55355503477E+03  0.58178930770E+03  0.17300000000E+03 0. -1.
<mgrwt>
<rscale>  2 0.17904084E+03</rscale>
<asrwt>0</asrwt>
<pdfrwt beam="1">  1       21 0.33095796E-01 0.17904084E+03</pdfrwt>
<pdfrwt beam="2">  1       21 0.93467884E-01 0.17904084E+03</pdfrwt>
<totfact> 0.85426452E+03</totfact>
</mgrwt>
</event>
<event>
 4    1  0.3945814E+000  0.1894522E+03  0.7546771E-02  0.1158956E+00
         21   -1    0    0  501  502  0.00000000000E+00  0.00000000000E+00  0.70990048703E+03  0.70990048703E+03  0.00000000000E+00 0.  1.
         21   -1    0    0  502  503 -0.00000000000E+00 -0.00000000000E+00 -0.11987112721E+03  0.11987112721E+03  0.00000000000E+00 0.  1.
          6    1    1    2  501    0 -0.76886537981E+02  0.71827711254E+01  0.61049675722E+03  0.63921703865E+03  0.17300000000E+03 0.  1.
         -6    1    1    2    0  503  0.76886537981E+02 -0.71827711254E+01 -0.20467397394E+02  0.19055457559E+03  0.17300000000E+03 0.  1.
<mgrwt>
<rscale>  2 0.18945219E+03</rscale>
<asrwt>0</asrwt>
<pdfrwt beam="1">  1       21 0.10921546E+00 0.18945219E+03</pdfrwt>
<pdfrwt beam="2">  1       21 0.18441712E-01 0.18945219E+03</pdfrwt>
<totfact> 0.17874550E+04</totfact>
</mgrwt>
</event>
<event>
 4    1  0.3945814E+000  0.2106870E+03  0.7546771E-02  0.1141023E+00
         21   -1    0    0  501  502  0.00000000000E+00  0.00000000000E+00  0.77508922424E+03  0.77508922424E+03  0.00000000000E+00 0.  1.
         21   -1    0    0  502  503 -0.00000000000E+00 -0.00000000000E+00 -0.58252726868E+02  0.58252726868E+02  0.00000000000E+00 0. -1.
          6    1    1    2  501    0  0.11585121928E+03  0.32225679503E+02  0.41255027276E+03  0.46323506666E+03  0.17300000000E+03 0. -1.
         -6    1    1    2    0  503 -0.11585121928E+03 -0.32225679503E+02  0.30428622461E+03  0.37010688445E+03  0.17300000000E+03 0.  1.
<mgrwt>
<rscale>  2 0.21068697E+03</rscale>
<asrwt>0</asrwt>
<pdfrwt beam="1">  1       21 0.11924449E+00 0.21068697E+03</pdfrwt>
<pdfrwt beam="2">  1       21 0.89619585E-02 0.21068697E+03</pdfrwt>
<totfact> 0.52298686E+04</totfact>
</mgrwt>
</event>
<event>
 4    1  0.3945814E+000  0.1837382E+03  0.7546771E-02  0.1164233E+00
         21   -1    0    0  503  502  0.00000000000E+00  0.00000000000E+00  0.89926680247E+03  0.89926680247E+03  0.00000000000E+00 0. -1.
         21   -1    0    0  501  503 -0.00000000000E+00 -0.00000000000E+00 -0.67852250557E+02  0.67852250557E+02  0.00000000000E+00 0. -1.
          6    1    1    2  501    0 -0.58429371536E+02  0.20413835447E+02  0.92510496179E+02  0.20571316934E+03  0.17300000000E+03 0. -1.
         -6    1    1    2    0  502  0.58429371536E+02 -0.20413835447E+02  0.73890405573E+03  0.76140588369E+03  0.17300000000E+03 0. -1.
<mgrwt>
<rscale>  2 0.18373817E+03</rscale>
<asrwt>0</asrwt>
<pdfrwt beam="1">  1       21 0.13834873E+00 0.18373817E+03</pdfrwt>
<pdfrwt beam="2">  1       21 0.10438808E-01 0.18373817E+03</pdfrwt>
<totfact> 0.27900724E+04</totfact>
</mgrwt>
</event>
<event>
 4    1  0.3945814E+000  0.1760251E+03  0.7546771E-02  0.1171706E+00
         21   -1    0    0  501  502  0.00000000000E+00  0.00000000000E+00  0.24569222054E+03  0.24569222054E+03  0.00000000000E+00 0.  1.
         21   -1    0    0  502  503 -0.00000000000E+00 -0.00000000000E+00 -0.24147404333E+03  0.24147404333E+03  0.00000000000E+00 0.  1.
          6    1    1    2  501    0 -0.30730303861E+02  0.10558985061E+02  0.17047053096E+03  0.24504090611E+03  0.17300000000E+03 0.  1.
         -6    1    1    2    0  503  0.30730303861E+02 -0.10558985061E+02 -0.16625235375E+03  0.24212535776E+03  0.17300000000E+03 0.  1.
<mgrwt>
<rscale>  2 0.17602512E+03</rscale>
<asrwt>0</asrwt>
<pdfrwt beam="1">  1       21 0.37798803E-01 0.17602512E+03</pdfrwt>
<pdfrwt beam="2">  1       21 0.37149853E-01 0.17602512E+03</pdfrwt>
<totfact> 0.47548942E+04</totfact>
</mgrwt>
</event>
<event>
 4    1  0.3945814E+000  0.1903368E+03  0.7546771E-02  0.1158158E+00
         21   -1    0    0  503  502  0.00000000000E+00  0.00000000000E+00  0.30607828342E+03  0.30607828342E+03  0.00000000000E+00 0. -1.
         21   -1    0    0  501  503 -0.00000000000E+00 -0.00000000000E+00 -0.11848215863E+03  0.11848215863E+03  0.00000000000E+00 0. -1.
          6    1    1    2  501    0  0.51945171685E+02  0.60006665905E+02  0.10055248225E+03  0.21526472656E+03  0.17300000000E+03 0. -1.
         -6    1    1    2    0  502 -0.51945171685E+02 -0.60006665905E+02  0.87043642546E+02  0.20929571549E+03  0.17300000000E+03 0. -1.
<mgrwt>
<rscale>  2 0.19033681E+03</rscale>
<asrwt>0</asrwt>
<pdfrwt beam="1">  1       21 0.47088966E-01 0.19033681E+03</pdfrwt>
<pdfrwt beam="2">  1       21 0.18228025E-01 0.19033681E+03</pdfrwt>
<totfact> 0.11847903E+05</totfact>
</mgrwt>
</event>
<event>
 4    1  0.3945814E+000  0.1907043E+03  0.7546771E-02  0.1157828E+00
         21   -1    0    0  503  502  0.00000000000E+00  0.00000000000E+00  0.11850481061E+03  0.11850481061E+03  0.00000000000E+00 0.  1.
         21   -1    0    0  501  503 -0.00000000000E+00 -0.00000000000E+00 -0.37803826985E+03  0.37803826985E+03  0.00000000000E+00 0.  1.
          6    1    1    2  501    0 -0.42252599057E+02 -0.68219240632E+02 -0.23747174620E+03  0.30456686813E+03  0.17300000000E+03 0.  1.
         -6    1    1    2    0  502  0.42252599057E+02  0.68219240632E+02 -0.22061713042E+02  0.19197621233E+03  0.17300000000E+03 0.  1.
<mgrwt>
<rscale>  2 0.19070434E+03</rscale>
<asrwt>0</asrwt>
<pdfrwt beam="1">  1       21 0.18231510E-01 0.19070434E+03</pdfrwt>
<pdfrwt beam="2">  1       21 0.58159733E-01 0.19070434E+03</pdfrwt>
<totfact> 0.76016316E+04</totfact>
</mgrwt>
</event>
<event>
 4    1  0.3945814E+000  0.2524043E+03  0.7546771E-02  0.1111795E+00
         21   -1    0    0  503  502  0.00000000000E+00  0.00000000000E+00  0.21536692464E+03  0.21536692464E+03  0.00000000000E+00 0. -1.
         21   -1    0    0  501  503 -0.00000000000E+00 -0.00000000000E+00 -0.30527654196E+03  0.30527654196E+03  0.00000000000E+00 0.  1.
          6    1    1    2  501    0 -0.18371168296E+03 -0.53790693767E+01 -0.90793818517E+02  0.26823764524E+03  0.17300000000E+03 0.  1.
         -6    1    1    2    0  502  0.18371168296E+03  0.53790693767E+01  0.88420119923E+00  0.25240582136E+03  0.17300000000E+03 0. -1.
<mgrwt>
<rscale>  2 0.25240427E+03</rscale>
<asrwt>0</asrwt>
<pdfrwt beam="1">  1       21 0.33133373E-01 0.25240427E+03</pdfrwt>
<pdfrwt beam="2">  1       21 0.46965621E-01 0.25240427E+03</pdfrwt>
<totfact> 0.36992801E+04</totfact>
</mgrwt>
</event>
<event>
 4    1  0.3945814E+000  0.3104038E+03  0.7546771E-02  0.1080152E+00
         21   -1    0    0  501  502  0.00000000000E+00  0.00000000000E+00  0.26526296730E+03  0.26526296730E+03  0.00000000000E+00 0.  1.
         21   -1    0    0  502  503 -0.00000000000E+00 -0.00000000000E+00 -0.52512658096E+03  0.52512658096E+03  0.00000000000E+00 0. -1.
          6    1    1    2  501    0  0.36239286521E+02 -0.25516317046E+03  0.89501614364E+02  0.32304963771E+03  0.17300000000E+03 0.  1.
         -6    1    1    2    0  503 -0.36239286521E+02  0.25516317046E+03 -0.34936522802E+03  0.46733991055E+03  0.17300000000E+03 0. -1.
<mgrwt>
<rscale>  2 0.31040382E+03</rscale>
<asrwt>0</asrwt>
<pdfrwt beam="1">  1       21 0.40809687E-01 0.31040382E+03</pdfrwt>
<pdfrwt beam="2">  1       21 0.80788704E-01 0.31040382E+03</pdfrwt>
<totfact> 0.72614846E+03</totfact>
</mgrwt>
</event>
<event>
 4    1  0.3945814E+000  0.1779811E+03  0.7546771E-02  0.1169771E+00
         21   -1    0    0  501  502  0.00000000000E+00  0.00000000000E+00  0.30517750406E+03  0.30517750406E+03  0.00000000000E+00 0.  1.
         21   -1    0    0  502  503 -0.00000000000E+00 -0.00000000000E+00 -0.11132935119E+03  0.11132935119E+03  0.00000000000E+00 0.  1.
          6    1    1    2  501    0  0.24690422204E+02  0.33743984916E+02  0.15108429504E+03  0.23346035568E+03  0.17300000000E+03 0.  1.
         -6    1    1    2    0  503 -0.24690422204E+02 -0.33743984916E+02  0.42763857837E+02  0.18304649957E+03  0.17300000000E+03 0.  1.
<mgrwt>
<rscale>  2 0.17798110E+03</rscale>
<asrwt>0</asrwt>
<pdfrwt beam="1">  1       21 0.46950385E-01 0.17798110E+03</pdfrwt>
<pdfrwt beam="2">  1       21 0.17127593E-01 0.17798110E+03</pdfrwt>
<totfact> 0.13427752E+05</totfact>
</mgrwt>
</event>
<event>
 4    1  0.3945814E+000  0.2407200E+03  0.7546771E-02  0.1119314E+00
         21   -1    0    0  501  502  0.00000000000E+00  0.00000000000E+00  0.24944605751E+03  0.24944605751E+03  0.00000000000E+00 0. -1.
         21   -1    0    0  502  503 -0.00000000000E+00 -0.00000000000E+00 -0.24874637788E+03  0.24874637788E+03  0.00000000000E+00 0.  1.
          6    1    1    2  501    0 -0.15751726465E+03  0.56616433599E+02  0.64402179026E+02  0.24918617514E+03  0.17300000000E+03 0. -1.
         -6    1    1    2    0  503  0.15751726465E+03 -0.56616433599E+02 -0.63702499393E+02  0.24900626025E+03  0.17300000000E+03 0.  1.
<mgrwt>
<rscale>  2 0.24071998E+03</rscale>
<asrwt>0</asrwt>
<pdfrwt beam="1">  1       21 0.38376317E-01 0.24071998E+03</pdfrwt>
<pdfrwt beam="2">  1       21 0.38268673E-01 0.24071998E+03</pdfrwt>
<totfact> 0.42150187E+04</totfact>
</mgrwt>
</event>
<event>
 4    1  0.3945814E+000  0.2638519E+03  0.7546771E-02  0.1104851E+00
         21   -1    0    0  501  502  0.00000000000E+00  0.00000000000E+00  0.47008080004E+03  0.47008080004E+03  0.00000000000E+00 0. -1.
         21   -1    0    0  502  503 -0.00000000000E+00 -0.00000000000E+00 -0.36888244850E+03  0.36888244850E+03  0.00000000000E+00 0.  1.
          6    1    1    2  501    0 -0.15342311449E+03 -0.12708337402E+03  0.37512822913E+03  0.45862732616E+03  0.17300000000E+03 0.  1.
         -6    1    1    2    0  503  0.15342311449E+03  0.12708337402E+03 -0.27392987759E+03  0.38033592238E+03  0.17300000000E+03 0.  1.
<mgrwt>
<rscale>  2 0.26385192E+03</rscale>
<asrwt>0</asrwt>
<pdfrwt beam="1">  1       21 0.72320123E-01 0.26385192E+03</pdfrwt>
<pdfrwt beam="2">  1       21 0.56751146E-01 0.26385192E+03</pdfrwt>
<totfact> 0.47916621E+03</totfact>
</mgrwt>
</event>
<event>
 4    1  0.3945814E+000  0.2065646E+03  0.7546771E-02  0.1144316E+00
         21   -1    0    0  503  502  0.00000000000E+00  0.00000000000E+00  0.17295741072E+04  0.17295741072E+04  0.00000000000E+00 0. -1.
         21   -1    0    0  501  503 -0.00000000000E+00 -0.00000000000E+00 -0.26220435763E+02  0.26220435763E+02  0.00000000000E+00 0. -1.
          6    1    1    2  501    0 -0.24408113811E+02  0.11020061371E+03  0.63821351621E+03  0.67080952852E+03  0.17300000000E+03 0. -1.
         -6    1    1    2    0  502  0.24408113811E+02 -0.11020061371E+03  0.10651401552E+04  0.10849850144E+04  0.17300000000E+03 0. -1.
<mgrwt>
<rscale>  2 0.20656459E+03</rscale>
<asrwt>0</asrwt>
<pdfrwt beam="1">  1       21 0.26608824E+00 0.20656459E+03</pdfrwt>
<pdfrwt beam="2">  1       21 0.40339145E-02 0.20656459E+03</pdfrwt>
<totfact> 0.20437666E+04</totfact>
</mgrwt>
</event>
<event>
 4    1  0.3945814E+000  0.2254990E+03  0.7546771E-02  0.1129848E+00
         21   -1    0    0  501  502  0.00000000000E+00  0.00000000000E+00  0.10002854942E+03  0.10002854942E+03  0.00000000000E+00 0.  1.
         21   -1    0    0  502  503 -0.00000000000E+00 -0.00000000000E+00 -0.68136011588E+03  0.68136011588E+03  0.00000000000E+00 0.  1.
          6    1    1    2  501    0 -0.97004223599E+02 -0.10728932729E+03 -0.93795273523E+02  0.24422811567E+03  0.17300000000E+03 0.  1.
         -6    1    1    2    0  503  0.97004223599E+02  0.10728932729E+03 -0.48753629294E+03  0.53716054963E+03  0.17300000000E+03 0.  1.
<mgrwt>
<rscale>  2 0.22549904E+03</rscale>
<asrwt>0</asrwt>
<pdfrwt beam="1">  1       21 0.15389008E-01 0.22549904E+03</pdfrwt>
<pdfrwt beam="2">  1       21 0.10482463E+00 0.22549904E+03</pdfrwt>
<totfact> 0.26958252E+04</totfact>
</mgrwt>
</event>
<event>
 4    1  0.3945814E+000  0.1829157E+03  0.7546771E-02  0.1165011E+00
         21   -1    0    0  503  502  0.00000000000E+00  0.00000000000E+00  0.49245982585E+02  0.49245982585E+02  0.00000000000E+00 0. -1.
         21   -1    0    0  501  503 -0.00000000000E+00 -0.00000000000E+00 -0.85102460592E+03  0.85102460592E+03  0.00000000000E+00 0. -1.
          6    1    1    2  501    0 -0.19675614494E+02 -0.56053881854E+02 -0.60302839968E+03  0.63015983552E+03  0.17300000000E+03 0. -1.
         -6    1    1    2    0  502  0.19675614494E+02  0.56053881854E+02 -0.19875022365E+03  0.27011075298E+03  0.17300000000E+03 0. -1.
<mgrwt>
<rscale>  2 0.18291574E+03</rscale>
<asrwt>0</asrwt>
<pdfrwt beam="1">  1       21 0.75763052E-02 0.18291574E+03</pdfrwt>
<pdfrwt beam="2">  1       21 0.13092686E+00 0.18291574E+03</pdfrwt>
<totfact> 0.56284865E+04</totfact>
</mgrwt>
</event>
<event>
 4    1  0.3945814E+000  0.2484011E+03  0.7546771E-02  0.1114319E+00
         21   -1    0    0  503  502  0.00000000000E+00  0.00000000000E+00  0.46672478919E+03  0.46672478919E+03  0.00000000000E+00 0.  1.
         21   -1    0    0  501  503 -0.00000000000E+00 -0.00000000000E+00 -0.27293813085E+03  0.27293813085E+03  0.00000000000E+00 0.  1.
          6    1    1    2  501    0 -0.62908418978E+02 -0.16678325683E+03 -0.16867156883E+03  0.30025526151E+03  0.17300000000E+03 0.  1.
         -6    1    1    2    0  502  0.62908418978E+02  0.16678325683E+03  0.36245822717E+03  0.43940765853E+03  0.17300000000E+03 0.  1.
<mgrwt>
<rscale>  2 0.24840114E+03</rscale>
<asrwt>0</asrwt>
<pdfrwt beam="1">  1       21 0.71803813E-01 0.24840114E+03</pdfrwt>
<pdfrwt beam="2">  1       21 0.41990482E-01 0.24840114E+03</pdfrwt>
<totfact> 0.92284126E+03</totfact>
</mgrwt>
</event>
<event>
 4    1  0.3945814E+000  0.1954302E+03  0.7546771E-02  0.1153653E+00
         21   -1    0    0  503  502  0.00000000000E+00  0.00000000000E+00  0.10467015474E+04  0.10467015474E+04  0.00000000000E+00 0. -1.
         21   -1    0    0  501  503 -0.00000000000E+00 -0.00000000000E+00 -0.71808161001E+02  0.71808161001E+02  0.00000000000E+00 0. -1.
          6    1    1    2  501    0  0.44474928667E+02  0.79283886257E+02  0.95227479296E+02  0.21739647355E+03  0.17300000000E+03 0. -1.
         -6    1    1    2    0  502 -0.44474928667E+02 -0.79283886257E+02  0.87966590713E+03  0.90111323487E+03  0.17300000000E+03 0. -1.
<mgrwt>
<rscale>  2 0.19543018E+03</rscale>
<asrwt>0</asrwt>
<pdfrwt beam="1">  1       21 0.16103100E+00 0.19543018E+03</pdfrwt>
<pdfrwt beam="2">  1       21 0.11047410E-01 0.19543018E+03</pdfrwt>
<totfact> 0.16790749E+04</totfact>
</mgrwt>
</event>
<event>
 4    1  0.3945814E+000  0.1789194E+03  0.7546771E-02  0.1168853E+00
         21   -1    0    0  501  502  0.00000000000E+00  0.00000000000E+00  0.71990112156E+02  0.71990112156E+02  0.00000000000E+00 0.  1.
         21   -1    0    0  502  503 -0.00000000000E+00 -0.00000000000E+00 -0.49728025586E+03  0.49728025586E+03  0.00000000000E+00 0.  1.
          6    1    1    2  501    0 -0.38098784136E+02  0.25132204600E+02 -0.12006748155E+03  0.21547237685E+03  0.17300000000E+03 0. -1.
         -6    1    1    2    0  503  0.38098784136E+02 -0.25132204600E+02 -0.30522266215E+03  0.35379799117E+03  0.17300000000E+03 0. -1.
<mgrwt>
<rscale>  2 0.17891938E+03</rscale>
<asrwt>0</asrwt>
<pdfrwt beam="1">  1       21 0.11075402E-01 0.17891938E+03</pdfrwt>
<pdfrwt beam="2">  1       21 0.76504655E-01 0.17891938E+03</pdfrwt>
<totfact> 0.10351897E+05</totfact>
</mgrwt>
</event>
<event>
 4    1  0.3945814E+000  0.2517813E+03  0.7546771E-02  0.1112184E+00
         21   -1    0    0  503  502  0.00000000000E+00  0.00000000000E+00  0.12272822730E+04  0.12272822730E+04  0.00000000000E+00 0.  1.
         21   -1    0    0  501  503 -0.00000000000E+00 -0.00000000000E+00 -0.51654706018E+02  0.51654706018E+02  0.00000000000E+00 0. -1.
          6    1    1    2  501    0 -0.14056449788E+03 -0.11707449286E+03  0.58516211274E+03  0.63703101426E+03  0.17300000000E+03 0. -1.
         -6    1    1    2    0  502  0.14056449788E+03  0.11707449286E+03  0.59046545428E+03  0.64190596479E+03  0.17300000000E+03 0.  1.
<mgrwt>
<rscale>  2 0.25178128E+03</rscale>
<asrwt>0</asrwt>
<pdfrwt beam="1">  1       21 0.18881264E+00 0.25178128E+03</pdfrwt>
<pdfrwt beam="2">  1       21 0.79468788E-02 0.25178128E+03</pdfrwt>
<totfact> 0.18528354E+04</totfact>
</mgrwt>
</event>
<event>
 4    1  0.3945814E+000  0.1785484E+03  0.7546771E-02  0.1169215E+00
         21   -1    0    0  501  502  0.00000000000E+00  0.00000000000E+00  0.73468408364E+03  0.73468408364E+03  0.00000000000E+00 0. -1.
         21   -1    0    0  502  503 -0.00000000000E+00 -0.00000000000E+00 -0.44920270568E+02  0.44920270568E+02  0.00000000000E+00 0. -1.
          6    1    1    2  501    0  0.33103597320E+02 -0.29234736615E+02  0.27298624917E+03  0.32619167711E+03  0.17300000000E+03 0. -1.
         -6    1    1    2    0  503 -0.33103597320E+02  0.29234736615E+02  0.41677756390E+03  0.45341267710E+03  0.17300000000E+03 0. -1.
<mgrwt>
<rscale>  2 0.17854836E+03</rscale>
<asrwt>0</asrwt>
<pdfrwt beam="1">  1       21 0.11302831E+00 0.17854836E+03</pdfrwt>
<pdfrwt beam="2">  1       21 0.69108114E-02 0.17854836E+03</pdfrwt>
<totfact> 0.95143655E+04</totfact>
</mgrwt>
</event>
<event>
 4    1  0.3945814E+000  0.1831553E+03  0.7546771E-02  0.1164784E+00
         21   -1    0    0  501  502  0.00000000000E+00  0.00000000000E+00  0.75240466841E+03  0.75240466841E+03  0.00000000000E+00 0.  1.
         21   -1    0    0  502  503 -0.00000000000E+00 -0.00000000000E+00 -0.85070073696E+02  0.85070073696E+02  0.00000000000E+00 0.  1.
          6    1    1    2  501    0 -0.59827625060E+02  0.61259749997E+01  0.62253662140E+03  0.64892042446E+03  0.17300000000E+03 0.  1.
         -6    1    1    2    0  503  0.59827625060E+02 -0.61259749997E+01  0.44797973308E+02  0.18855431764E+03  0.17300000000E+03 0.  1.
<mgrwt>
<rscale>  2 0.18315532E+03</rscale>
<asrwt>0</asrwt>
<pdfrwt beam="1">  1       21 0.11575456E+00 0.18315532E+03</pdfrwt>
<pdfrwt beam="2">  1       21 0.13087704E-01 0.18315532E+03</pdfrwt>
<totfact> 0.29135914E+04</totfact>
</mgrwt>
</event>
<event>
 4    1  0.3945814E+000  0.1749816E+03  0.7546771E-02  0.1172750E+00
         21   -1    0    0  501  502  0.00000000000E+00  0.00000000000E+00  0.72310212415E+02  0.72310212415E+02  0.00000000000E+00 0.  1.
         21   -1    0    0  502  503 -0.00000000000E+00 -0.00000000000E+00 -0.45202665773E+03  0.45202665773E+03  0.00000000000E+00 0.  1.
          6    1    1    2  501    0 -0.21887442849E+02  0.14508112286E+02 -0.25579559375E+03  0.30991923345E+03  0.17300000000E+03 0.  1.
         -6    1    1    2    0  503  0.21887442849E+02 -0.14508112286E+02 -0.12392085157E+03  0.21441763670E+03  0.17300000000E+03 0.  1.
<mgrwt>
<rscale>  2 0.17498156E+03</rscale>
<asrwt>0</asrwt>
<pdfrwt beam="1">  1       21 0.11124648E-01 0.17498156E+03</pdfrwt>
<pdfrwt beam="2">  1       21 0.69542562E-01 0.17498156E+03</pdfrwt>
<totfact> 0.12708370E+05</totfact>
</mgrwt>
</event>
<event>
 4    1  0.3945814E+000  0.2036662E+03  0.7546771E-02  0.1146682E+00
         21   -1    0    0  503  502  0.00000000000E+00  0.00000000000E+00  0.79995205094E+02  0.79995205094E+02  0.00000000000E+00 0. -1.
         21   -1    0    0  501  503 -0.00000000000E+00 -0.00000000000E+00 -0.53663786410E+03  0.53663786410E+03  0.00000000000E+00 0. -1.
          6    1    1    2  501    0 -0.29159435662E+02  0.10344394272E+03 -0.28495680257E+03  0.35025747858E+03  0.17300000000E+03 0. -1.
         -6    1    1    2    0  502  0.29159435662E+02 -0.10344394272E+03 -0.17168585644E+03  0.26637559061E+03  0.17300000000E+03 0. -1.
<mgrwt>
<rscale>  2 0.20366620E+03</rscale>
<asrwt>0</asrwt>
<pdfrwt beam="1">  1       21 0.12306955E-01 0.20366620E+03</pdfrwt>
<pdfrwt beam="2">  1       21 0.82559670E-01 0.20366620E+03</pdfrwt>
<totfact> 0.71461507E+04</totfact>
</mgrwt>
</event>
<event>
 4    1  0.3945814E+000  0.2158369E+03  0.7546771E-02  0.1137025E+00
         21   -1    0    0  501  502  0.00000000000E+00  0.00000000000E+00  0.63098763829E+03  0.63098763829E+03  0.00000000000E+00 0. -1.
         21   -1    0    0  502  503 -0.00000000000E+00 -0.00000000000E+00 -0.17858768424E+03  0.17858768424E+03  0.00000000000E+00 0. -1.
          6    1    1    2  501    0  0.11306334978E+03  0.62235572189E+02  0.53622390374E+03  0.57803257906E+03  0.17300000000E+03 0. -1.
         -6    1    1    2    0  503 -0.11306334978E+03 -0.62235572189E+02 -0.83823949690E+02  0.23154274347E+03  0.17300000000E+03 0. -1.
<mgrwt>
<rscale>  2 0.21583695E+03</rscale>
<asrwt>0</asrwt>
<pdfrwt beam="1">  1       21 0.97075020E-01 0.21583695E+03</pdfrwt>
<pdfrwt beam="2">  1       21 0.27475029E-01 0.21583695E+03</pdfrwt>
<totfact> 0.10954756E+04</totfact>
</mgrwt>
</event>
<event>
 4    1  0.3945814E+000  0.1770918E+03  0.7546771E-02  0.1170648E+00
         21   -1    0    0  503  502  0.00000000000E+00  0.00000000000E+00  0.90529445124E+02  0.90529445124E+02  0.00000000000E+00 0.  1.
         21   -1    0    0  501  503 -0.00000000000E+00 -0.00000000000E+00 -0.19913176037E+04  0.19913176037E+04  0.00000000000E+00 0.  1.
          6    1    1    2  501    0  0.37598618015E+02 -0.43404914756E+01 -0.18964516698E+04  0.19047021898E+04  0.17300000000E+03 0.  1.
         -6    1    1    2    0  502 -0.37598618015E+02  0.43404914756E+01 -0.43364887739E+01  0.17714485902E+03  0.17300000000E+03 0.  1.
<mgrwt>
<rscale>  2 0.17709177E+03</rscale>
<asrwt>0</asrwt>
<pdfrwt beam="1">  1       21 0.13927608E-01 0.17709177E+03</pdfrwt>
<pdfrwt beam="2">  1       21 0.30635654E+00 0.17709177E+03</pdfrwt>
<totfact> 0.14389144E+03</totfact>
</mgrwt>
</event>
<event>
 4    1  0.3945814E+000  0.1754756E+03  0.7546771E-02  0.1172255E+00
         21   -1    0    0  501  502  0.00000000000E+00  0.00000000000E+00  0.27555287159E+03  0.27555287159E+03  0.00000000000E+00 0. -1.
         21   -1    0    0  502  503 -0.00000000000E+00 -0.00000000000E+00 -0.55277586658E+03  0.55277586658E+03  0.00000000000E+00 0. -1.
          6    1    1    2  501    0  0.22704250996E+02  0.18633672723E+02  0.23132962988E+03  0.29035339576E+03  0.17300000000E+03 0. -1.
         -6    1    1    2    0  503 -0.22704250996E+02 -0.18633672723E+02 -0.50855262487E+03  0.53797534240E+03  0.17300000000E+03 0. -1.
<mgrwt>
<rscale>  2 0.17547563E+03</rscale>
<asrwt>0</asrwt>
<pdfrwt beam="1">  1       21 0.42392750E-01 0.17547563E+03</pdfrwt>
<pdfrwt beam="2">  1       21 0.85042440E-01 0.17547563E+03</pdfrwt>
<totfact> 0.64931618E+03</totfact>
</mgrwt>
</event>
<event>
 4    1  0.3945814E+000  0.2146909E+03  0.7546771E-02  0.1137904E+00
         21   -1    0    0  501  502  0.00000000000E+00  0.00000000000E+00  0.22170531137E+04  0.22170531137E+04  0.00000000000E+00 0. -1.
         21   -1    0    0  502  503 -0.00000000000E+00 -0.00000000000E+00 -0.25213070664E+02  0.25213070664E+02  0.00000000000E+00 0. -1.
          6    1    1    2  501    0 -0.10073118542E+03 -0.77565570034E+02  0.15655046548E+04  0.15801572749E+04  0.17300000000E+03 0. -1.
         -6    1    1    2    0  503  0.10073118542E+03  0.77565570034E+02  0.62633538823E+03  0.66210890941E+03  0.17300000000E+03 0. -1.
<mgrwt>
<rscale>  2 0.21469092E+03</rscale>
<asrwt>0</asrwt>
<pdfrwt beam="1">  1       21 0.34108494E+00 0.21469092E+03</pdfrwt>
<pdfrwt beam="2">  1       21 0.38789357E-02 0.21469092E+03</pdfrwt>
<totfact> 0.79375591E+03</totfact>
</mgrwt>
</event>
<event>
 4    1  0.3945814E+000  0.1925089E+03  0.7546771E-02  0.1156218E+00
         21   -1    0    0  503  502  0.00000000000E+00  0.00000000000E+00  0.23291059875E+03  0.23291059875E+03  0.00000000000E+00 0. -1.
         21   -1    0    0  501  503 -0.00000000000E+00 -0.00000000000E+00 -0.16104072678E+03  0.16104072678E+03  0.00000000000E+00 0. -1.
          6    1    1    2  501    0  0.80774362560E+02 -0.24621091832E+02  0.57471731678E+02  0.20090469321E+03  0.17300000000E+03 0. -1.
         -6    1    1    2    0  502 -0.80774362560E+02  0.24621091832E+02  0.14398140290E+02  0.19304663233E+03  0.17300000000E+03 0. -1.
<mgrwt>
<rscale>  2 0.19250895E+03</rscale>
<asrwt>0</asrwt>
<pdfrwt beam="1">  1       21 0.35832400E-01 0.19250895E+03</pdfrwt>
<pdfrwt beam="2">  1       21 0.24775497E-01 0.19250895E+03</pdfrwt>
<totfact> 0.11574308E+05</totfact>
</mgrwt>
</event>
<event>
 4    1  0.3945814E+000  0.3025748E+03  0.7546771E-02  0.1083961E+00
         21   -1    0    0  501  502  0.00000000000E+00  0.00000000000E+00  0.17534254691E+03  0.17534254691E+03  0.00000000000E+00 0. -1.
         21   -1    0    0  502  503 -0.00000000000E+00 -0.00000000000E+00 -0.61853274497E+03  0.61853274497E+03  0.00000000000E+00 0.  1.
          6    1    1    2  501    0 -0.13253399849E+03  0.20989817631E+03 -0.64888634846E+02  0.30945442331E+03  0.17300000000E+03 0. -1.
         -6    1    1    2    0  503  0.13253399849E+03 -0.20989817631E+03 -0.37830156321E+03  0.48442086857E+03  0.17300000000E+03 0.  1.
<mgrwt>
<rscale>  2 0.30257479E+03</rscale>
<asrwt>0</asrwt>
<pdfrwt beam="1">  1       21 0.26975776E-01 0.30257479E+03</pdfrwt>
<pdfrwt beam="2">  1       21 0.95158885E-01 0.30257479E+03</pdfrwt>
<totfact> 0.11361212E+04</totfact>
</mgrwt>
</event>
<event>
 4    1  0.3945814E+000  0.2035640E+03  0.7546771E-02  0.1146766E+00
         21   -1    0    0  503  502  0.00000000000E+00  0.00000000000E+00  0.74851603525E+02  0.74851603525E+02  0.00000000000E+00 0.  1.
         21   -1    0    0  501  503 -0.00000000000E+00 -0.00000000000E+00 -0.56883226219E+03  0.56883226219E+03  0.00000000000E+00 0. -1.
          6    1    1    2  501    0 -0.79426641027E+02  0.72116031536E+02 -0.29964586414E+03  0.36225123493E+03  0.17300000000E+03 0.  1.
         -6    1    1    2    0  502  0.79426641027E+02 -0.72116031536E+02 -0.19433479453E+03  0.28143263079E+03  0.17300000000E+03 0. -1.
<mgrwt>
<rscale>  2 0.20356403E+03</rscale>
<asrwt>0</asrwt>
<pdfrwt beam="1">  1       21 0.11515632E-01 0.20356403E+03</pdfrwt>
<pdfrwt beam="2">  1       21 0.87512653E-01 0.20356403E+03</pdfrwt>
<totfact> 0.70435493E+04</totfact>
</mgrwt>
</event>
<event>
 4    1  0.3945814E+000  0.2163110E+03  0.7546771E-02  0.1136664E+00
         21   -1    0    0  501  502  0.00000000000E+00  0.00000000000E+00  0.59653373985E+02  0.59653373985E+02  0.00000000000E+00 0. -1.
         21   -1    0    0  502  503 -0.00000000000E+00 -0.00000000000E+00 -0.83572598650E+03  0.83572598650E+03  0.00000000000E+00 0. -1.
          6    1    1    2  501    0  0.12949281990E+03 -0.96459759537E+01 -0.27705948460E+03  0.35150020379E+03  0.17300000000E+03 0. -1.
         -6    1    1    2    0  503 -0.12949281990E+03  0.96459759537E+01 -0.49901312791E+03  0.54387915669E+03  0.17300000000E+03 0. -1.
<mgrwt>
<rscale>  2 0.21631097E+03</rscale>
<asrwt>0</asrwt>
<pdfrwt beam="1">  1       21 0.91774419E-02 0.21631097E+03</pdfrwt>
<pdfrwt beam="2">  1       21 0.12857323E+00 0.21631097E+03</pdfrwt>
<totfact> 0.41409272E+04</totfact>
</mgrwt>
</event>
<event>
 4    1  0.3945814E+000  0.2116989E+03  0.7546771E-02  0.1140228E+00
         21   -1    0    0  503  502  0.00000000000E+00  0.00000000000E+00  0.14449399823E+04  0.14449399823E+04  0.00000000000E+00 0. -1.
         21   -1    0    0  501  503 -0.00000000000E+00 -0.00000000000E+00 -0.46319993838E+02  0.46319993838E+02  0.00000000000E+00 0. -1.
          6    1    1    2  501    0  0.11053273949E+03 -0.51671642245E+02  0.27072231864E+03  0.34366701750E+03  0.17300000000E+03 0. -1.
         -6    1    1    2    0  502 -0.11053273949E+03  0.51671642245E+02  0.11278976698E+04  0.11475929586E+04  0.17300000000E+03 0. -1.
<mgrwt>
<rscale>  2 0.21169895E+03</rscale>
<asrwt>0</asrwt>
<pdfrwt beam="1">  1       21 0.22229842E+00 0.21169895E+03</pdfrwt>
<pdfrwt beam="2">  1       21 0.71261540E-02 0.21169895E+03</pdfrwt>
<totfact> 0.14060472E+04</totfact>
</mgrwt>
</event>
<event>
 4    1  0.3945814E+000  0.1875128E+03  0.7546771E-02  0.1160724E+00
         21   -1    0    0  501  502  0.00000000000E+00  0.00000000000E+00  0.14030874153E+04  0.14030874153E+04  0.00000000000E+00 0. -1.
         21   -1    0    0  502  503 -0.00000000000E+00 -0.00000000000E+00 -0.39967135306E+02  0.39967135306E+02  0.00000000000E+00 0. -1.
          6    1    1    2  501    0 -0.44171727723E+01  0.72197890456E+02  0.11222181828E+04  0.11377762067E+04  0.17300000000E+03 0. -1.
         -6    1    1    2    0  503  0.44171727723E+01 -0.72197890456E+02  0.24090209717E+03  0.30527834385E+03  0.17300000000E+03 0. -1.
<mgrwt>
<rscale>  2 0.18751279E+03</rscale>
<asrwt>0</asrwt>
<pdfrwt beam="1">  1       21 0.21585956E+00 0.18751279E+03</pdfrwt>
<pdfrwt beam="2">  1       21 0.61487911E-02 0.18751279E+03</pdfrwt>
<totfact> 0.20254582E+04</totfact>
</mgrwt>
</event>
<event>
 4    1  0.3945814E+000  0.2451935E+03  0.7546771E-02  0.1116381E+00
         21   -1    0    0  503  502  0.00000000000E+00  0.00000000000E+00  0.10217226586E+03  0.10217226586E+03  0.00000000000E+00 0. -1.
         21   -1    0    0  501  503 -0.00000000000E+00 -0.00000000000E+00 -0.60239125951E+03  0.60239125951E+03  0.00000000000E+00 0.  1.
          6    1    1    2  501    0  0.85245049748E+02 -0.15140717831E+03 -0.30376598311E+03  0.39037626035E+03  0.17300000000E+03 0.  1.
         -6    1    1    2    0  502 -0.85245049748E+02  0.15140717831E+03 -0.19645301054E+03  0.31418726502E+03  0.17300000000E+03 0. -1.
<mgrwt>
<rscale>  2 0.24519350E+03</rscale>
<asrwt>0</asrwt>
<pdfrwt beam="1">  1       21 0.15718810E-01 0.24519350E+03</pdfrwt>
<pdfrwt beam="2">  1       21 0.92675577E-01 0.24519350E+03</pdfrwt>
<totfact> 0.34422197E+04</totfact>
</mgrwt>
</event>
<event>
 4    1  0.3945814E+000  0.2512843E+03  0.7546771E-02  0.1112496E+00
         21   -1    0    0  503  502  0.00000000000E+00  0.00000000000E+00  0.34001913162E+03  0.34001913162E+03  0.00000000000E+00 0.  1.
         21   -1    0    0  501  503 -0.00000000000E+00 -0.00000000000E+00 -0.24191941334E+03  0.24191941334E+03  0.00000000000E+00 0. -1.
          6    1    1    2  501    0 -0.17960905279E+03 -0.30909235920E+02 -0.91208733159E+02  0.26732531813E+03  0.17300000000E+03 0.  1.
         -6    1    1    2    0  502  0.17960905279E+03  0.30909235920E+02  0.18930845143E+03  0.31461322683E+03  0.17300000000E+03 0.  1.
<mgrwt>
<rscale>  2 0.25128429E+03</rscale>
<asrwt>0</asrwt>
<pdfrwt beam="1">  1       21 0.52310636E-01 0.25128429E+03</pdfrwt>
<pdfrwt beam="2">  1       21 0.37218371E-01 0.25128429E+03</pdfrwt>
<totfact> 0.23403804E+04</totfact>
</mgrwt>
</event>
<event>
 4    1  0.3945814E+000  0.1996361E+03  0.7546771E-02  0.1150046E+00
         21   -1    0    0  501  502  0.00000000000E+00  0.00000000000E+00  0.73259669216E+02  0.73259669216E+02  0.00000000000E+00 0.  1.
         21   -1    0    0  502  503 -0.00000000000E+00 -0.00000000000E+00 -0.92869171705E+03  0.92869171705E+03  0.00000000000E+00 0.  1.
          6    1    1    2  501    0  0.99572311577E+02 -0.33074775407E+01 -0.75013981506E+03  0.77625017022E+03  0.17300000000E+03 0.  1.
         -6    1    1    2    0  503 -0.99572311577E+02  0.33074775407E+01 -0.10529223278E+03  0.22570121605E+03  0.17300000000E+03 0.  1.
<mgrwt>
<rscale>  2 0.19963613E+03</rscale>
<asrwt>0</asrwt>
<pdfrwt beam="1">  1       21 0.11270718E-01 0.19963613E+03</pdfrwt>
<pdfrwt beam="2">  1       21 0.14287565E+00 0.19963613E+03</pdfrwt>
<totfact> 0.22177879E+04</totfact>
</mgrwt>
</event>
<event>
 4    1  0.3945814E+000  0.2739093E+03  0.7546771E-02  0.1099063E+00
         21   -1    0    0  503  502  0.00000000000E+00  0.00000000000E+00  0.29758940851E+03  0.29758940851E+03  0.00000000000E+00 0.  1.
         21   -1    0    0  501  503 -0.00000000000E+00 -0.00000000000E+00 -0.54822267776E+03  0.54822267776E+03  0.00000000000E+00 0. -1.
          6    1    1    2  501    0  0.21230066925E+03 -0.50701307130E+01 -0.43612406541E+03  0.51500532116E+03  0.17300000000E+03 0. -1.
         -6    1    1    2    0  502 -0.21230066925E+03  0.50701307130E+01  0.18549079616E+03  0.33080676512E+03  0.17300000000E+03 0.  1.
<mgrwt>
<rscale>  2 0.27390926E+03</rscale>
<asrwt>0</asrwt>
<pdfrwt beam="1">  1       21 0.45782986E-01 0.27390926E+03</pdfrwt>
<pdfrwt beam="2">  1       21 0.84341951E-01 0.27390926E+03</pdfrwt>
<totfact> 0.52849830E+03</totfact>
</mgrwt>
</event>
<event>
 4    1  0.3945814E+000  0.2060191E+03  0.7546771E-02  0.1144758E+00
         21   -1    0    0  501  502  0.00000000000E+00  0.00000000000E+00  0.51829415313E+03  0.51829415313E+03  0.00000000000E+00 0.  1.
         21   -1    0    0  502  503 -0.00000000000E+00 -0.00000000000E+00 -0.89357868263E+02  0.89357868263E+02  0.00000000000E+00 0.  1.
          6    1    1    2  501    0 -0.59336126918E+02 -0.94837106445E+02  0.12664376045E+03  0.24183154215E+03  0.17300000000E+03 0.  1.
         -6    1    1    2    0  503  0.59336126918E+02  0.94837106445E+02  0.30229252442E+03  0.36582047925E+03  0.17300000000E+03 0.  1.
<mgrwt>
<rscale>  2 0.20601906E+03</rscale>
<asrwt>0</asrwt>
<pdfrwt beam="1">  1       21 0.79737560E-01 0.20601906E+03</pdfrwt>
<pdfrwt beam="2">  1       21 0.13747365E-01 0.20601906E+03</pdfrwt>
<totfact> 0.63274775E+04</totfact>
</mgrwt>
</event>
<event>
 4    1  0.3945814E+000  0.2303830E+03  0.7546771E-02  0.1126370E+00
         21   -1    0    0  503  502  0.00000000000E+00  0.00000000000E+00  0.45267257484E+03  0.45267257484E+03  0.00000000000E+00 0.  1.
         21   -1    0    0  501  503 -0.00000000000E+00 -0.00000000000E+00 -0.11768249348E+03  0.11768249348E+03  0.00000000000E+00 0.  1.
          6    1    1    2  501    0  0.14944981832E+03 -0.28497072848E+02  0.18476236545E+03  0.29531925613E+03  0.17300000000E+03 0.  1.
         -6    1    1    2    0  502 -0.14944981832E+03  0.28497072848E+02  0.15022771591E+03  0.27503581218E+03  0.17300000000E+03 0.  1.
<mgrwt>
<rscale>  2 0.23038301E+03</rscale>
<asrwt>0</asrwt>
<pdfrwt beam="1">  1       21 0.69641934E-01 0.23038301E+03</pdfrwt>
<pdfrwt beam="2">  1       21 0.18104999E-01 0.23038301E+03</pdfrwt>
<totfact> 0.51139547E+04</totfact>
</mgrwt>
</event>
<event>
 4    1  0.3945814E+000  0.2175555E+03  0.7546771E-02  0.1135719E+00
         21   -1    0    0  501  502  0.00000000000E+00  0.00000000000E+00  0.79274926094E+03  0.79274926094E+03  0.00000000000E+00 0.  1.
         21   -1    0    0  502  503 -0.00000000000E+00 -0.00000000000E+00 -0.36166551164E+03  0.36166551164E+03  0.00000000000E+00 0. -1.
          6    1    1    2  501    0 -0.12205112509E+03 -0.50049075300E+02  0.74295878444E+03  0.77415640697E+03  0.17300000000E+03 0.  1.
         -6    1    1    2    0  503  0.12205112509E+03  0.50049075300E+02 -0.31187503514E+03  0.38025836561E+03  0.17300000000E+03 0. -1.
<mgrwt>
<rscale>  2 0.21755548E+03</rscale>
<asrwt>0</asrwt>
<pdfrwt beam="1">  1       21 0.12196142E+00 0.21755548E+03</pdfrwt>
<pdfrwt beam="2">  1       21 0.55640848E-01 0.21755548E+03</pdfrwt>
<totfact> 0.15085804E+03</totfact>
</mgrwt>
</event>
<event>
 4    1  0.3945814E+000  0.1871837E+03  0.7546771E-02  0.1161026E+00
         21   -1    0    0  501  502  0.00000000000E+00  0.00000000000E+00  0.20863099068E+03  0.20863099068E+03  0.00000000000E+00 0. -1.
         21   -1    0    0  502  503 -0.00000000000E+00 -0.00000000000E+00 -0.23621149436E+03  0.23621149436E+03  0.00000000000E+00 0. -1.
          6    1    1    2  501    0  0.41112172325E+02  0.58468265019E+02  0.10578505042E+03  0.21500750131E+03  0.17300000000E+03 0. -1.
         -6    1    1    2    0  503 -0.41112172325E+02 -0.58468265019E+02 -0.13336555410E+03  0.22983498374E+03  0.17300000000E+03 0. -1.
<mgrwt>
<rscale>  2 0.18718373E+03</rscale>
<asrwt>0</asrwt>
<pdfrwt beam="1">  1       21 0.32097075E-01 0.18718373E+03</pdfrwt>
<pdfrwt beam="2">  1       21 0.36340230E-01 0.18718373E+03</pdfrwt>
<totfact> 0.68339465E+04</totfact>
</mgrwt>
</event>
<event>
 4    1  0.3945814E+000  0.2461167E+03  0.7546771E-02  0.1115784E+00
         21   -1    0    0  503  502  0.00000000000E+00  0.00000000000E+00  0.18299370178E+03  0.18299370178E+03  0.00000000000E+00 0.  1.
         21   -1    0    0  501  503 -0.00000000000E+00 -0.00000000000E+00 -0.13447617685E+04  0.13447617685E+04  0.00000000000E+00 0.  1.
          6    1    1    2  501    0  0.65727622746E+02 -0.16224764232E+03 -0.12441171450E+04  0.12682274592E+04  0.17300000000E+03 0.  1.
         -6    1    1    2    0  502 -0.65727622746E+02  0.16224764232E+03  0.82349078291E+02  0.25952801106E+03  0.17300000000E+03 0.  1.
<mgrwt>
<rscale>  2 0.24611668E+03</rscale>
<asrwt>0</asrwt>
<pdfrwt beam="1">  1       21 0.28152877E-01 0.24611668E+03</pdfrwt>
<pdfrwt beam="2">  1       21 0.20688643E+00 0.24611668E+03</pdfrwt>
<totfact> 0.13883143E+03</totfact>
</mgrwt>
</event>
<event>
 4    1  0.3945814E+000  0.2017153E+03  0.7546771E-02  0.1148300E+00
         21   -1    0    0  501  502  0.00000000000E+00  0.00000000000E+00  0.30455815650E+02  0.30455815650E+02  0.00000000000E+00 0.  1.
         21   -1    0    0  502  503 -0.00000000000E+00 -0.00000000000E+00 -0.20078779041E+04  0.20078779041E+04  0.00000000000E+00 0. -1.
          6    1    1    2  501    0  0.77604661008E+02 -0.68830095337E+02 -0.39916082307E+03  0.44723419828E+03  0.17300000000E+03 0.  1.
         -6    1    1    2    0  503 -0.77604661008E+02  0.68830095337E+02 -0.15782612654E+04  0.15910995215E+04  0.17300000000E+03 0. -1.
<mgrwt>
<rscale>  2 0.20171531E+03</rscale>
<asrwt>0</asrwt>
<pdfrwt beam="1">  1       21 0.46855109E-02 0.20171531E+03</pdfrwt>
<pdfrwt beam="2">  1       21 0.30890424E+00 0.20171531E+03</pdfrwt>
<totfact> 0.90182124E+03</totfact>
</mgrwt>
</event>
<event>
 4    1  0.3945814E+000  0.1966678E+03  0.7546771E-02  0.1152581E+00
         21   -1    0    0  503  502  0.00000000000E+00  0.00000000000E+00  0.39599179314E+03  0.39599179314E+03  0.00000000000E+00 0. -1.
         21   -1    0    0  501  503 -0.00000000000E+00 -0.00000000000E+00 -0.10204036309E+03  0.10204036309E+03  0.00000000000E+00 0. -1.
          6    1    1    2  501    0 -0.59069143556E+02  0.72526385023E+02  0.19848481989E+03  0.27941808097E+03  0.17300000000E+03 0. -1.
         -6    1    1    2    0  502  0.59069143556E+02 -0.72526385023E+02  0.95466610164E+02  0.21861407526E+03  0.17300000000E+03 0. -1.
<mgrwt>
<rscale>  2 0.19666784E+03</rscale>
<asrwt>0</asrwt>
<pdfrwt beam="1">  1       21 0.60921814E-01 0.19666784E+03</pdfrwt>
<pdfrwt beam="2">  1       21 0.15698518E-01 0.19666784E+03</pdfrwt>
<totfact> 0.90381869E+04</totfact>
</mgrwt>
</event>
<event>
 4    1  0.3945814E+000  0.2072815E+03  0.7546771E-02  0.1143737E+00
         21   -1    0    0  503  502  0.00000000000E+00  0.00000000000E+00  0.48166510836E+02  0.48166510836E+02  0.00000000000E+00 0.  1.
         21   -1    0    0  501  503 -0.00000000000E+00 -0.00000000000E+00 -0.90844501596E+03  0.90844501596E+03  0.00000000000E+00 0.  1.
          6    1    1    2  501    0 -0.76758338097E+02  0.84526683189E+02 -0.49444925790E+03  0.53613960054E+03  0.17300000000E+03 0.  1.
         -6    1    1    2    0  502  0.76758338097E+02 -0.84526683189E+02 -0.36582924723E+03  0.42047192625E+03  0.17300000000E+03 0.  1.
<mgrwt>
<rscale>  2 0.20728146E+03</rscale>
<asrwt>0</asrwt>
<pdfrwt beam="1">  1       21 0.74102321E-02 0.20728146E+03</pdfrwt>
<pdfrwt beam="2">  1       21 0.13976078E+00 0.20728146E+03</pdfrwt>
<totfact> 0.48868571E+04</totfact>
</mgrwt>
</event>
<event>
 4    1  0.3945814E+000  0.1772400E+03  0.7546771E-02  0.1170501E+00
         21   -1    0    0  501  502  0.00000000000E+00  0.00000000000E+00  0.62739444566E+03  0.62739444566E+03  0.00000000000E+00 0. -1.
         21   -1    0    0  502  503 -0.00000000000E+00 -0.00000000000E+00 -0.71756870781E+02  0.71756870781E+02  0.00000000000E+00 0. -1.
          6    1    1    2  501    0 -0.23179474554E+02 -0.30785387453E+02  0.46999591079E+03  0.50230487185E+03  0.17300000000E+03 0. -1.
         -6    1    1    2    0  503  0.23179474554E+02  0.30785387453E+02  0.85641664088E+02  0.19684644459E+03  0.17300000000E+03 0. -1.
<mgrwt>
<rscale>  2 0.17724003E+03</rscale>
<asrwt>0</asrwt>
<pdfrwt beam="1">  1       21 0.96522219E-01 0.17724003E+03</pdfrwt>
<pdfrwt beam="2">  1       21 0.11039519E-01 0.17724003E+03</pdfrwt>
<totfact> 0.61218256E+04</totfact>
</mgrwt>
</event>
<event>
 4    1  0.3945814E+000  0.2028157E+03  0.7546771E-02  0.1147385E+00
         21   -1    0    0  501  502  0.00000000000E+00  0.00000000000E+00  0.14855846175E+03  0.14855846175E+03  0.00000000000E+00 0. -1.
         21   -1    0    0  502  503 -0.00000000000E+00 -0.00000000000E+00 -0.41616529280E+03  0.41616529280E+03  0.00000000000E+00 0. -1.
          6    1    1    2  501    0  0.49063118252E+02  0.93797663147E+02  0.29543848350E+02  0.20495616644E+03  0.17300000000E+03 0. -1.
         -6    1    1    2    0  503 -0.49063118252E+02 -0.93797663147E+02 -0.29715067940E+03  0.35976758811E+03  0.17300000000E+03 0. -1.
<mgrwt>
<rscale>  2 0.20281566E+03</rscale>
<asrwt>0</asrwt>
<pdfrwt beam="1">  1       21 0.22855148E-01 0.20281566E+03</pdfrwt>
<pdfrwt beam="2">  1       21 0.64025430E-01 0.20281566E+03</pdfrwt>
<totfact> 0.40241966E+04</totfact>
</mgrwt>
</event>
<event>
 4    1  0.3945814E+000  0.2089969E+03  0.7546771E-02  0.1142363E+00
         21   -1    0    0  501  502  0.00000000000E+00  0.00000000000E+00  0.13182151163E+03  0.13182151163E+03  0.00000000000E+00 0. -1.
         21   -1    0    0  502  503 -0.00000000000E+00 -0.00000000000E+00 -0.58665127352E+03  0.58665127352E+03  0.00000000000E+00 0. -1.
          6    1    1    2  501    0  0.11261519377E+02 -0.11672137383E+03  0.95656450472E+01  0.20921568415E+03  0.17300000000E+03 0. -1.
         -6    1    1    2    0  503 -0.11261519377E+02  0.11672137383E+03 -0.46439540694E+03  0.50925710100E+03  0.17300000000E+03 0. -1.
<mgrwt>
<rscale>  2 0.20899689E+03</rscale>
<asrwt>0</asrwt>
<pdfrwt beam="1">  1       21 0.20280233E-01 0.20899689E+03</pdfrwt>
<pdfrwt beam="2">  1       21 0.90254042E-01 0.20899689E+03</pdfrwt>
<totfact> 0.23248646E+04</totfact>
</mgrwt>
</event>
<event>
 4    1  0.3945814E+000  0.1974470E+03  0.7546771E-02  0.1151911E+00
         21   -1    0    0  501  502  0.00000000000E+00  0.00000000000E+00  0.17337263553E+04  0.17337263553E+04  0.00000000000E+00 0. -1.
         21   -1    0    0  502  503 -0.00000000000E+00 -0.00000000000E+00 -0.68075189433E+02  0.68075189433E+02  0.00000000000E+00 0. -1.
          6    1    1    2  501    0 -0.93252598207E+02  0.18980389586E+02  0.15700699377E+04  0.15824363847E+04  0.17300000000E+03 0. -1.
         -6    1    1    2    0  503  0.93252598207E+02 -0.18980389586E+02  0.95581228126E+02  0.21936516002E+03  0.17300000000E+03 0. -1.
<mgrwt>
<rscale>  2 0.19744696E+03</rscale>
<asrwt>0</asrwt>
<pdfrwt beam="1">  1       21 0.26672710E+00 0.19744696E+03</pdfrwt>
<pdfrwt beam="2">  1       21 0.10473107E-01 0.19744696E+03</pdfrwt>
<totfact> 0.39499316E+03</totfact>
</mgrwt>
</event>
<event>
 4    1  0.3945814E+000  0.1766906E+03  0.7546771E-02  0.1171045E+00
         21   -1    0    0  503  502  0.00000000000E+00  0.00000000000E+00  0.91598102704E+03  0.91598102704E+03  0.00000000000E+00 0. -1.
         21   -1    0    0  501  503 -0.00000000000E+00 -0.00000000000E+00 -0.36315727921E+02  0.36315727921E+02  0.00000000000E+00 0. -1.
          6    1    1    2  501    0  0.17828163623E+02 -0.31188415557E+02  0.55789020631E+03  0.58520171136E+03  0.17300000000E+03 0. -1.
         -6    1    1    2    0  502 -0.17828163623E+02  0.31188415557E+02  0.32177509281E+03  0.36709504360E+03  0.17300000000E+03 0. -1.
<mgrwt>
<rscale>  2 0.17669058E+03</rscale>
<asrwt>0</asrwt>
<pdfrwt beam="1">  1       21 0.14092014E+00 0.17669058E+03</pdfrwt>
<pdfrwt beam="2">  1       21 0.55870358E-02 0.17669058E+03</pdfrwt>
<totfact> 0.78978508E+04</totfact>
</mgrwt>
</event>
<event>
 4    1  0.3945814E+000  0.2998952E+03  0.7546771E-02  0.1085293E+00
         21   -1    0    0  503  502  0.00000000000E+00  0.00000000000E+00  0.13198679926E+04  0.13198679926E+04  0.00000000000E+00 0.  1.
         21   -1    0    0  501  503 -0.00000000000E+00 -0.00000000000E+00 -0.70975751377E+02  0.70975751377E+02  0.00000000000E+00 0. -1.
          6    1    1    2  501    0  0.87766284842E+02 -0.22870332892E+03  0.76342549065E+03  0.82021680864E+03  0.17300000000E+03 0. -1.
         -6    1    1    2    0  502 -0.87766284842E+02  0.22870332892E+03  0.48546675059E+03  0.57062693535E+03  0.17300000000E+03 0.  1.
<mgrwt>
<rscale>  2 0.29989520E+03</rscale>
<asrwt>0</asrwt>
<pdfrwt beam="1">  1       21 0.20305660E+00 0.29989520E+03</pdfrwt>
<pdfrwt beam="2">  1       21 0.10919347E-01 0.29989520E+03</pdfrwt>
<totfact> 0.82636779E+03</totfact>
</mgrwt>
</event>
<event>
 4    1  0.3945814E+000  0.3704426E+03  0.7546771E-02  0.1054524E+00
         21   -1    0    0  503  502  0.00000000000E+00  0.00000000000E+00  0.32125259711E+03  0.32125259711E+03  0.00000000000E+00 0. -1.
         21   -1    0    0  501  503 -0.00000000000E+00 -0.00000000000E+00 -0.43695268727E+03  0.43695268727E+03  0.00000000000E+00 0.  1.
          6    1    1    2  501    0  0.22484555000E+03  0.23820838038E+03 -0.11103016280E+01  0.37044430972E+03  0.17300000000E+03 0.  1.
         -6    1    1    2    0  502 -0.22484555000E+03 -0.23820838038E+03 -0.11458978853E+03  0.38776097466E+03  0.17300000000E+03 0. -1.
<mgrwt>
<rscale>  2 0.37044265E+03</rscale>
<asrwt>0</asrwt>
<pdfrwt beam="1">  1       21 0.49423476E-01 0.37044265E+03</pdfrwt>
<pdfrwt beam="2">  1       21 0.67223490E-01 0.37044265E+03</pdfrwt>
<totfact> 0.71991905E+03</totfact>
</mgrwt>
</event>
<event>
 4    1  0.3945814E+000  0.1887872E+03  0.7546771E-02  0.1159560E+00
         21   -1    0    0  501  502  0.00000000000E+00  0.00000000000E+00  0.12767210137E+04  0.12767210137E+04  0.00000000000E+00 0. -1.
         21   -1    0    0  502  503 -0.00000000000E+00 -0.00000000000E+00 -0.30674061838E+02  0.30674061838E+02  0.00000000000E+00 0. -1.
          6    1    1    2  501    0 -0.37383236750E+02 -0.65681829584E+02  0.42699740153E+03  0.46686977846E+03  0.17300000000E+03 0. -1.
         -6    1    1    2    0  503  0.37383236750E+02  0.65681829584E+02  0.81904955036E+03  0.84052529710E+03  0.17300000000E+03 0. -1.
<mgrwt>
<rscale>  2 0.18878721E+03</rscale>
<asrwt>0</asrwt>
<pdfrwt beam="1">  1       21 0.19641858E+00 0.18878721E+03</pdfrwt>
<pdfrwt beam="2">  1       21 0.47190874E-02 0.18878721E+03</pdfrwt>
<totfact> 0.42115711E+04</totfact>
</mgrwt>
</event>
<event>
 4    1  0.3945814E+000  0.1921871E+03  0.7546771E-02  0.1156503E+00
         21   -1    0    0  503  502  0.00000000000E+00  0.00000000000E+00  0.93038945458E+02  0.93038945458E+02  0.00000000000E+00 0.  1.
         21   -1    0    0  501  503 -0.00000000000E+00 -0.00000000000E+00 -0.99356896505E+03  0.99356896505E+03  0.00000000000E+00 0.  1.
          6    1    1    2  501    0 -0.41634597134E+00  0.83706184775E+02 -0.87125947615E+03  0.89220455810E+03  0.17300000000E+03 0.  1.
         -6    1    1    2    0  502  0.41634597134E+00 -0.83706184775E+02 -0.29270543441E+02  0.19440335241E+03  0.17300000000E+03 0.  1.
<mgrwt>
<rscale>  2 0.19218715E+03</rscale>
<asrwt>0</asrwt>
<pdfrwt beam="1">  1       21 0.14313685E-01 0.19218715E+03</pdfrwt>
<pdfrwt beam="2">  1       21 0.15285676E+00 0.19218715E+03</pdfrwt>
<totfact> 0.12151754E+04</totfact>
</mgrwt>
</event>
<event>
 4    1  0.3945814E+000  0.2636154E+03  0.7546771E-02  0.1104990E+00
         21   -1    0    0  503  502  0.00000000000E+00  0.00000000000E+00  0.13716394728E+04  0.13716394728E+04  0.00000000000E+00 0. -1.
         21   -1    0    0  501  503 -0.00000000000E+00 -0.00000000000E+00 -0.62328554347E+02  0.62328554347E+02  0.00000000000E+00 0.  1.
          6    1    1    2  501    0 -0.11349848956E+03  0.16334671774E+03  0.34448834845E+03  0.43378022032E+03  0.17300000000E+03 0.  1.
         -6    1    1    2    0  502  0.11349848956E+03 -0.16334671774E+03  0.96482257000E+03  0.10001878068E+04  0.17300000000E+03 0. -1.
<mgrwt>
<rscale>  2 0.26361536E+03</rscale>
<asrwt>0</asrwt>
<pdfrwt beam="1">  1       21 0.21102143E+00 0.26361536E+03</pdfrwt>
<pdfrwt beam="2">  1       21 0.95890094E-02 0.26361536E+03</pdfrwt>
<totfact> 0.94677554E+03</totfact>
</mgrwt>
</event>
<event>
 4    1  0.3945814E+000  0.2099203E+03  0.7546771E-02  0.1141629E+00
         21   -1    0    0  503  502  0.00000000000E+00  0.00000000000E+00  0.87184777009E+03  0.87184777009E+03  0.00000000000E+00 0.  1.
         21   -1    0    0  501  503 -0.00000000000E+00 -0.00000000000E+00 -0.56118528238E+02  0.56118528238E+02  0.00000000000E+00 0.  1.
          6    1    1    2  501    0 -0.71564224080E+01 -0.11868586873E+03  0.26162715045E+03  0.33543302710E+03  0.17300000000E+03 0.  1.
         -6    1    1    2    0  502  0.71564224080E+01  0.11868586873E+03  0.55410209140E+03  0.59253327123E+03  0.17300000000E+03 0.  1.
<mgrwt>
<rscale>  2 0.20992034E+03</rscale>
<asrwt>0</asrwt>
<pdfrwt beam="1">  1       21 0.13413042E+00 0.20992034E+03</pdfrwt>
<pdfrwt beam="2">  1       21 0.86336204E-02 0.20992034E+03</pdfrwt>
<totfact> 0.41548836E+04</totfact>
</mgrwt>
</event>
<event>
 4    1  0.3945814E+000  0.1735551E+03  0.7546771E-02  0.1174190E+00
         21   -1    0    0  503  502  0.00000000000E+00  0.00000000000E+00  0.87897564362E+03  0.87897564362E+03  0.00000000000E+00 0.  1.
         21   -1    0    0  501  503 -0.00000000000E+00 -0.00000000000E+00 -0.35743461798E+02  0.35743461798E+02  0.00000000000E+00 0. -1.
          6    1    1    2  501    0  0.60709215919E+01 -0.12470196630E+02  0.51451675910E+03  0.54299986859E+03  0.17300000000E+03 0.  1.
         -6    1    1    2    0  502 -0.60709215919E+01  0.12470196630E+02  0.32871542273E+03  0.37171923683E+03  0.17300000000E+03 0.  1.
<mgrwt>
<rscale>  2 0.17355507E+03</rscale>
<asrwt>0</asrwt>
<pdfrwt beam="1">  1       21 0.13522701E+00 0.17355507E+03</pdfrwt>
<pdfrwt beam="2">  1       21 0.54989948E-02 0.17355507E+03</pdfrwt>
<totfact> 0.90321687E+04</totfact>
</mgrwt>
</event>
<event>
 4    1  0.3945814E+000  0.1936806E+03  0.7546771E-02  0.1155183E+00
         21   -1    0    0  501  502  0.00000000000E+00  0.00000000000E+00  0.49860110527E+03  0.49860110527E+03  0.00000000000E+00 0. -1.
         21   -1    0    0  502  503 -0.00000000000E+00 -0.00000000000E+00 -0.76230311418E+02  0.76230311418E+02  0.00000000000E+00 0. -1.
          6    1    1    2  501    0  0.66838821178E+02 -0.55819017330E+02  0.24402923521E+03  0.31154848475E+03  0.17300000000E+03 0. -1.
         -6    1    1    2    0  503 -0.66838821178E+02  0.55819017330E+02  0.17834155864E+03  0.26328293194E+03  0.17300000000E+03 0. -1.
<mgrwt>
<rscale>  2 0.19368064E+03</rscale>
<asrwt>0</asrwt>
<pdfrwt beam="1">  1       21 0.76707860E-01 0.19368064E+03</pdfrwt>
<pdfrwt beam="2">  1       21 0.11727741E-01 0.19368064E+03</pdfrwt>
<totfact> 0.92396813E+04</totfact>
</mgrwt>
</event>
<event>
 4    1  0.3945814E+000  0.1944925E+03  0.7546771E-02  0.1154471E+00
         21   -1    0    0  501  502  0.00000000000E+00  0.00000000000E+00  0.57210907607E+02  0.57210907607E+02  0.00000000000E+00 0. -1.
         21   -1    0    0  502  503 -0.00000000000E+00 -0.00000000000E+00 -0.81160085373E+03  0.81160085373E+03  0.00000000000E+00 0. -1.
          6    1    1    2  501    0  0.31585606954E+02 -0.83070310265E+02 -0.19018582577E+03  0.27202568875E+03  0.17300000000E+03 0. -1.
         -6    1    1    2    0  503 -0.31585606954E+02  0.83070310265E+02 -0.56420412035E+03  0.59678607259E+03  0.17300000000E+03 0. -1.
<mgrwt>
<rscale>  2 0.19449249E+03</rscale>
<asrwt>0</asrwt>
<pdfrwt beam="1">  1       21 0.88016776E-02 0.19449249E+03</pdfrwt>
<pdfrwt beam="2">  1       21 0.12486168E+00 0.19449249E+03</pdfrwt>
<totfact> 0.48540892E+04</totfact>
</mgrwt>
</event>
<event>
 4    1  0.3945814E+000  0.2038523E+03  0.7546771E-02  0.1146529E+00
         21   -1    0    0  503  502  0.00000000000E+00  0.00000000000E+00  0.47507754598E+03  0.47507754598E+03  0.00000000000E+00 0. -1.
         21   -1    0    0  501  503 -0.00000000000E+00 -0.00000000000E+00 -0.89200453566E+02  0.89200453566E+02  0.00000000000E+00 0. -1.
          6    1    1    2  501    0 -0.79899346857E+02  0.72407696430E+02  0.23221769948E+03  0.30899974123E+03  0.17300000000E+03 0. -1.
         -6    1    1    2    0  502  0.79899346857E+02 -0.72407696430E+02  0.15365939294E+03  0.25527825832E+03  0.17300000000E+03 0. -1.
<mgrwt>
<rscale>  2 0.20385235E+03</rscale>
<asrwt>0</asrwt>
<pdfrwt beam="1">  1       21 0.73088852E-01 0.20385235E+03</pdfrwt>
<pdfrwt beam="2">  1       21 0.13723147E-01 0.20385235E+03</pdfrwt>
<totfact> 0.77248289E+04</totfact>
</mgrwt>
</event>
<event>
 4    1  0.3945814E+000  0.2166627E+03  0.7546771E-02  0.1136396E+00
         21   -1    0    0  503  502  0.00000000000E+00  0.00000000000E+00  0.14605516052E+03  0.14605516052E+03  0.00000000000E+00 0.  1.
         21   -1    0    0  501  503 -0.00000000000E+00 -0.00000000000E+00 -0.45604396894E+03  0.45604396894E+03  0.00000000000E+00 0.  1.
          6    1    1    2  501    0  0.11661107566E+03 -0.58443002064E+02 -0.31857112021E+03  0.38526651307E+03  0.17300000000E+03 0.  1.
         -6    1    1    2    0  502 -0.11661107566E+03  0.58443002064E+02  0.85823118018E+01  0.21683261639E+03  0.17300000000E+03 0.  1.
<mgrwt>
<rscale>  2 0.21666270E+03</rscale>
<asrwt>0</asrwt>
<pdfrwt beam="1">  1       21 0.22470025E-01 0.21666270E+03</pdfrwt>
<pdfrwt beam="2">  1       21 0.70160611E-01 0.21666270E+03</pdfrwt>
<totfact> 0.33763212E+04</totfact>
</mgrwt>
</event>
<event>
 4    1  0.3945814E+000  0.2245002E+03  0.7546771E-02  0.1130572E+00
         21   -1    0    0  503  502  0.00000000000E+00  0.00000000000E+00  0.63733074754E+03  0.63733074754E+03  0.00000000000E+00 0.  1.
         21   -1    0    0  501  503 -0.00000000000E+00 -0.00000000000E+00 -0.79098537013E+02  0.79098537013E+02  0.00000000000E+00 0.  1.
          6    1    1    2  501    0  0.25772161433E+02 -0.14073787966E+03  0.28454398934E+03  0.36244397767E+03  0.17300000000E+03 0.  1.
         -6    1    1    2    0  502 -0.25772161433E+02  0.14073787966E+03  0.27368822118E+03  0.35398530688E+03  0.17300000000E+03 0.  1.
<mgrwt>
<rscale>  2 0.22450023E+03</rscale>
<asrwt>0</asrwt>
<pdfrwt beam="1">  1       21 0.98050881E-01 0.22450023E+03</pdfrwt>
<pdfrwt beam="2">  1       21 0.12169006E-01 0.22450023E+03</pdfrwt>
<totfact> 0.48450186E+04</totfact>
</mgrwt>
</event>
<event>
 4    1  0.3945814E+000  0.2061677E+03  0.7546771E-02  0.1144637E+00
         21   -1    0    0  503  502  0.00000000000E+00  0.00000000000E+00  0.29079792798E+03  0.29079792798E+03  0.00000000000E+00 0.  1.
         21   -1    0    0  501  503 -0.00000000000E+00 -0.00000000000E+00 -0.18476128218E+03  0.18476128218E+03  0.00000000000E+00 0.  1.
          6    1    1    2  501    0 -0.11199048432E+03  0.58536543212E+01  0.16169320736E+03  0.26201112029E+03  0.17300000000E+03 0.  1.
         -6    1    1    2    0  502  0.11199048432E+03 -0.58536543212E+01 -0.55656561560E+02  0.21354808988E+03  0.17300000000E+03 0.  1.
<mgrwt>
<rscale>  2 0.20616773E+03</rscale>
<asrwt>0</asrwt>
<pdfrwt beam="1">  1       21 0.44738142E-01 0.20616773E+03</pdfrwt>
<pdfrwt beam="2">  1       21 0.28424813E-01 0.20616773E+03</pdfrwt>
<totfact> 0.56390360E+04</totfact>
</mgrwt>
</event>
<event>
 4    1  0.3945814E+000  0.1735216E+03  0.7546771E-02  0.1174224E+00
         21   -1    0    0  503  502  0.00000000000E+00  0.00000000000E+00  0.17988550720E+03  0.17988550720E+03  0.00000000000E+00 0. -1.
         21   -1    0    0  501  503 -0.00000000000E+00 -0.00000000000E+00 -0.16744969312E+03  0.16744969312E+03  0.00000000000E+00 0. -1.
          6    1    1    2  501    0 -0.17857481995E+01 -0.13325231142E+02  0.27483643241E+01  0.17354337840E+03  0.17300000000E+03 0. -1.
         -6    1    1    2    0  502  0.17857481995E+01  0.13325231142E+02  0.96874497643E+01  0.17379182192E+03  0.17300000000E+03 0. -1.
<mgrwt>
<rscale>  2 0.17352161E+03</rscale>
<asrwt>0</asrwt>
<pdfrwt beam="1">  1       21 0.27674693E-01 0.17352161E+03</pdfrwt>
<pdfrwt beam="2">  1       21 0.25761491E-01 0.17352161E+03</pdfrwt>
<totfact> 0.17925773E+05</totfact>
</mgrwt>
</event>
<event>
 4    1  0.3945814E+000  0.1885806E+03  0.7546771E-02  0.1159748E+00
         21   -1    0    0  501  502  0.00000000000E+00  0.00000000000E+00  0.38619416062E+03  0.38619416062E+03  0.00000000000E+00 0.  1.
         21   -1    0    0  502  503 -0.00000000000E+00 -0.00000000000E+00 -0.23992289953E+03  0.23992289953E+03  0.00000000000E+00 0.  1.
          6    1    1    2  501    0  0.34439840215E+01 -0.74978521203E+02  0.31887954479E+03  0.37046835729E+03  0.17300000000E+03 0.  1.
         -6    1    1    2    0  503 -0.34439840215E+01  0.74978521203E+02 -0.17260828371E+03  0.25564870286E+03  0.17300000000E+03 0.  1.
<mgrwt>
<rscale>  2 0.18858059E+03</rscale>
<asrwt>0</asrwt>
<pdfrwt beam="1">  1       21 0.59414486E-01 0.18858059E+03</pdfrwt>
<pdfrwt beam="2">  1       21 0.36911215E-01 0.18858059E+03</pdfrwt>
<totfact> 0.18778641E+04</totfact>
</mgrwt>
</event>
<event>
 4    1  0.3945814E+000  0.4012819E+03  0.7546771E-02  0.1043337E+00
         21   -1    0    0  501  502  0.00000000000E+00  0.00000000000E+00  0.84569072436E+02  0.84569072436E+02  0.00000000000E+00 0.  1.
         21   -1    0    0  502  503 -0.00000000000E+00 -0.00000000000E+00 -0.20504502858E+04  0.20504502858E+04  0.00000000000E+00 0.  1.
          6    1    1    2  501    0  0.16539779568E+03  0.32208968862E+03 -0.12681458724E+04  0.13301207284E+04  0.17300000000E+03 0.  1.
         -6    1    1    2    0  503 -0.16539779568E+03 -0.32208968862E+03 -0.69773534092E+03  0.80489862983E+03  0.17300000000E+03 0.  1.
<mgrwt>
<rscale>  2 0.40128194E+03</rscale>
<asrwt>0</asrwt>
<pdfrwt beam="1">  1       21 0.13010627E-01 0.40128194E+03</pdfrwt>
<pdfrwt beam="2">  1       21 0.31545387E+00 0.40128194E+03</pdfrwt>
<totfact> 0.11688905E+03</totfact>
</mgrwt>
</event>
<event>
 4    1  0.3945814E+000  0.1938732E+03  0.7546771E-02  0.1155014E+00
         21   -1    0    0  503  502  0.00000000000E+00  0.00000000000E+00  0.36542244063E+03  0.36542244063E+03  0.00000000000E+00 0.  1.
         21   -1    0    0  501  503 -0.00000000000E+00 -0.00000000000E+00 -0.17327360976E+03  0.17327360976E+03  0.00000000000E+00 0.  1.
          6    1    1    2  501    0  0.69040691985E+02  0.53769706331E+02 -0.75629643693E+02  0.20810247830E+03  0.17300000000E+03 0.  1.
         -6    1    1    2    0  502 -0.69040691985E+02 -0.53769706331E+02  0.26777847457E+03  0.33059357209E+03  0.17300000000E+03 0.  1.
<mgrwt>
<rscale>  2 0.19387315E+03</rscale>
<asrwt>0</asrwt>
<pdfrwt beam="1">  1       21 0.56218837E-01 0.19387315E+03</pdfrwt>
<pdfrwt beam="2">  1       21 0.26657479E-01 0.19387315E+03</pdfrwt>
<totfact> 0.39859898E+04</totfact>
</mgrwt>
</event>
<event>
 4    1  0.3945814E+000  0.1783770E+03  0.7546771E-02  0.1169383E+00
         21   -1    0    0  501  502  0.00000000000E+00  0.00000000000E+00  0.88025742139E+02  0.88025742139E+02  0.00000000000E+00 0. -1.
         21   -1    0    0  502  503 -0.00000000000E+00 -0.00000000000E+00 -0.12936745457E+04  0.12936745457E+04  0.00000000000E+00 0. -1.
          6    1    1    2  501    0 -0.60507632415E+01 -0.43043405983E+02 -0.16378728030E+02  0.17912735488E+03  0.17300000000E+03 0. -1.
         -6    1    1    2    0  503  0.60507632415E+01  0.43043405983E+02 -0.11892700756E+04  0.12025729330E+04  0.17300000000E+03 0. -1.
<mgrwt>
<rscale>  2 0.17837698E+03</rscale>
<asrwt>0</asrwt>
<pdfrwt beam="1">  1       21 0.13542422E-01 0.17837698E+03</pdfrwt>
<pdfrwt beam="2">  1       21 0.19902686E+00 0.17837698E+03</pdfrwt>
<totfact> 0.65166384E+03</totfact>
</mgrwt>
</event>
<event>
 4    1  0.3945814E+000  0.1797977E+03  0.7546771E-02  0.1167999E+00
         21   -1    0    0  503  502  0.00000000000E+00  0.00000000000E+00  0.64811735480E+02  0.64811735480E+02  0.00000000000E+00 0.  1.
         21   -1    0    0  501  503 -0.00000000000E+00 -0.00000000000E+00 -0.51882720402E+03  0.51882720402E+03  0.00000000000E+00 0.  1.
          6    1    1    2  501    0 -0.21050650356E+02 -0.44216172597E+02 -0.28436157959E+03  0.33643529504E+03  0.17300000000E+03 0.  1.
         -6    1    1    2    0  502  0.21050650356E+02  0.44216172597E+02 -0.16965388895E+03  0.24720364446E+03  0.17300000000E+03 0.  1.
<mgrwt>
<rscale>  2 0.17979766E+03</rscale>
<asrwt>0</asrwt>
<pdfrwt beam="1">  1       21 0.99710359E-02 0.17979766E+03</pdfrwt>
<pdfrwt beam="2">  1       21 0.79819572E-01 0.17979766E+03</pdfrwt>
<totfact> 0.11329987E+05</totfact>
</mgrwt>
</event>
<event>
 4    1  0.3945814E+000  0.1740019E+03  0.7546771E-02  0.1173738E+00
         21   -1    0    0  503  502  0.00000000000E+00  0.00000000000E+00  0.15658960679E+04  0.15658960679E+04  0.00000000000E+00 0.  1.
         21   -1    0    0  501  503 -0.00000000000E+00 -0.00000000000E+00 -0.48367169552E+02  0.48367169552E+02  0.00000000000E+00 0.  1.
          6    1    1    2  501    0  0.83709347672E+01 -0.16660769314E+02  0.13343552766E+03  0.21927538353E+03  0.17300000000E+03 0.  1.
         -6    1    1    2    0  502 -0.83709347672E+01  0.16660769314E+02  0.13840933706E+04  0.13949878539E+04  0.17300000000E+03 0.  1.
<mgrwt>
<rscale>  2 0.17400188E+03</rscale>
<asrwt>0</asrwt>
<pdfrwt beam="1">  1       21 0.24090705E+00 0.17400188E+03</pdfrwt>
<pdfrwt beam="2">  1       21 0.74411042E-02 0.17400188E+03</pdfrwt>
<totfact> 0.10426318E+04</totfact>
</mgrwt>
</event>
<event>
 4    1  0.3945814E+000  0.1962828E+03  0.7546771E-02  0.1152914E+00
         21   -1    0    0  501  502  0.00000000000E+00  0.00000000000E+00  0.17290829220E+03  0.17290829220E+03  0.00000000000E+00 0. -1.
         21   -1    0    0  502  503 -0.00000000000E+00 -0.00000000000E+00 -0.22348902186E+03  0.22348902186E+03  0.00000000000E+00 0. -1.
          6    1    1    2  501    0  0.44176144314E+01 -0.92619777880E+02 -0.14423476701E+02  0.19681203025E+03  0.17300000000E+03 0. -1.
         -6    1    1    2    0  503 -0.44176144314E+01  0.92619777880E+02 -0.36157252957E+02  0.19958528381E+03  0.17300000000E+03 0. -1.
<mgrwt>
<rscale>  2 0.19628280E+03</rscale>
<asrwt>0</asrwt>
<pdfrwt beam="1">  1       21 0.26601276E-01 0.19628280E+03</pdfrwt>
<pdfrwt beam="2">  1       21 0.34382926E-01 0.19628280E+03</pdfrwt>
<totfact> 0.10947959E+05</totfact>
</mgrwt>
</event>
<event>
 4    1  0.3945814E+000  0.2113495E+03  0.7546771E-02  0.1140502E+00
         21   -1    0    0  503  502  0.00000000000E+00  0.00000000000E+00  0.62351493402E+03  0.62351493402E+03  0.00000000000E+00 0.  1.
         21   -1    0    0  501  503 -0.00000000000E+00 -0.00000000000E+00 -0.86421954678E+02  0.86421954678E+02  0.00000000000E+00 0.  1.
          6    1    1    2  501    0  0.11044791395E+03  0.50407162392E+02  0.12174065659E+03  0.24390451243E+03  0.17300000000E+03 0.  1.
         -6    1    1    2    0  502 -0.11044791395E+03 -0.50407162392E+02  0.41535232275E+03  0.46603237627E+03  0.17300000000E+03 0.  1.
<mgrwt>
<rscale>  2 0.21134953E+03</rscale>
<asrwt>0</asrwt>
<pdfrwt beam="1">  1       21 0.95925372E-01 0.21134953E+03</pdfrwt>
<pdfrwt beam="2">  1       21 0.13295686E-01 0.21134953E+03</pdfrwt>
<totfact> 0.43774206E+04</totfact>
</mgrwt>
</event>
<event>
 4    1  0.3945814E+000  0.1796008E+03  0.7546771E-02  0.1168190E+00
         21   -1    0    0  501  502  0.00000000000E+00  0.00000000000E+00  0.10387198753E+04  0.10387198753E+04  0.00000000000E+00 0.  1.
         21   -1    0    0  502  503 -0.00000000000E+00 -0.00000000000E+00 -0.31061468394E+02  0.31061468394E+02  0.00000000000E+00 0.  1.
          6    1    1    2  501    0 -0.47613674471E+02  0.77718900669E+01  0.49556580378E+03  0.52710713347E+03  0.17300000000E+03 0.  1.
         -6    1    1    2    0  503  0.47613674471E+02 -0.77718900669E+01  0.51209260312E+03  0.54267421022E+03  0.17300000000E+03 0.  1.
<mgrwt>
<rscale>  2 0.17960085E+03</rscale>
<asrwt>0</asrwt>
<pdfrwt beam="1">  1       21 0.15980303E+00 0.17960085E+03</pdfrwt>
<pdfrwt beam="2">  1       21 0.47786882E-02 0.17960085E+03</pdfrwt>
<totfact> 0.73851831E+04</totfact>
</mgrwt>
</event>
<event>
 4    1  0.3945814E+000  0.2932538E+03  0.7546771E-02  0.1088662E+00
         21   -1    0    0  501  502  0.00000000000E+00  0.00000000000E+00  0.76040411876E+02  0.76040411876E+02  0.00000000000E+00 0.  1.
         21   -1    0    0  502  503 -0.00000000000E+00 -0.00000000000E+00 -0.11394738035E+04  0.11394738035E+04  0.00000000000E+00 0. -1.
          6    1    1    2  501    0  0.24148550920E+01 -0.23677621449E+03 -0.58428535869E+03  0.65374856608E+03  0.17300000000E+03 0.  1.
         -6    1    1    2    0  503 -0.24148550920E+01  0.23677621449E+03 -0.47914803298E+03  0.56176564934E+03  0.17300000000E+03 0.  1.
<mgrwt>
<rscale>  2 0.29325383E+03</rscale>
<asrwt>0</asrwt>
<pdfrwt beam="1">  1       21 0.11698525E-01 0.29325383E+03</pdfrwt>
<pdfrwt beam="2">  1       21 0.17530366E+00 0.29325383E+03</pdfrwt>
<totfact> 0.11278820E+04</totfact>
</mgrwt>
</event>
<event>
 4    1  0.3945814E+000  0.2038294E+03  0.7546771E-02  0.1146548E+00
         21   -1    0    0  501  502  0.00000000000E+00  0.00000000000E+00  0.66567414424E+02  0.66567414424E+02  0.00000000000E+00 0.  1.
         21   -1    0    0  502  503 -0.00000000000E+00 -0.00000000000E+00 -0.64328352759E+03  0.64328352759E+03  0.00000000000E+00 0.  1.
          6    1    1    2  501    0  0.88971240834E+02  0.60840454291E+02 -0.22710783789E+03  0.30516292797E+03  0.17300000000E+03 0.  1.
         -6    1    1    2    0  503 -0.88971240834E+02 -0.60840454291E+02 -0.34960827528E+03  0.40468801405E+03  0.17300000000E+03 0.  1.
<mgrwt>
<rscale>  2 0.20382944E+03</rscale>
<asrwt>0</asrwt>
<pdfrwt beam="1">  1       21 0.10241141E-01 0.20382944E+03</pdfrwt>
<pdfrwt beam="2">  1       21 0.98966697E-01 0.20382944E+03</pdfrwt>
<totfact> 0.65106624E+04</totfact>
</mgrwt>
</event>
<event>
 4    1  0.3945814E+000  0.1800153E+03  0.7546771E-02  0.1167788E+00
         21   -1    0    0  501  502  0.00000000000E+00  0.00000000000E+00  0.12358543254E+04  0.12358543254E+04  0.00000000000E+00 0.  1.
         21   -1    0    0  502  503 -0.00000000000E+00 -0.00000000000E+00 -0.13981073760E+03  0.13981073760E+03  0.00000000000E+00 0.  1.
          6    1    1    2  501    0  0.32085143842E+02 -0.38040104259E+02  0.11680075821E+04  0.11817982983E+04  0.17300000000E+03 0.  1.
         -6    1    1    2    0  503 -0.32085143842E+02  0.38040104259E+02 -0.71963994293E+02  0.19386676472E+03  0.17300000000E+03 0.  1.
<mgrwt>
<rscale>  2 0.18001529E+03</rscale>
<asrwt>0</asrwt>
<pdfrwt beam="1">  1       21 0.19013143E+00 0.18001529E+03</pdfrwt>
<pdfrwt beam="2">  1       21 0.21509345E-01 0.18001529E+03</pdfrwt>
<totfact> 0.31745154E+03</totfact>
</mgrwt>
</event>
<event>
 4    1  0.3945814E+000  0.2279483E+03  0.7546771E-02  0.1128092E+00
         21   -1    0    0  503  502  0.00000000000E+00  0.00000000000E+00  0.68219678989E+03  0.68219678989E+03  0.00000000000E+00 0. -1.
         21   -1    0    0  501  503 -0.00000000000E+00 -0.00000000000E+00 -0.10104524106E+03  0.10104524106E+03  0.00000000000E+00 0. -1.
          6    1    1    2  501    0  0.48136834254E+02  0.14040759076E+03  0.96253100351E+02  0.24743707419E+03  0.17300000000E+03 0. -1.
         -6    1    1    2    0  502 -0.48136834254E+02 -0.14040759076E+03  0.48489844847E+03  0.53580495676E+03  0.17300000000E+03 0. -1.
<mgrwt>
<rscale>  2 0.22794834E+03</rscale>
<asrwt>0</asrwt>
<pdfrwt beam="1">  1       21 0.10495335E+00 0.22794834E+03</pdfrwt>
<pdfrwt beam="2">  1       21 0.15545422E-01 0.22794834E+03</pdfrwt>
<totfact> 0.26350948E+04</totfact>
</mgrwt>
</event>
<event>
 4    1  0.3945814E+000  0.1825598E+03  0.7546771E-02  0.1165348E+00
         21   -1    0    0  501  502  0.00000000000E+00  0.00000000000E+00  0.24152136751E+03  0.24152136751E+03  0.00000000000E+00 0. -1.
         21   -1    0    0  502  503 -0.00000000000E+00 -0.00000000000E+00 -0.14248969717E+03  0.14248969717E+03  0.00000000000E+00 0. -1.
          6    1    1    2  501    0 -0.21221311967E+02  0.54302217682E+02  0.15403971643E+02  0.18320850763E+03  0.17300000000E+03 0. -1.
         -6    1    1    2    0  503  0.21221311967E+02 -0.54302217682E+02  0.83627698705E+02  0.20080255705E+03  0.17300000000E+03 0. -1.
<mgrwt>
<rscale>  2 0.18255978E+03</rscale>
<asrwt>0</asrwt>
<pdfrwt beam="1">  1       21 0.37157133E-01 0.18255978E+03</pdfrwt>
<pdfrwt beam="2">  1       21 0.21921492E-01 0.18255978E+03</pdfrwt>
<totfact> 0.13620981E+05</totfact>
</mgrwt>
</event>
<event>
 4    1  0.3945814E+000  0.1771138E+03  0.7546771E-02  0.1170626E+00
         21   -1    0    0  503  502  0.00000000000E+00  0.00000000000E+00  0.99361609887E+02  0.99361609887E+02  0.00000000000E+00 0.  1.
         21   -1    0    0  501  503 -0.00000000000E+00 -0.00000000000E+00 -0.32513872394E+03  0.32513872394E+03  0.00000000000E+00 0. -1.
          6    1    1    2  501    0 -0.36206722812E+02  0.11374482809E+02 -0.76741370114E+02  0.19302472257E+03  0.17300000000E+03 0.  1.
         -6    1    1    2    0  502  0.36206722812E+02 -0.11374482809E+02 -0.14903574394E+03  0.23147561126E+03  0.17300000000E+03 0. -1.
<mgrwt>
<rscale>  2 0.17711382E+03</rscale>
<asrwt>0</asrwt>
<pdfrwt beam="1">  1       21 0.15286402E-01 0.17711382E+03</pdfrwt>
<pdfrwt beam="2">  1       21 0.50021342E-01 0.17711382E+03</pdfrwt>
<totfact> 0.14502965E+05</totfact>
</mgrwt>
</event>
<event>
 4    1  0.3945814E+000  0.2459583E+03  0.7546771E-02  0.1115886E+00
         21   -1    0    0  501  502  0.00000000000E+00  0.00000000000E+00  0.14839978531E+04  0.14839978531E+04  0.00000000000E+00 0. -1.
         21   -1    0    0  502  503 -0.00000000000E+00 -0.00000000000E+00 -0.95562677964E+02  0.95562677964E+02  0.00000000000E+00 0.  1.
          6    1    1    2  501    0 -0.13574385895E+03 -0.11018209989E+03  0.12922742749E+04  0.13154726496E+04  0.17300000000E+03 0. -1.
         -6    1    1    2    0  503  0.13574385895E+03  0.11018209989E+03  0.96160900227E+02  0.26408788142E+03  0.17300000000E+03 0.  1.
<mgrwt>
<rscale>  2 0.24595831E+03</rscale>
<asrwt>0</asrwt>
<pdfrwt beam="1">  1       21 0.22830734E+00 0.24595831E+03</pdfrwt>
<pdfrwt beam="2">  1       21 0.14701952E-01 0.24595831E+03</pdfrwt>
<totfact> 0.34675980E+03</totfact>
</mgrwt>
</event>
<event>
 4    1  0.3945814E+000  0.2019344E+03  0.7546771E-02  0.1148117E+00
         21   -1    0    0  503  502  0.00000000000E+00  0.00000000000E+00  0.33763883353E+03  0.33763883353E+03  0.00000000000E+00 0. -1.
         21   -1    0    0  501  503 -0.00000000000E+00 -0.00000000000E+00 -0.19226218232E+03  0.19226218232E+03  0.00000000000E+00 0. -1.
          6    1    1    2  501    0  0.85125638563E+02  0.60017752618E+02 -0.88873717194E+02  0.22062647751E+03  0.17300000000E+03 0. -1.
         -6    1    1    2    0  502 -0.85125638563E+02 -0.60017752618E+02  0.23425036840E+03  0.30927453834E+03  0.17300000000E+03 0. -1.
<mgrwt>
<rscale>  2 0.20193441E+03</rscale>
<asrwt>0</asrwt>
<pdfrwt beam="1">  1       21 0.51944436E-01 0.20193441E+03</pdfrwt>
<pdfrwt beam="2">  1       21 0.29578797E-01 0.20193441E+03</pdfrwt>
<totfact> 0.38351599E+04</totfact>
</mgrwt>
</event>
<event>
 4    1  0.3945814E+000  0.1857180E+03  0.7546771E-02  0.1162381E+00
         21   -1    0    0  501  502  0.00000000000E+00  0.00000000000E+00  0.68546482127E+02  0.68546482127E+02  0.00000000000E+00 0. -1.
         21   -1    0    0  502  503 -0.00000000000E+00 -0.00000000000E+00 -0.50389684071E+03  0.50389684071E+03  0.00000000000E+00 0. -1.
          6    1    1    2  501    0 -0.34182982437E+02  0.58255478963E+02 -0.22847527179E+03  0.29443526782E+03  0.17300000000E+03 0. -1.
         -6    1    1    2    0  503  0.34182982437E+02 -0.58255478963E+02 -0.20687508678E+03  0.27800805501E+03  0.17300000000E+03 0. -1.
<mgrwt>
<rscale>  2 0.18571800E+03</rscale>
<asrwt>0</asrwt>
<pdfrwt beam="1">  1       21 0.10545612E-01 0.18571800E+03</pdfrwt>
<pdfrwt beam="2">  1       21 0.77522593E-01 0.18571800E+03</pdfrwt>
<totfact> 0.10933832E+05</totfact>
</mgrwt>
</event>
<event>
 4    1  0.3945814E+000  0.1784786E+03  0.7546771E-02  0.1169284E+00
         21   -1    0    0  501  502  0.00000000000E+00  0.00000000000E+00  0.13201871428E+03  0.13201871428E+03  0.00000000000E+00 0.  1.
         21   -1    0    0  502  503 -0.00000000000E+00 -0.00000000000E+00 -0.83867751663E+03  0.83867751663E+03  0.00000000000E+00 0.  1.
          6    1    1    2  501    0  0.88867220544E+01 -0.42972554811E+02  0.56293678139E+02  0.18714591231E+03  0.17300000000E+03 0.  1.
         -6    1    1    2    0  503 -0.88867220544E+01  0.42972554811E+02 -0.76295248049E+03  0.78355031860E+03  0.17300000000E+03 0.  1.
<mgrwt>
<rscale>  2 0.17847861E+03</rscale>
<asrwt>0</asrwt>
<pdfrwt beam="1">  1       21 0.20310572E-01 0.17847861E+03</pdfrwt>
<pdfrwt beam="2">  1       21 0.12902731E+00 0.17847861E+03</pdfrwt>
<totfact> 0.99842561E+03</totfact>
</mgrwt>
</event>
<event>
 4    1  0.3945814E+000  0.2837547E+03  0.7546771E-02  0.1093656E+00
         21   -1    0    0  503  502  0.00000000000E+00  0.00000000000E+00  0.35944581890E+03  0.35944581890E+03  0.00000000000E+00 0. -1.
         21   -1    0    0  501  503 -0.00000000000E+00 -0.00000000000E+00 -0.49186745335E+03  0.49186745335E+03  0.00000000000E+00 0.  1.
          6    1    1    2  501    0  0.45588802630E+02 -0.22024845464E+03 -0.38032923873E+03  0.47451770307E+03  0.17300000000E+03 0.  1.
         -6    1    1    2    0  502 -0.45588802630E+02  0.22024845464E+03  0.24790760428E+03  0.37679556918E+03  0.17300000000E+03 0. -1.
<mgrwt>
<rscale>  2 0.28375468E+03</rscale>
<asrwt>0</asrwt>
<pdfrwt beam="1">  1       21 0.55299357E-01 0.28375468E+03</pdfrwt>
<pdfrwt beam="2">  1       21 0.75671915E-01 0.28375468E+03</pdfrwt>
<totfact> 0.45229830E+03</totfact>
</mgrwt>
</event>
<event>
 4    1  0.3945814E+000  0.1876381E+03  0.7546771E-02  0.1160609E+00
         21   -1    0    0  503  502  0.00000000000E+00  0.00000000000E+00  0.13836692888E+03  0.13836692888E+03  0.00000000000E+00 0.  1.
         21   -1    0    0  501  503 -0.00000000000E+00 -0.00000000000E+00 -0.48993302020E+03  0.48993302020E+03  0.00000000000E+00 0.  1.
          6    1    1    2  501    0  0.68003920595E+02  0.25583509536E+02 -0.39357637768E+03  0.43601652979E+03  0.17300000000E+03 0.  1.
         -6    1    1    2    0  502 -0.68003920595E+02 -0.25583509536E+02  0.42010286355E+02  0.19228341930E+03  0.17300000000E+03 0.  1.
<mgrwt>
<rscale>  2 0.18763808E+03</rscale>
<asrwt>0</asrwt>
<pdfrwt beam="1">  1       21 0.21287219E-01 0.18763808E+03</pdfrwt>
<pdfrwt beam="2">  1       21 0.75374312E-01 0.18763808E+03</pdfrwt>
<totfact> 0.32378668E+04</totfact>
</mgrwt>
</event>
<event>
 4    1  0.3945814E+000  0.1760439E+03  0.7546771E-02  0.1171688E+00
         21   -1    0    0  503  502  0.00000000000E+00  0.00000000000E+00  0.52611889153E+03  0.52611889153E+03  0.00000000000E+00 0.  1.
         21   -1    0    0  501  503 -0.00000000000E+00 -0.00000000000E+00 -0.10239455676E+03  0.10239455676E+03  0.00000000000E+00 0.  1.
          6    1    1    2  501    0  0.75579807475E+01  0.31706810170E+02  0.70599150877E+01  0.17618537761E+03  0.17300000000E+03 0.  1.
         -6    1    1    2    0  502 -0.75579807475E+01 -0.31706810170E+02  0.41666441969E+03  0.45232807067E+03  0.17300000000E+03 0.  1.
<mgrwt>
<rscale>  2 0.17604387E+03</rscale>
<asrwt>0</asrwt>
<pdfrwt beam="1">  1       21 0.80941367E-01 0.17604387E+03</pdfrwt>
<pdfrwt beam="2">  1       21 0.15753009E-01 0.17604387E+03</pdfrwt>
<totfact> 0.48446434E+04</totfact>
</mgrwt>
</event>
<event>
 4    1  0.3945814E+000  0.2142011E+03  0.7546771E-02  0.1138282E+00
         21   -1    0    0  503  502  0.00000000000E+00  0.00000000000E+00  0.65681674423E+03  0.65681674423E+03  0.00000000000E+00 0. -1.
         21   -1    0    0  501  503 -0.00000000000E+00 -0.00000000000E+00 -0.20426447942E+03  0.20426447942E+03  0.00000000000E+00 0. -1.
          6    1    1    2  501    0 -0.11156176992E+03 -0.59220547207E+02 -0.12297050555E+03  0.24698956851E+03  0.17300000000E+03 0. -1.
         -6    1    1    2    0  502  0.11156176992E+03  0.59220547207E+02  0.57552277035E+03  0.61409165514E+03  0.17300000000E+03 0. -1.
<mgrwt>
<rscale>  2 0.21420108E+03</rscale>
<asrwt>0</asrwt>
<pdfrwt beam="1">  1       21 0.10104873E+00 0.21420108E+03</pdfrwt>
<pdfrwt beam="2">  1       21 0.31425305E-01 0.21420108E+03</pdfrwt>
<totfact> 0.76733740E+03</totfact>
</mgrwt>
</event>
<event>
 4    1  0.3945814E+000  0.1867633E+03  0.7546771E-02  0.1161413E+00
         21   -1    0    0  501  502  0.00000000000E+00  0.00000000000E+00  0.54022327063E+02  0.54022327063E+02  0.00000000000E+00 0. -1.
         21   -1    0    0  502  503 -0.00000000000E+00 -0.00000000000E+00 -0.71068417875E+03  0.71068417875E+03  0.00000000000E+00 0. -1.
          6    1    1    2  501    0  0.27829073909E+02 -0.64630167606E+02 -0.21268363806E+03  0.28304566031E+03  0.17300000000E+03 0. -1.
         -6    1    1    2    0  503 -0.27829073909E+02  0.64630167606E+02 -0.44397821363E+03  0.48166084551E+03  0.17300000000E+03 0. -1.
<mgrwt>
<rscale>  2 0.18676326E+03</rscale>
<asrwt>0</asrwt>
<pdfrwt beam="1">  1       21 0.83111278E-02 0.18676326E+03</pdfrwt>
<pdfrwt beam="2">  1       21 0.10933602E+00 0.18676326E+03</pdfrwt>
<totfact> 0.74613693E+04</totfact>
</mgrwt>
</event>
<event>
 4    1  0.3945814E+000  0.2154688E+03  0.7546771E-02  0.1137307E+00
         21   -1    0    0  503  502  0.00000000000E+00  0.00000000000E+00  0.19778769220E+03  0.19778769220E+03  0.00000000000E+00 0. -1.
         21   -1    0    0  501  503 -0.00000000000E+00 -0.00000000000E+00 -0.47205987249E+03  0.47205987249E+03  0.00000000000E+00 0. -1.
          6    1    1    2  501    0 -0.15652217304E+02  0.12748644300E+03 -0.37461403252E+03  0.43216022308E+03  0.17300000000E+03 0. -1.
         -6    1    1    2    0  502  0.15652217304E+02 -0.12748644300E+03  0.10034185223E+03  0.23768734161E+03  0.17300000000E+03 0. -1.
<mgrwt>
<rscale>  2 0.21546876E+03</rscale>
<asrwt>0</asrwt>
<pdfrwt beam="1">  1       21 0.30428876E-01 0.21546876E+03</pdfrwt>
<pdfrwt beam="2">  1       21 0.72624595E-01 0.21546876E+03</pdfrwt>
<totfact> 0.17459602E+04</totfact>
</mgrwt>
</event>
<event>
 4    1  0.3945814E+000  0.1737321E+03  0.7546771E-02  0.1174011E+00
         21   -1    0    0  503  502  0.00000000000E+00  0.00000000000E+00  0.88955202789E+02  0.88955202789E+02  0.00000000000E+00 0.  1.
         21   -1    0    0  501  503 -0.00000000000E+00 -0.00000000000E+00 -0.44963317016E+03  0.44963317016E+03  0.00000000000E+00 0.  1.
          6    1    1    2  501    0  0.15547583423E+02  0.34827754761E+01 -0.46942936208E+02  0.17996248591E+03  0.17300000000E+03 0.  1.
         -6    1    1    2    0  502 -0.15547583423E+02 -0.34827754761E+01 -0.31373503116E+03  0.35862588704E+03  0.17300000000E+03 0.  1.
<mgrwt>
<rscale>  2 0.17373214E+03</rscale>
<asrwt>0</asrwt>
<pdfrwt beam="1">  1       21 0.13685416E-01 0.17373214E+03</pdfrwt>
<pdfrwt beam="2">  1       21 0.69174333E-01 0.17373214E+03</pdfrwt>
<totfact> 0.88802587E+04</totfact>
</mgrwt>
</event>
<event>
 4    1  0.3945814E+000  0.1793087E+03  0.7546771E-02  0.1168474E+00
         21   -1    0    0  503  502  0.00000000000E+00  0.00000000000E+00  0.88438973622E+03  0.88438973622E+03  0.00000000000E+00 0. -1.
         21   -1    0    0  501  503 -0.00000000000E+00 -0.00000000000E+00 -0.20273649685E+03  0.20273649685E+03  0.00000000000E+00 0. -1.
          6    1    1    2  501    0  0.42801360908E+02 -0.19765349288E+02 -0.15159494160E+03  0.23480343236E+03  0.17300000000E+03 0. -1.
         -6    1    1    2    0  502 -0.42801360908E+02  0.19765349288E+02  0.83324818096E+03  0.85232280071E+03  0.17300000000E+03 0. -1.
<mgrwt>
<rscale>  2 0.17930874E+03</rscale>
<asrwt>0</asrwt>
<pdfrwt beam="1">  1       21 0.13605996E+00 0.17930874E+03</pdfrwt>
<pdfrwt beam="2">  1       21 0.31190231E-01 0.17930874E+03</pdfrwt>
<totfact> 0.38480748E+03</totfact>
</mgrwt>
</event>
<event>
 4    1  0.3945814E+000  0.2405131E+03  0.7546771E-02  0.1119451E+00
         21   -1    0    0  503  502  0.00000000000E+00  0.00000000000E+00  0.13361044022E+03  0.13361044022E+03  0.00000000000E+00 0.  1.
         21   -1    0    0  501  503 -0.00000000000E+00 -0.00000000000E+00 -0.50294661491E+03  0.50294661491E+03  0.00000000000E+00 0.  1.
          6    1    1    2  501    0  0.95742231042E+02 -0.13693417910E+03 -0.30340537955E+03  0.38717098102E+03  0.17300000000E+03 0.  1.
         -6    1    1    2    0  502 -0.95742231042E+02  0.13693417910E+03 -0.65930795135E+02  0.24938607410E+03  0.17300000000E+03 0.  1.
<mgrwt>
<rscale>  2 0.24051309E+03</rscale>
<asrwt>0</asrwt>
<pdfrwt beam="1">  1       21 0.20555452E-01 0.24051309E+03</pdfrwt>
<pdfrwt beam="2">  1       21 0.77376403E-01 0.24051309E+03</pdfrwt>
<totfact> 0.31726798E+04</totfact>
</mgrwt>
</event>
<event>
 4    1  0.3945814E+000  0.2012557E+03  0.7546771E-02  0.1148684E+00
         21   -1    0    0  501  502  0.00000000000E+00  0.00000000000E+00  0.46891398245E+03  0.46891398245E+03  0.00000000000E+00 0.  1.
         21   -1    0    0  502  503 -0.00000000000E+00 -0.00000000000E+00 -0.96344740393E+02  0.96344740393E+02  0.00000000000E+00 0.  1.
          6    1    1    2  501    0 -0.66937223018E+02 -0.78065798291E+02  0.27718787722E+03  0.34254485833E+03  0.17300000000E+03 0. -1.
         -6    1    1    2    0  503  0.66937223018E+02  0.78065798291E+02  0.95381364830E+02  0.22271386451E+03  0.17300000000E+03 0. -1.
<mgrwt>
<rscale>  2 0.20125571E+03</rscale>
<asrwt>0</asrwt>
<pdfrwt beam="1">  1       21 0.72140612E-01 0.20125571E+03</pdfrwt>
<pdfrwt beam="2">  1       21 0.14822268E-01 0.20125571E+03</pdfrwt>
<totfact> 0.69221886E+04</totfact>
</mgrwt>
</event>
<event>
 4    1  0.3945814E+000  0.1794707E+03  0.7546771E-02  0.1168316E+00
         21   -1    0    0  501  502  0.00000000000E+00  0.00000000000E+00  0.21459597475E+02  0.21459597475E+02  0.00000000000E+00 0. -1.
         21   -1    0    0  502  503 -0.00000000000E+00 -0.00000000000E+00 -0.15295341650E+04  0.15295341650E+04  0.00000000000E+00 0. -1.
          6    1    1    2  501    0 -0.36468737803E+02 -0.30834314129E+02 -0.64801818019E+03  0.67241154483E+03  0.17300000000E+03 0. -1.
         -6    1    1    2    0  503  0.36468737803E+02  0.30834314129E+02 -0.86005638734E+03  0.87858221765E+03  0.17300000000E+03 0. -1.
<mgrwt>
<rscale>  2 0.17947068E+03</rscale>
<asrwt>0</asrwt>
<pdfrwt beam="1">  1       21 0.33014771E-02 0.17947068E+03</pdfrwt>
<pdfrwt beam="2">  1       21 0.23531291E+00 0.17947068E+03</pdfrwt>
<totfact> 0.44305465E+04</totfact>
</mgrwt>
</event>
<event>
 4    1  0.3945814E+000  0.1947991E+03  0.7546771E-02  0.1154203E+00
         21   -1    0    0  503  502  0.00000000000E+00  0.00000000000E+00  0.26234331709E+03  0.26234331709E+03  0.00000000000E+00 0.  1.
         21   -1    0    0  501  503 -0.00000000000E+00 -0.00000000000E+00 -0.24261630100E+03  0.24261630100E+03  0.00000000000E+00 0.  1.
          6    1    1    2  501    0  0.88711020711E+02 -0.12167594520E+02 -0.15057762108E+03  0.24621193213E+03  0.17300000000E+03 0.  1.
         -6    1    1    2    0  502 -0.88711020711E+02  0.12167594520E+02  0.17030463716E+03  0.25874768596E+03  0.17300000000E+03 0.  1.
<mgrwt>
<rscale>  2 0.19479912E+03</rscale>
<asrwt>0</asrwt>
<pdfrwt beam="1">  1       21 0.40360511E-01 0.19479912E+03</pdfrwt>
<pdfrwt beam="2">  1       21 0.37325585E-01 0.19479912E+03</pdfrwt>
<totfact> 0.40905328E+04</totfact>
</mgrwt>
</event>
<event>
 4    1  0.3945814E+000  0.1980173E+03  0.7546771E-02  0.1151423E+00
         21   -1    0    0  501  502  0.00000000000E+00  0.00000000000E+00  0.64739541844E+03  0.64739541844E+03  0.00000000000E+00 0.  1.
         21   -1    0    0  502  503 -0.00000000000E+00 -0.00000000000E+00 -0.68458920719E+02  0.68458920719E+02  0.00000000000E+00 0.  1.
          6    1    1    2  501    0  0.62643082069E+01  0.96138448648E+02  0.41099422138E+03  0.45620948354E+03  0.17300000000E+03 0.  1.
         -6    1    1    2    0  503 -0.62643082069E+01 -0.96138448648E+02  0.16794227634E+03  0.25964485562E+03  0.17300000000E+03 0.  1.
<mgrwt>
<rscale>  2 0.19801728E+03</rscale>
<asrwt>0</asrwt>
<pdfrwt beam="1">  1       21 0.99599291E-01 0.19801728E+03</pdfrwt>
<pdfrwt beam="2">  1       21 0.10532142E-01 0.19801728E+03</pdfrwt>
<totfact> 0.61197263E+04</totfact>
</mgrwt>
</event>
<event>
 4    1  0.3945814E+000  0.1826481E+03  0.7546771E-02  0.1165265E+00
         21   -1    0    0  503  502  0.00000000000E+00  0.00000000000E+00  0.52466513832E+03  0.52466513832E+03  0.00000000000E+00 0. -1.
         21   -1    0    0  501  503 -0.00000000000E+00 -0.00000000000E+00 -0.67340374621E+02  0.67340374621E+02  0.00000000000E+00 0. -1.
          6    1    1    2  501    0 -0.21217915827E+02 -0.54599568564E+02  0.15875195979E+03  0.24199689580E+03  0.17300000000E+03 0. -1.
         -6    1    1    2    0  502  0.21217915827E+02  0.54599568564E+02  0.29857280391E+03  0.35000861715E+03  0.17300000000E+03 0. -1.
<mgrwt>
<rscale>  2 0.18264806E+03</rscale>
<asrwt>0</asrwt>
<pdfrwt beam="1">  1       21 0.80717711E-01 0.18264806E+03</pdfrwt>
<pdfrwt beam="2">  1       21 0.10360058E-01 0.18264806E+03</pdfrwt>
<totfact> 0.10313901E+05</totfact>
</mgrwt>
</event>
<event>
 4    1  0.3945814E+000  0.2731027E+03  0.7546771E-02  0.1099517E+00
         21   -1    0    0  501  502  0.00000000000E+00  0.00000000000E+00  0.15494339913E+04  0.15494339913E+04  0.00000000000E+00 0.  1.
         21   -1    0    0  502  503 -0.00000000000E+00 -0.00000000000E+00 -0.99228409944E+02  0.99228409944E+02  0.00000000000E+00 0.  1.
          6    1    1    2  501    0  0.75296300508E+02  0.19745016659E+03  0.13166067742E+04  0.13446332210E+04  0.17300000000E+03 0.  1.
         -6    1    1    2    0  503 -0.75296300508E+02 -0.19745016659E+03  0.13359880713E+03  0.30402918022E+03  0.17300000000E+03 0.  1.
<mgrwt>
<rscale>  2 0.27310273E+03</rscale>
<asrwt>0</asrwt>
<pdfrwt beam="1">  1       21 0.23837444E+00 0.27310273E+03</pdfrwt>
<pdfrwt beam="2">  1       21 0.15265910E-01 0.27310273E+03</pdfrwt>
<totfact> 0.27497429E+03</totfact>
</mgrwt>
</event>
<event>
 4    1  0.3945814E+000  0.2650013E+03  0.7546771E-02  0.1104175E+00
         21   -1    0    0  503  502  0.00000000000E+00  0.00000000000E+00  0.36962753643E+03  0.36962753643E+03  0.00000000000E+00 0. -1.
         21   -1    0    0  501  503 -0.00000000000E+00 -0.00000000000E+00 -0.49894092200E+03  0.49894092200E+03  0.00000000000E+00 0.  1.
          6    1    1    2  501    0  0.13222569952E+03  0.15103988976E+03 -0.40639523441E+03  0.48516262270E+03  0.17300000000E+03 0.  1.
         -6    1    1    2    0  502 -0.13222569952E+03 -0.15103988976E+03  0.27708184884E+03  0.38340583573E+03  0.17300000000E+03 0. -1.
<mgrwt>
<rscale>  2 0.26500129E+03</rscale>
<asrwt>0</asrwt>
<pdfrwt beam="1">  1       21 0.56865775E-01 0.26500129E+03</pdfrwt>
<pdfrwt beam="2">  1       21 0.76760142E-01 0.26500129E+03</pdfrwt>
<totfact> 0.41698630E+03</totfact>
</mgrwt>
</event>
<event>
 4    1  0.3945814E+000  0.2204797E+03  0.7546771E-02  0.1133526E+00
         21   -1    0    0  501  502  0.00000000000E+00  0.00000000000E+00  0.27182597449E+03  0.27182597449E+03  0.00000000000E+00 0. -1.
         21   -1    0    0  502  503 -0.00000000000E+00 -0.00000000000E+00 -0.20538863027E+03  0.20538863027E+03  0.00000000000E+00 0. -1.
          6    1    1    2  501    0  0.13628234911E+03 -0.10459825658E+02  0.11901701259E+03  0.25055206229E+03  0.17300000000E+03 0. -1.
         -6    1    1    2    0  503 -0.13628234911E+03  0.10459825658E+02 -0.52579668373E+02  0.22666254247E+03  0.17300000000E+03 0. -1.
<mgrwt>
<rscale>  2 0.22047967E+03</rscale>
<asrwt>0</asrwt>
<pdfrwt beam="1">  1       21 0.41819381E-01 0.22047967E+03</pdfrwt>
<pdfrwt beam="2">  1       21 0.31598251E-01 0.22047967E+03</pdfrwt>
<totfact> 0.52310270E+04</totfact>
</mgrwt>
</event>
<event>
 4    1  0.3945814E+000  0.2343386E+03  0.7546771E-02  0.1123623E+00
         21   -1    0    0  501  502  0.00000000000E+00  0.00000000000E+00  0.20244370832E+03  0.20244370832E+03  0.00000000000E+00 0.  1.
         21   -1    0    0  502  503 -0.00000000000E+00 -0.00000000000E+00 -0.11694642854E+04  0.11694642854E+04  0.00000000000E+00 0. -1.
          6    1    1    2  501    0  0.82402835657E+02 -0.13489009193E+03  0.11764884271E+03  0.26221329946E+03  0.17300000000E+03 0. -1.
         -6    1    1    2    0  503 -0.82402835657E+02  0.13489009193E+03 -0.10846694198E+04  0.11096946943E+04  0.17300000000E+03 0. -1.
<mgrwt>
<rscale>  2 0.23433857E+03</rscale>
<asrwt>0</asrwt>
<pdfrwt beam="1">  1       21 0.31145186E-01 0.23433857E+03</pdfrwt>
<pdfrwt beam="2">  1       21 0.17991758E+00 0.23433857E+03</pdfrwt>
<totfact> 0.17346798E+03</totfact>
</mgrwt>
</event>
<event>
 4    1  0.3945814E+000  0.2237352E+03  0.7546771E-02  0.1131129E+00
         21   -1    0    0  503  502  0.00000000000E+00  0.00000000000E+00  0.71463870484E+02  0.71463870484E+02  0.00000000000E+00 0. -1.
         21   -1    0    0  501  503 -0.00000000000E+00 -0.00000000000E+00 -0.93114287638E+03  0.93114287638E+03  0.00000000000E+00 0. -1.
          6    1    1    2  501    0  0.12359134998E+03  0.69667830906E+02 -0.67935767237E+03  0.71525119745E+03  0.17300000000E+03 0. -1.
         -6    1    1    2    0  502 -0.12359134998E+03 -0.69667830906E+02 -0.18032133353E+03  0.28735554942E+03  0.17300000000E+03 0. -1.
<mgrwt>
<rscale>  2 0.22373517E+03</rscale>
<asrwt>0</asrwt>
<pdfrwt beam="1">  1       21 0.10994442E-01 0.22373517E+03</pdfrwt>
<pdfrwt beam="2">  1       21 0.14325274E+00 0.22373517E+03</pdfrwt>
<totfact> 0.22681151E+04</totfact>
</mgrwt>
</event>
<event>
 4    1  0.3945814E+000  0.2497774E+03  0.7546771E-02  0.1113446E+00
         21   -1    0    0  503  502  0.00000000000E+00  0.00000000000E+00  0.27223917881E+03  0.27223917881E+03  0.00000000000E+00 0.  1.
         21   -1    0    0  501  503 -0.00000000000E+00 -0.00000000000E+00 -0.23044443747E+03  0.23044443747E+03  0.00000000000E+00 0. -1.
          6    1    1    2  501    0 -0.11563820500E+03 -0.13815771408E+03  0.21978191775E+01  0.24978706696E+03  0.17300000000E+03 0. -1.
         -6    1    1    2    0  502  0.11563820500E+03  0.13815771408E+03  0.39596922162E+02  0.25289654932E+03  0.17300000000E+03 0.  1.
<mgrwt>
<rscale>  2 0.24977740E+03</rscale>
<asrwt>0</asrwt>
<pdfrwt beam="1">  1       21 0.41882950E-01 0.24977740E+03</pdfrwt>
<pdfrwt beam="2">  1       21 0.35452991E-01 0.24977740E+03</pdfrwt>
<totfact> 0.40987581E+04</totfact>
</mgrwt>
</event>
<event>
 4    1  0.3945814E+000  0.2985154E+03  0.7546771E-02  0.1085985E+00
         21   -1    0    0  503  502  0.00000000000E+00  0.00000000000E+00  0.27462815863E+03  0.27462815863E+03  0.00000000000E+00 0.  1.
         21   -1    0    0  501  503 -0.00000000000E+00 -0.00000000000E+00 -0.81363381467E+03  0.81363381467E+03  0.00000000000E+00 0.  1.
          6    1    1    2  501    0  0.13798264535E+03  0.20035780106E+03 -0.69140474800E+03  0.75309493719E+03  0.17300000000E+03 0.  1.
         -6    1    1    2    0  502 -0.13798264535E+03 -0.20035780106E+03  0.15239909196E+03  0.33516703611E+03  0.17300000000E+03 0.  1.
<mgrwt>
<rscale>  2 0.29851542E+03</rscale>
<asrwt>0</asrwt>
<pdfrwt beam="1">  1       21 0.42250486E-01 0.29851542E+03</pdfrwt>
<pdfrwt beam="2">  1       21 0.12517443E+00 0.29851542E+03</pdfrwt>
<totfact> 0.23707812E+03</totfact>
</mgrwt>
</event>
<event>
 4    1  0.3945814E+000  0.2939777E+03  0.7546771E-02  0.1088290E+00
         21   -1    0    0  501  502  0.00000000000E+00  0.00000000000E+00  0.90159546872E+03  0.90159546872E+03  0.00000000000E+00 0. -1.
         21   -1    0    0  502  503 -0.00000000000E+00 -0.00000000000E+00 -0.10015005056E+03  0.10015005056E+03  0.00000000000E+00 0.  1.
          6    1    1    2  501    0 -0.19747885832E+03  0.13227236358E+03  0.50444236514E+03  0.58385355818E+03  0.17300000000E+03 0.  1.
         -6    1    1    2    0  503  0.19747885832E+03 -0.13227236358E+03  0.29700305302E+03  0.41789196110E+03  0.17300000000E+03 0. -1.
<mgrwt>
<rscale>  2 0.29397768E+03</rscale>
<asrwt>0</asrwt>
<pdfrwt beam="1">  1       21 0.13870699E+00 0.29397768E+03</pdfrwt>
<pdfrwt beam="2">  1       21 0.15407701E-01 0.29397768E+03</pdfrwt>
<totfact> 0.12898939E+04</totfact>
</mgrwt>
</event>
<event>
 4    1  0.3945814E+000  0.1788363E+03  0.7546771E-02  0.1168934E+00
         21   -1    0    0  501  502  0.00000000000E+00  0.00000000000E+00  0.48338912524E+03  0.48338912524E+03  0.00000000000E+00 0. -1.
         21   -1    0    0  502  503 -0.00000000000E+00 -0.00000000000E+00 -0.68070497472E+02  0.68070497472E+02  0.00000000000E+00 0. -1.
          6    1    1    2  501    0 -0.11424500109E+02  0.43850947149E+02  0.25381742241E+03  0.31049268701E+03  0.17300000000E+03 0.  1.
         -6    1    1    2    0  503  0.11424500109E+02 -0.43850947149E+02  0.16150120536E+03  0.24096693570E+03  0.17300000000E+03 0.  1.
<mgrwt>
<rscale>  2 0.17883631E+03</rscale>
<asrwt>0</asrwt>
<pdfrwt beam="1">  1       21 0.74367555E-01 0.17883631E+03</pdfrwt>
<pdfrwt beam="2">  1       21 0.10472385E-01 0.17883631E+03</pdfrwt>
<totfact> 0.12177868E+05</totfact>
</mgrwt>
</event>
<event>
 4    1  0.3945814E+000  0.1999005E+03  0.7546771E-02  0.1149823E+00
         21   -1    0    0  501  502  0.00000000000E+00  0.00000000000E+00  0.13122101469E+03  0.13122101469E+03  0.00000000000E+00 0. -1.
         21   -1    0    0  502  503 -0.00000000000E+00 -0.00000000000E+00 -0.59317313365E+03  0.59317313365E+03  0.00000000000E+00 0. -1.
          6    1    1    2  501    0  0.78093632427E+02  0.62710337088E+02  0.21684746524E+02  0.20107319572E+03  0.17300000000E+03 0. -1.
         -6    1    1    2    0  503 -0.78093632427E+02 -0.62710337088E+02 -0.48363686548E+03  0.52332095262E+03  0.17300000000E+03 0. -1.
<mgrwt>
<rscale>  2 0.19990048E+03</rscale>
<asrwt>0</asrwt>
<pdfrwt beam="1">  1       21 0.20187849E-01 0.19990048E+03</pdfrwt>
<pdfrwt beam="2">  1       21 0.91257404E-01 0.19990048E+03</pdfrwt>
<totfact> 0.22976400E+04</totfact>
</mgrwt>
</event>
<event>
 4    1  0.3945814E+000  0.2379817E+03  0.7546771E-02  0.1121145E+00
         21   -1    0    0  503  502  0.00000000000E+00  0.00000000000E+00  0.40970200764E+02  0.40970200764E+02  0.00000000000E+00 0. -1.
         21   -1    0    0  501  503 -0.00000000000E+00 -0.00000000000E+00 -0.13995035394E+04  0.13995035394E+04  0.00000000000E+00 0.  1.
          6    1    1    2  501    0  0.12981413515E+03  0.99270119727E+02 -0.75899844545E+03  0.79543315656E+03  0.17300000000E+03 0.  1.
         -6    1    1    2    0  502 -0.12981413515E+03 -0.99270119727E+02 -0.59953489321E+03  0.64504058363E+03  0.17300000000E+03 0.  1.
<mgrwt>
<rscale>  2 0.23798165E+03</rscale>
<asrwt>0</asrwt>
<pdfrwt beam="1">  1       21 0.63031074E-02 0.23798165E+03</pdfrwt>
<pdfrwt beam="2">  1       21 0.21530825E+00 0.23798165E+03</pdfrwt>
<totfact> 0.18841080E+04</totfact>
</mgrwt>
</event>
<event>
 4    1  0.3945814E+000  0.2122088E+03  0.7546771E-02  0.1139829E+00
         21   -1    0    0  503  502  0.00000000000E+00  0.00000000000E+00  0.18610095993E+04  0.18610095993E+04  0.00000000000E+00 0. -1.
         21   -1    0    0  501  503 -0.00000000000E+00 -0.00000000000E+00 -0.28482711416E+02  0.28482711416E+02  0.00000000000E+00 0. -1.
          6    1    1    2  501    0 -0.61541809260E+02  0.10637762615E+03  0.54983562852E+03  0.58936560132E+03  0.17300000000E+03 0. -1.
         -6    1    1    2    0  502  0.61541809260E+02 -0.10637762615E+03  0.12826912594E+04  0.13001267094E+04  0.17300000000E+03 0. -1.
<mgrwt>
<rscale>  2 0.21220884E+03</rscale>
<asrwt>0</asrwt>
<pdfrwt beam="1">  1       21 0.28630907E+00 0.21220884E+03</pdfrwt>
<pdfrwt beam="2">  1       21 0.43819571E-02 0.21220884E+03</pdfrwt>
<totfact> 0.13499681E+04</totfact>
</mgrwt>
</event>
<event>
 4    1  0.3945814E+000  0.1940011E+03  0.7546771E-02  0.1154901E+00
         21   -1    0    0  503  502  0.00000000000E+00  0.00000000000E+00  0.30504867795E+03  0.30504867795E+03  0.00000000000E+00 0.  1.
         21   -1    0    0  501  503 -0.00000000000E+00 -0.00000000000E+00 -0.18843023059E+03  0.18843023059E+03  0.00000000000E+00 0.  1.
          6    1    1    2  501    0 -0.87164653181E+02  0.10476367238E+02 -0.86665712578E+02  0.21247912079E+03  0.17300000000E+03 0.  1.
         -6    1    1    2    0  502  0.87164653181E+02 -0.10476367238E+02  0.20328415994E+03  0.28099978775E+03  0.17300000000E+03 0.  1.
<mgrwt>
<rscale>  2 0.19400111E+03</rscale>
<asrwt>0</asrwt>
<pdfrwt beam="1">  1       21 0.46930566E-01 0.19400111E+03</pdfrwt>
<pdfrwt beam="2">  1       21 0.28989266E-01 0.19400111E+03</pdfrwt>
<totfact> 0.49473589E+04</totfact>
</mgrwt>
</event>
<event>
 4    1  0.3945814E+000  0.1817551E+03  0.7546771E-02  0.1166115E+00
         21   -1    0    0  503  502  0.00000000000E+00  0.00000000000E+00  0.31389330076E+03  0.31389330076E+03  0.00000000000E+00 0.  1.
         21   -1    0    0  501  503 -0.00000000000E+00 -0.00000000000E+00 -0.13372045726E+03  0.13372045726E+03  0.00000000000E+00 0.  1.
          6    1    1    2  501    0  0.55481688762E+02 -0.52633003245E+01 -0.13196571137E+02  0.18223355785E+03  0.17300000000E+03 0.  1.
         -6    1    1    2    0  502 -0.55481688762E+02  0.52633003245E+01  0.19336941464E+03  0.26538020016E+03  0.17300000000E+03 0.  1.
<mgrwt>
<rscale>  2 0.18175511E+03</rscale>
<asrwt>0</asrwt>
<pdfrwt beam="1">  1       21 0.48291277E-01 0.18175511E+03</pdfrwt>
<pdfrwt beam="2">  1       21 0.20572378E-01 0.18175511E+03</pdfrwt>
<totfact> 0.90075249E+04</totfact>
</mgrwt>
</event>
<event>
 4    1  0.3945814E+000  0.1921346E+03  0.7546771E-02  0.1156550E+00
         21   -1    0    0  501  502  0.00000000000E+00  0.00000000000E+00  0.27158036180E+03  0.27158036180E+03  0.00000000000E+00 0. -1.
         21   -1    0    0  502  503 -0.00000000000E+00 -0.00000000000E+00 -0.23951639883E+03  0.23951639883E+03  0.00000000000E+00 0. -1.
          6    1    1    2  501    0  0.81960606065E+02  0.16405771324E+02  0.18408976670E+03  0.26609158664E+03  0.17300000000E+03 0. -1.
         -6    1    1    2    0  503 -0.81960606065E+02 -0.16405771324E+02 -0.15202580373E+03  0.24500517398E+03  0.17300000000E+03 0. -1.
<mgrwt>
<rscale>  2 0.19213456E+03</rscale>
<asrwt>0</asrwt>
<pdfrwt beam="1">  1       21 0.41781595E-01 0.19213456E+03</pdfrwt>
<pdfrwt beam="2">  1       21 0.36848676E-01 0.19213456E+03</pdfrwt>
<totfact> 0.39179913E+04</totfact>
</mgrwt>
</event>
<event>
 4    1  0.3945814E+000  0.3338024E+03  0.7546771E-02  0.1069467E+00
         21   -1    0    0  501  502  0.00000000000E+00  0.00000000000E+00  0.83908437683E+02  0.83908437683E+02  0.00000000000E+00 0. -1.
         21   -1    0    0  502  503 -0.00000000000E+00 -0.00000000000E+00 -0.13400194391E+04  0.13400194391E+04  0.00000000000E+00 0.  1.
          6    1    1    2  501    0 -0.14382098894E+03  0.24659797283E+03 -0.56041429019E+03  0.65229457587E+03  0.17300000000E+03 0.  1.
         -6    1    1    2    0  503  0.14382098894E+03 -0.24659797283E+03 -0.69569671121E+03  0.77163330089E+03  0.17300000000E+03 0.  1.
<mgrwt>
<rscale>  2 0.33380239E+03</rscale>
<asrwt>0</asrwt>
<pdfrwt beam="1">  1       21 0.12908990E-01 0.33380239E+03</pdfrwt>
<pdfrwt beam="2">  1       21 0.20615684E+00 0.33380239E+03</pdfrwt>
<totfact> 0.57216740E+03</totfact>
</mgrwt>
</event>
<event>
 4    1  0.3945814E+000  0.2383005E+03  0.7546771E-02  0.1120930E+00
         21   -1    0    0  501  502  0.00000000000E+00  0.00000000000E+00  0.29399251837E+03  0.29399251837E+03  0.00000000000E+00 0. -1.
         21   -1    0    0  502  503 -0.00000000000E+00 -0.00000000000E+00 -0.73823338457E+03  0.73823338457E+03  0.00000000000E+00 0. -1.
          6    1    1    2  501    0 -0.16379964319E+03  0.52717659328E+01  0.22136162658E+03  0.32525080223E+03  0.17300000000E+03 0. -1.
         -6    1    1    2    0  503  0.16379964319E+03 -0.52717659328E+01 -0.66560249278E+03  0.70697510071E+03  0.17300000000E+03 0. -1.
<mgrwt>
<rscale>  2 0.23830047E+03</rscale>
<asrwt>0</asrwt>
<pdfrwt beam="1">  1       21 0.45229618E-01 0.23830047E+03</pdfrwt>
<pdfrwt beam="2">  1       21 0.11357437E+00 0.23830047E+03</pdfrwt>
<totfact> 0.27309634E+03</totfact>
</mgrwt>
</event>
<event>
 4    1  0.3945814E+000  0.1763744E+03  0.7546771E-02  0.1171359E+00
         21   -1    0    0  501  502  0.00000000000E+00  0.00000000000E+00  0.25222631724E+03  0.25222631724E+03  0.00000000000E+00 0. -1.
         21   -1    0    0  502  503 -0.00000000000E+00 -0.00000000000E+00 -0.36255329569E+03  0.36255329569E+03  0.00000000000E+00 0. -1.
          6    1    1    2  501    0  0.14685948980E+02  0.31036191258E+02  0.19452711851E+03  0.26258088678E+03  0.17300000000E+03 0. -1.
         -6    1    1    2    0  503 -0.14685948980E+02 -0.31036191258E+02 -0.30485409697E+03  0.35219872615E+03  0.17300000000E+03 0. -1.
<mgrwt>
<rscale>  2 0.17637438E+03</rscale>
<asrwt>0</asrwt>
<pdfrwt beam="1">  1       21 0.38804049E-01 0.17637438E+03</pdfrwt>
<pdfrwt beam="2">  1       21 0.55777430E-01 0.17637438E+03</pdfrwt>
<totfact> 0.19580672E+04</totfact>
</mgrwt>
</event>
<event>
 4    1  0.3945814E+000  0.3937250E+03  0.7546771E-02  0.1045974E+00
         21   -1    0    0  501  502  0.00000000000E+00  0.00000000000E+00  0.18508110235E+04  0.18508110235E+04  0.00000000000E+00 0.  1.
         21   -1    0    0  502  503 -0.00000000000E+00 -0.00000000000E+00 -0.11635866152E+03  0.11635866152E+03  0.00000000000E+00 0. -1.
          6    1    1    2  501    0 -0.25042604402E+03  0.24975428672E+03  0.13878555163E+04  0.14426234233E+04  0.17300000000E+03 0. -1.
         -6    1    1    2    0  503  0.25042604402E+03 -0.24975428672E+03  0.34659684566E+03  0.52454626172E+03  0.17300000000E+03 0.  1.
<mgrwt>
<rscale>  2 0.39372504E+03</rscale>
<asrwt>0</asrwt>
<pdfrwt beam="1">  1       21 0.28474013E+00 0.39372504E+03</pdfrwt>
<pdfrwt beam="2">  1       21 0.17901334E-01 0.39372504E+03</pdfrwt>
<totfact> 0.99248976E+02</totfact>
</mgrwt>
</event>
<event>
 4    1  0.3945814E+000  0.2647407E+03  0.7546771E-02  0.1104328E+00
         21   -1    0    0  501  502  0.00000000000E+00  0.00000000000E+00  0.13788743866E+04  0.13788743866E+04  0.00000000000E+00 0. -1.
         21   -1    0    0  502  503 -0.00000000000E+00 -0.00000000000E+00 -0.64358642158E+02  0.64358642158E+02  0.00000000000E+00 0. -1.
          6    1    1    2  501    0  0.19363828479E+03  0.51602803951E+02  0.98811198555E+03  0.10229628198E+04  0.17300000000E+03 0. -1.
         -6    1    1    2    0  503 -0.19363828479E+03 -0.51602803951E+02  0.32640375886E+03  0.42027020892E+03  0.17300000000E+03 0. -1.
<mgrwt>
<rscale>  2 0.26474069E+03</rscale>
<asrwt>0</asrwt>
<pdfrwt beam="1">  1       21 0.21213450E+00 0.26474069E+03</pdfrwt>
<pdfrwt beam="2">  1       21 0.99013306E-02 0.26474069E+03</pdfrwt>
<totfact> 0.87929828E+03</totfact>
</mgrwt>
</event>
<event>
 4    1  0.3945814E+000  0.2391437E+03  0.7546771E-02  0.1120365E+00
         21   -1    0    0  501  502  0.00000000000E+00  0.00000000000E+00  0.85639863230E+03  0.85639863230E+03  0.00000000000E+00 0. -1.
         21   -1    0    0  502  503 -0.00000000000E+00 -0.00000000000E+00 -0.67083021424E+02  0.67083021424E+02  0.00000000000E+00 0.  1.
          6    1    1    2  501    0 -0.13765321042E+03 -0.91171898507E+02  0.42572576940E+03  0.48829514860E+03  0.17300000000E+03 0. -1.
         -6    1    1    2    0  503  0.13765321042E+03  0.91171898507E+02  0.36358984147E+03  0.43518650512E+03  0.17300000000E+03 0.  1.
<mgrwt>
<rscale>  2 0.23914373E+03</rscale>
<asrwt>0</asrwt>
<pdfrwt beam="1">  1       21 0.13175363E+00 0.23914373E+03</pdfrwt>
<pdfrwt beam="2">  1       21 0.10320465E-01 0.23914373E+03</pdfrwt>
<totfact> 0.31246963E+04</totfact>
</mgrwt>
</event>
<event>
 4    1  0.3945814E+000  0.1836812E+03  0.7546771E-02  0.1164287E+00
         21   -1    0    0  501  502  0.00000000000E+00  0.00000000000E+00  0.12147896292E+03  0.12147896292E+03  0.00000000000E+00 0.  1.
         21   -1    0    0  502  503 -0.00000000000E+00 -0.00000000000E+00 -0.10158411456E+04  0.10158411456E+04  0.00000000000E+00 0.  1.
          6    1    1    2  501    0 -0.60287733155E+02 -0.13234686626E+02  0.37548684456E+02  0.18747978932E+03  0.17300000000E+03 0.  1.
         -6    1    1    2    0  503  0.60287733155E+02  0.13234686626E+02 -0.93191086718E+03  0.94984031925E+03  0.17300000000E+03 0.  1.
<mgrwt>
<rscale>  2 0.18368116E+03</rscale>
<asrwt>0</asrwt>
<pdfrwt beam="1">  1       21 0.18689071E-01 0.18368116E+03</pdfrwt>
<pdfrwt beam="2">  1       21 0.15628326E+00 0.18368116E+03</pdfrwt>
<totfact> 0.70729907E+03</totfact>
</mgrwt>
</event>
<event>
 4    1  0.3945814E+000  0.1920719E+03  0.7546771E-02  0.1156606E+00
         21   -1    0    0  501  502  0.00000000000E+00  0.00000000000E+00  0.15188106681E+03  0.15188106681E+03  0.00000000000E+00 0. -1.
         21   -1    0    0  502  503 -0.00000000000E+00 -0.00000000000E+00 -0.38798674852E+03  0.38798674852E+03  0.00000000000E+00 0. -1.
          6    1    1    2  501    0  0.82058331467E+02  0.15134525305E+02  0.47016228414E+02  0.19774263413E+03  0.17300000000E+03 0. -1.
         -6    1    1    2    0  503 -0.82058331467E+02 -0.15134525305E+02 -0.28312191012E+03  0.34212518120E+03  0.17300000000E+03 0. -1.
<mgrwt>
<rscale>  2 0.19207192E+03</rscale>
<asrwt>0</asrwt>
<pdfrwt beam="1">  1       21 0.23366318E-01 0.19207192E+03</pdfrwt>
<pdfrwt beam="2">  1       21 0.59690268E-01 0.19207192E+03</pdfrwt>
<totfact> 0.45147147E+04</totfact>
</mgrwt>
</event>
<event>
 4    1  0.3945814E+000  0.1837289E+03  0.7546771E-02  0.1164242E+00
         21   -1    0    0  503  502  0.00000000000E+00  0.00000000000E+00  0.80532763756E+02  0.80532763756E+02  0.00000000000E+00 0. -1.
         21   -1    0    0  501  503 -0.00000000000E+00 -0.00000000000E+00 -0.44335561577E+03  0.44335561577E+03  0.00000000000E+00 0. -1.
          6    1    1    2  501    0  0.39099383101E+02 -0.47943284251E+02 -0.24260107079E+03  0.30432154017E+03  0.17300000000E+03 0. -1.
         -6    1    1    2    0  502 -0.39099383101E+02  0.47943284251E+02 -0.12022178123E+03  0.21956683936E+03  0.17300000000E+03 0. -1.
<mgrwt>
<rscale>  2 0.18372893E+03</rscale>
<asrwt>0</asrwt>
<pdfrwt beam="1">  1       21 0.12389656E-01 0.18372893E+03</pdfrwt>
<pdfrwt beam="2">  1       21 0.68208557E-01 0.18372893E+03</pdfrwt>
<totfact> 0.10907356E+05</totfact>
</mgrwt>
</event>
<event>
 4    1  0.3945814E+000  0.1820447E+03  0.7546771E-02  0.1165839E+00
         21   -1    0    0  503  502  0.00000000000E+00  0.00000000000E+00  0.77991451060E+02  0.77991451060E+02  0.00000000000E+00 0.  1.
         21   -1    0    0  501  503 -0.00000000000E+00 -0.00000000000E+00 -0.42957151371E+03  0.42957151371E+03  0.00000000000E+00 0.  1.
          6    1    1    2  501    0  0.49839876659E+01 -0.56448593160E+02 -0.14938749199E+03  0.23549290131E+03  0.17300000000E+03 0.  1.
         -6    1    1    2    0  502 -0.49839876659E+01  0.56448593160E+02 -0.20219257066E+03  0.27207006346E+03  0.17300000000E+03 0.  1.
<mgrwt>
<rscale>  2 0.18204473E+03</rscale>
<asrwt>0</asrwt>
<pdfrwt beam="1">  1       21 0.11998685E-01 0.18204473E+03</pdfrwt>
<pdfrwt beam="2">  1       21 0.66087923E-01 0.18204473E+03</pdfrwt>
<totfact> 0.12384516E+05</totfact>
</mgrwt>
</event>
<event>
 4    1  0.3945814E+000  0.3157734E+03  0.7546771E-02  0.1077611E+00
         21   -1    0    0  501  502  0.00000000000E+00  0.00000000000E+00  0.39455770336E+02  0.39455770336E+02  0.00000000000E+00 0. -1.
         21   -1    0    0  502  503 -0.00000000000E+00 -0.00000000000E+00 -0.25288723940E+04  0.25288723940E+04  0.00000000000E+00 0. -1.
          6    1    1    2  501    0 -0.11998864791E+03 -0.23534351490E+03 -0.12776762496E+04  0.13161190844E+04  0.17300000000E+03 0. -1.
         -6    1    1    2    0  503  0.11998864791E+03  0.23534351490E+03 -0.12117403741E+04  0.12522090799E+04  0.17300000000E+03 0. -1.
<mgrwt>
<rscale>  2 0.31577341E+03</rscale>
<asrwt>0</asrwt>
<pdfrwt beam="1">  1       21 0.60701158E-02 0.31577341E+03</pdfrwt>
<pdfrwt beam="2">  1       21 0.38905747E+00 0.31577341E+03</pdfrwt>
<totfact> 0.17154174E+03</totfact>
</mgrwt>
</event>
<event>
 4    1  0.3945814E+000  0.2608248E+03  0.7546771E-02  0.1106649E+00
         21   -1    0    0  503  502  0.00000000000E+00  0.00000000000E+00  0.22441426429E+03  0.22441426429E+03  0.00000000000E+00 0.  1.
         21   -1    0    0  501  503 -0.00000000000E+00 -0.00000000000E+00 -0.52794913129E+03  0.52794913129E+03  0.00000000000E+00 0. -1.
          6    1    1    2  501    0 -0.10890571439E+03 -0.16198804323E+03 -0.39724162505E+03  0.47521625546E+03  0.17300000000E+03 0. -1.
         -6    1    1    2    0  502  0.10890571439E+03  0.16198804323E+03  0.93706758040E+02  0.27714714013E+03  0.17300000000E+03 0.  1.
<mgrwt>
<rscale>  2 0.26082481E+03</rscale>
<asrwt>0</asrwt>
<pdfrwt beam="1">  1       21 0.34525272E-01 0.26082481E+03</pdfrwt>
<pdfrwt beam="2">  1       21 0.81222943E-01 0.26082481E+03</pdfrwt>
<totfact> 0.10307016E+04</totfact>
</mgrwt>
</event>
<event>
 4    1  0.3945814E+000  0.2906407E+03  0.7546771E-02  0.1090015E+00
         21   -1    0    0  501  502  0.00000000000E+00  0.00000000000E+00  0.18315351495E+03  0.18315351495E+03  0.00000000000E+00 0. -1.
         21   -1    0    0  502  503 -0.00000000000E+00 -0.00000000000E+00 -0.53886034518E+03  0.53886034518E+03  0.00000000000E+00 0. -1.
          6    1    1    2  501    0  0.22111734718E+03 -0.75167516399E+02 -0.40811912292E+02  0.29349216162E+03  0.17300000000E+03 0. -1.
         -6    1    1    2    0  503 -0.22111734718E+03  0.75167516399E+02 -0.31489491794E+03  0.42852169851E+03  0.17300000000E+03 0. -1.
<mgrwt>
<rscale>  2 0.29064073E+03</rscale>
<asrwt>0</asrwt>
<pdfrwt beam="1">  1       21 0.28177465E-01 0.29064073E+03</pdfrwt>
<pdfrwt beam="2">  1       21 0.82901590E-01 0.29064073E+03</pdfrwt>
<totfact> 0.14478929E+04</totfact>
</mgrwt>
</event>
<event>
 4    1  0.3945814E+000  0.1864109E+03  0.7546771E-02  0.1161739E+00
         21   -1    0    0  501  502  0.00000000000E+00  0.00000000000E+00  0.92628704676E+02  0.92628704676E+02  0.00000000000E+00 0.  1.
         21   -1    0    0  502  503 -0.00000000000E+00 -0.00000000000E+00 -0.37528536819E+03  0.37528536819E+03  0.00000000000E+00 0.  1.
          6    1    1    2  501    0 -0.62259877351E+02 -0.30720157122E+02 -0.14588338420E+03  0.23670864405E+03  0.17300000000E+03 0.  1.
         -6    1    1    2    0  503  0.62259877351E+02  0.30720157122E+02 -0.13677327932E+03  0.23120542882E+03  0.17300000000E+03 0.  1.
<mgrwt>
<rscale>  2 0.18641089E+03</rscale>
<asrwt>0</asrwt>
<pdfrwt beam="1">  1       21 0.14250570E-01 0.18641089E+03</pdfrwt>
<pdfrwt beam="2">  1       21 0.57736211E-01 0.18641089E+03</pdfrwt>
<totfact> 0.12141292E+05</totfact>
</mgrwt>
</event>
<event>
 4    1  0.3945814E+000  0.1960801E+03  0.7546771E-02  0.1153089E+00
         21   -1    0    0  503  502  0.00000000000E+00  0.00000000000E+00  0.87930365637E+03  0.87930365637E+03  0.00000000000E+00 0. -1.
         21   -1    0    0  501  503 -0.00000000000E+00 -0.00000000000E+00 -0.47948624102E+02  0.47948624102E+02  0.00000000000E+00 0. -1.
          6    1    1    2  501    0  0.91644448841E+02 -0.10940290716E+02  0.27807332146E+03  0.34025309267E+03  0.17300000000E+03 0. -1.
         -6    1    1    2    0  502 -0.91644448841E+02  0.10940290716E+02  0.55328171080E+03  0.58699918780E+03  0.17300000000E+03 0. -1.
<mgrwt>
<rscale>  2 0.19608007E+03</rscale>
<asrwt>0</asrwt>
<pdfrwt beam="1">  1       21 0.13527747E+00 0.19608007E+03</pdfrwt>
<pdfrwt beam="2">  1       21 0.73767121E-02 0.19608007E+03</pdfrwt>
<totfact> 0.53890065E+04</totfact>
</mgrwt>
</event>
<event>
 4    1  0.3945814E+000  0.1817037E+03  0.7546771E-02  0.1166164E+00
         21   -1    0    0  501  502  0.00000000000E+00  0.00000000000E+00  0.64350750846E+03  0.64350750846E+03  0.00000000000E+00 0.  1.
         21   -1    0    0  502  503 -0.00000000000E+00 -0.00000000000E+00 -0.57394941153E+02  0.57394941153E+02  0.00000000000E+00 0.  1.
          6    1    1    2  501    0 -0.54057481867E+02  0.12845793482E+02  0.17891628638E+03  0.25500443778E+03  0.17300000000E+03 0.  1.
         -6    1    1    2    0  503  0.54057481867E+02 -0.12845793482E+02  0.40719628092E+03  0.44589801183E+03  0.17300000000E+03 0.  1.
<mgrwt>
<rscale>  2 0.18170368E+03</rscale>
<asrwt>0</asrwt>
<pdfrwt beam="1">  1       21 0.99001150E-01 0.18170368E+03</pdfrwt>
<pdfrwt beam="2">  1       21 0.88299914E-02 0.18170368E+03</pdfrwt>
<totfact> 0.85313111E+04</totfact>
</mgrwt>
</event>
<event>
 4    1  0.3945814E+000  0.2232924E+03  0.7546771E-02  0.1131452E+00
         21   -1    0    0  503  502  0.00000000000E+00  0.00000000000E+00  0.19823038464E+03  0.19823038464E+03  0.00000000000E+00 0. -1.
         21   -1    0    0  501  503 -0.00000000000E+00 -0.00000000000E+00 -0.94438766210E+03  0.94438766210E+03  0.00000000000E+00 0. -1.
          6    1    1    2  501    0 -0.13051687841E+03  0.53812946371E+02 -0.86242927399E+03  0.89086684829E+03  0.17300000000E+03 0. -1.
         -6    1    1    2    0  502  0.13051687841E+03 -0.53812946371E+02  0.11627199653E+03  0.25175119845E+03  0.17300000000E+03 0. -1.
<mgrwt>
<rscale>  2 0.22329238E+03</rscale>
<asrwt>0</asrwt>
<pdfrwt beam="1">  1       21 0.30496983E-01 0.22329238E+03</pdfrwt>
<pdfrwt beam="2">  1       21 0.14529041E+00 0.22329238E+03</pdfrwt>
<totfact> 0.32676143E+03</totfact>
</mgrwt>
</event>
<event>
 4    1  0.3945814E+000  0.2508676E+03  0.7546771E-02  0.1112758E+00
         21   -1    0    0  501  502  0.00000000000E+00  0.00000000000E+00  0.58077365687E+03  0.58077365687E+03  0.00000000000E+00 0. -1.
         21   -1    0    0  502  503 -0.00000000000E+00 -0.00000000000E+00 -0.16747355046E+03  0.16747355046E+03  0.00000000000E+00 0. -1.
          6    1    1    2  501    0 -0.16523582773E+03 -0.75516175937E+02  0.42891616816E+03  0.49689400369E+03  0.17300000000E+03 0. -1.
         -6    1    1    2    0  503  0.16523582773E+03  0.75516175937E+02 -0.15616061746E+02  0.25135320364E+03  0.17300000000E+03 0. -1.
<mgrwt>
<rscale>  2 0.25086764E+03</rscale>
<asrwt>0</asrwt>
<pdfrwt beam="1">  1       21 0.89349792E-01 0.25086764E+03</pdfrwt>
<pdfrwt beam="2">  1       21 0.25765162E-01 0.25086764E+03</pdfrwt>
<totfact> 0.14760997E+04</totfact>
</mgrwt>
</event>
<event>
 4    1  0.3945814E+000  0.3336554E+03  0.7546771E-02  0.1069531E+00
         21   -1    0    0  503  502  0.00000000000E+00  0.00000000000E+00  0.16870312000E+03  0.16870312000E+03  0.00000000000E+00 0. -1.
         21   -1    0    0  501  503 -0.00000000000E+00 -0.00000000000E+00 -0.71156310193E+03  0.71156310193E+03  0.00000000000E+00 0. -1.
          6    1    1    2  501    0 -0.20406481050E+03 -0.19938522397E+03 -0.15282599509E+03  0.36699005327E+03  0.17300000000E+03 0. -1.
         -6    1    1    2    0  502  0.20406481050E+03  0.19938522397E+03 -0.39003398685E+03  0.51327616866E+03  0.17300000000E+03 0. -1.
<mgrwt>
<rscale>  2 0.33365538E+03</rscale>
<asrwt>0</asrwt>
<pdfrwt beam="1">  1       21 0.25954326E-01 0.33365538E+03</pdfrwt>
<pdfrwt beam="2">  1       21 0.10947125E+00 0.33365538E+03</pdfrwt>
<totfact> 0.86076803E+03</totfact>
</mgrwt>
</event>
<event>
 4    1  0.3945814E+000  0.2395068E+03  0.7546771E-02  0.1120122E+00
         21   -1    0    0  503  502  0.00000000000E+00  0.00000000000E+00  0.38548338403E+03  0.38548338403E+03  0.00000000000E+00 0. -1.
         21   -1    0    0  501  503 -0.00000000000E+00 -0.00000000000E+00 -0.21617697018E+03  0.21617697018E+03  0.00000000000E+00 0.  1.
          6    1    1    2  501    0  0.16556028377E+03 -0.49305825167E+01 -0.83282251132E+02  0.25357336524E+03  0.17300000000E+03 0.  1.
         -6    1    1    2    0  502 -0.16556028377E+03  0.49305825167E+01  0.25258866498E+03  0.34808698896E+03  0.17300000000E+03 0. -1.
<mgrwt>
<rscale>  2 0.23950682E+03</rscale>
<asrwt>0</asrwt>
<pdfrwt beam="1">  1       21 0.59305136E-01 0.23950682E+03</pdfrwt>
<pdfrwt beam="2">  1       21 0.33257995E-01 0.23950682E+03</pdfrwt>
<totfact> 0.22545643E+04</totfact>
</mgrwt>
</event>
<event>
 4    1  0.3945814E+000  0.2074138E+03  0.7546771E-02  0.1143630E+00
         21   -1    0    0  501  502  0.00000000000E+00  0.00000000000E+00  0.21753475781E+03  0.21753475781E+03  0.00000000000E+00 0.  1.
         21   -1    0    0  502  503 -0.00000000000E+00 -0.00000000000E+00 -0.19776399095E+03  0.19776399095E+03  0.00000000000E+00 0.  1.
          6    1    1    2  501    0  0.10634015056E+03  0.42228704853E+02  0.96598767168E+01  0.20763863887E+03  0.17300000000E+03 0. -1.
         -6    1    1    2    0  503 -0.10634015056E+03 -0.42228704853E+02  0.10110890143E+02  0.20766010988E+03  0.17300000000E+03 0. -1.
<mgrwt>
<rscale>  2 0.20741382E+03</rscale>
<asrwt>0</asrwt>
<pdfrwt beam="1">  1       21 0.33466886E-01 0.20741382E+03</pdfrwt>
<pdfrwt beam="2">  1       21 0.30425230E-01 0.20741382E+03</pdfrwt>
<totfact> 0.88606151E+04</totfact>
</mgrwt>
</event>
<event>
 4    1  0.3945814E+000  0.2916487E+03  0.7546771E-02  0.1089491E+00
         21   -1    0    0  503  502  0.00000000000E+00  0.00000000000E+00  0.19712881844E+03  0.19712881844E+03  0.00000000000E+00 0.  1.
         21   -1    0    0  501  503 -0.00000000000E+00 -0.00000000000E+00 -0.47856249148E+03  0.47856249148E+03  0.00000000000E+00 0.  1.
          6    1    1    2  501    0 -0.16556124056E+03 -0.16649148301E+03 -0.24667555837E+03  0.38197875515E+03  0.17300000000E+03 0.  1.
         -6    1    1    2    0  502  0.16556124056E+03  0.16649148301E+03 -0.34758114667E+02  0.29371255476E+03  0.17300000000E+03 0.  1.
<mgrwt>
<rscale>  2 0.29164866E+03</rscale>
<asrwt>0</asrwt>
<pdfrwt beam="1">  1       21 0.30327510E-01 0.29164866E+03</pdfrwt>
<pdfrwt beam="2">  1       21 0.73624999E-01 0.29164866E+03</pdfrwt>
<totfact> 0.16410560E+04</totfact>
</mgrwt>
</event>
<event>
 4    1  0.3945814E+000  0.1755677E+03  0.7546771E-02  0.1172163E+00
         21   -1    0    0  501  502  0.00000000000E+00  0.00000000000E+00  0.57448477169E+03  0.57448477169E+03  0.00000000000E+00 0. -1.
         21   -1    0    0  502  503 -0.00000000000E+00 -0.00000000000E+00 -0.84058573545E+02  0.84058573545E+02  0.00000000000E+00 0. -1.
          6    1    1    2  501    0 -0.11962213345E+02 -0.27421526443E+02  0.44324037062E+03  0.47674527875E+03  0.17300000000E+03 0.  1.
         -6    1    1    2    0  503  0.11962213345E+02  0.27421526443E+02  0.47185827530E+02  0.18179806649E+03  0.17300000000E+03 0.  1.
<mgrwt>
<rscale>  2 0.17556775E+03</rscale>
<asrwt>0</asrwt>
<pdfrwt beam="1">  1       21 0.88382270E-01 0.17556775E+03</pdfrwt>
<pdfrwt beam="2">  1       21 0.12932089E-01 0.17556775E+03</pdfrwt>
<totfact> 0.56675790E+04</totfact>
</mgrwt>
</event>
<event>
 4    1  0.3945814E+000  0.1953883E+03  0.7546771E-02  0.1153689E+00
         21   -1    0    0  501  502  0.00000000000E+00  0.00000000000E+00  0.60695850934E+03  0.60695850934E+03  0.00000000000E+00 0. -1.
         21   -1    0    0  502  503 -0.00000000000E+00 -0.00000000000E+00 -0.64451625810E+02  0.64451625810E+02  0.00000000000E+00 0. -1.
          6    1    1    2  501    0 -0.46455135823E+02 -0.78035309387E+02  0.32337149530E+03  0.37781703657E+03  0.17300000000E+03 0. -1.
         -6    1    1    2    0  503  0.46455135823E+02  0.78035309387E+02  0.21913538824E+03  0.29359309858E+03  0.17300000000E+03 0. -1.
<mgrwt>
<rscale>  2 0.19538830E+03</rscale>
<asrwt>0</asrwt>
<pdfrwt beam="1">  1       21 0.93378228E-01 0.19538830E+03</pdfrwt>
<pdfrwt beam="2">  1       21 0.99156352E-02 0.19538830E+03</pdfrwt>
<totfact> 0.79338521E+04</totfact>
</mgrwt>
</event>
<event>
 4    1  0.3945814E+000  0.2363553E+03  0.7546771E-02  0.1122245E+00
         21   -1    0    0  501  502  0.00000000000E+00  0.00000000000E+00  0.66616961831E+03  0.66616961831E+03  0.00000000000E+00 0. -1.
         21   -1    0    0  502  503 -0.00000000000E+00 -0.00000000000E+00 -0.86733975838E+02  0.86733975838E+02  0.00000000000E+00 0. -1.
          6    1    1    2  501    0 -0.15896173093E+03 -0.25807306803E+02  0.35826427943E+03  0.42920524566E+03  0.17300000000E+03 0. -1.
         -6    1    1    2    0  503  0.15896173093E+03  0.25807306803E+02  0.22117136304E+03  0.32369834849E+03  0.17300000000E+03 0. -1.
<mgrwt>
<rscale>  2 0.23635534E+03</rscale>
<asrwt>0</asrwt>
<pdfrwt beam="1">  1       21 0.10248763E+00 0.23635534E+03</pdfrwt>
<pdfrwt beam="2">  1       21 0.13343689E-01 0.23635534E+03</pdfrwt>
<totfact> 0.36708707E+04</totfact>
</mgrwt>
</event>
<event>
 4    1  0.3945814E+000  0.2160347E+03  0.7546771E-02  0.1136874E+00
         21   -1    0    0  501  502  0.00000000000E+00  0.00000000000E+00  0.27406590677E+03  0.27406590677E+03  0.00000000000E+00 0. -1.
         21   -1    0    0  502  503 -0.00000000000E+00 -0.00000000000E+00 -0.20836855590E+03  0.20836855590E+03  0.00000000000E+00 0. -1.
          6    1    1    2  501    0 -0.55164575547E+02 -0.11704214557E+03 -0.70267311233E+02  0.22717501901E+03  0.17300000000E+03 0. -1.
         -6    1    1    2    0  503  0.55164575547E+02  0.11704214557E+03  0.13596466211E+03  0.25525944366E+03  0.17300000000E+03 0. -1.
<mgrwt>
<rscale>  2 0.21603471E+03</rscale>
<asrwt>0</asrwt>
<pdfrwt beam="1">  1       21 0.42163986E-01 0.21603471E+03</pdfrwt>
<pdfrwt beam="2">  1       21 0.32056701E-01 0.21603471E+03</pdfrwt>
<totfact> 0.50103501E+04</totfact>
</mgrwt>
</event>
<event>
 4    1  0.3945814E+000  0.2422757E+03  0.7546771E-02  0.1118286E+00
         21   -1    0    0  501  502  0.00000000000E+00  0.00000000000E+00  0.25028637588E+04  0.25028637588E+04  0.00000000000E+00 0.  1.
         21   -1    0    0  502  503 -0.00000000000E+00 -0.00000000000E+00 -0.54833533593E+02  0.54833533593E+02  0.00000000000E+00 0.  1.
          6    1    1    2  501    0 -0.16890473944E+03  0.15481856873E+02  0.21914732423E+04  0.22048248164E+04  0.17300000000E+03 0.  1.
         -6    1    1    2    0  503  0.16890473944E+03 -0.15481856873E+02  0.25655698289E+03  0.35287247607E+03  0.17300000000E+03 0.  1.
<mgrwt>
<rscale>  2 0.24227567E+03</rscale>
<asrwt>0</asrwt>
<pdfrwt beam="1">  1       21 0.38505587E+00 0.24227567E+03</pdfrwt>
<pdfrwt beam="2">  1       21 0.84359302E-02 0.24227567E+03</pdfrwt>
<totfact> 0.11021075E+03</totfact>
</mgrwt>
</event>
<event>
 4    1  0.3945814E+000  0.2196561E+03  0.7546771E-02  0.1134140E+00
         21   -1    0    0  501  502  0.00000000000E+00  0.00000000000E+00  0.13605192793E+03  0.13605192793E+03  0.00000000000E+00 0. -1.
         21   -1    0    0  502  503 -0.00000000000E+00 -0.00000000000E+00 -0.41976569083E+03  0.41976569083E+03  0.00000000000E+00 0. -1.
          6    1    1    2  501    0 -0.59421234940E+02  0.12160977858E+03 -0.32388030228E+02  0.22203109221E+03  0.17300000000E+03 0. -1.
         -6    1    1    2    0  503  0.59421234940E+02 -0.12160977858E+03 -0.25132573267E+03  0.33378652655E+03  0.17300000000E+03 0. -1.
<mgrwt>
<rscale>  2 0.21965614E+03</rscale>
<asrwt>0</asrwt>
<pdfrwt beam="1">  1       21 0.20931066E-01 0.21965614E+03</pdfrwt>
<pdfrwt beam="2">  1       21 0.64579337E-01 0.21965614E+03</pdfrwt>
<totfact> 0.46245611E+04</totfact>
</mgrwt>
</event>
<event>
 4    1  0.3945814E+000  0.2810112E+03  0.7546771E-02  0.1095138E+00
         21   -1    0    0  501  502  0.00000000000E+00  0.00000000000E+00  0.11898998847E+04  0.11898998847E+04  0.00000000000E+00 0. -1.
         21   -1    0    0  502  503 -0.00000000000E+00 -0.00000000000E+00 -0.18291301820E+03  0.18291301820E+03  0.00000000000E+00 0. -1.
          6    1    1    2  501    0 -0.14704543715E+03 -0.16557753351E+03  0.10514071360E+04  0.10883125681E+04  0.17300000000E+03 0. -1.
         -6    1    1    2    0  503  0.14704543715E+03  0.16557753351E+03 -0.44420269479E+02  0.28450033485E+03  0.17300000000E+03 0. -1.
<mgrwt>
<rscale>  2 0.28101117E+03</rscale>
<asrwt>0</asrwt>
<pdfrwt beam="1">  1       21 0.18306152E+00 0.28101117E+03</pdfrwt>
<pdfrwt beam="2">  1       21 0.28140465E-01 0.28101117E+03</pdfrwt>
<totfact> 0.19424557E+03</totfact>
</mgrwt>
</event>
<event>
 4    1  0.3945814E+000  0.1857583E+03  0.7546771E-02  0.1162344E+00
         21   -1    0    0  503  502  0.00000000000E+00  0.00000000000E+00  0.76810325146E+02  0.76810325146E+02  0.00000000000E+00 0.  1.
         21   -1    0    0  501  503 -0.00000000000E+00 -0.00000000000E+00 -0.94366075898E+03  0.94366075898E+03  0.00000000000E+00 0.  1.
          6    1    1    2  501    0  0.67561386687E+02 -0.35513814225E+01 -0.80275282904E+03  0.82396496152E+03  0.17300000000E+03 0.  1.
         -6    1    1    2    0  502 -0.67561386687E+02  0.35513814225E+01 -0.64097604793E+02  0.19650612260E+03  0.17300000000E+03 0.  1.
<mgrwt>
<rscale>  2 0.18575832E+03</rscale>
<asrwt>0</asrwt>
<pdfrwt beam="1">  1       21 0.11816973E-01 0.18575832E+03</pdfrwt>
<pdfrwt beam="2">  1       21 0.14517857E+00 0.18575832E+03</pdfrwt>
<totfact> 0.19730858E+04</totfact>
</mgrwt>
</event>
<event>
 4    1  0.3945814E+000  0.1730980E+03  0.7546771E-02  0.1174655E+00
         21   -1    0    0  501  502  0.00000000000E+00  0.00000000000E+00  0.65689483268E+02  0.65689483268E+02  0.00000000000E+00 0.  1.
         21   -1    0    0  502  503 -0.00000000000E+00 -0.00000000000E+00 -0.90993013665E+03  0.90993013665E+03  0.00000000000E+00 0.  1.
          6    1    1    2  501    0  0.58198796878E+01  0.21572299270E+00 -0.77628431101E+02  0.18970790930E+03  0.17300000000E+03 0.  1.
         -6    1    1    2    0  503 -0.58198796878E+01 -0.21572299270E+00 -0.76661222228E+03  0.78591171062E+03  0.17300000000E+03 0.  1.
<mgrwt>
<rscale>  2 0.17309800E+03</rscale>
<asrwt>0</asrwt>
<pdfrwt beam="1">  1       21 0.10106075E-01 0.17309800E+03</pdfrwt>
<pdfrwt beam="2">  1       21 0.13998925E+00 0.17309800E+03</pdfrwt>
<totfact> 0.28856027E+04</totfact>
</mgrwt>
</event>
<event>
 4    1  0.3945814E+000  0.1739189E+03  0.7546771E-02  0.1173822E+00
         21   -1    0    0  501  502  0.00000000000E+00  0.00000000000E+00  0.19655096496E+02  0.19655096496E+02  0.00000000000E+00 0.  1.
         21   -1    0    0  502  503 -0.00000000000E+00 -0.00000000000E+00 -0.16182525760E+04  0.16182525760E+04  0.00000000000E+00 0.  1.
          6    1    1    2  501    0 -0.14531011590E+02 -0.10374813452E+02 -0.98061591091E+03  0.99591935004E+03  0.17300000000E+03 0. -1.
         -6    1    1    2    0  503  0.14531011590E+02  0.10374813452E+02 -0.61798156864E+03  0.64198832250E+03  0.17300000000E+03 0. -1.
<mgrwt>
<rscale>  2 0.17391891E+03</rscale>
<asrwt>0</asrwt>
<pdfrwt beam="1">  1       21 0.30238608E-02 0.17391891E+03</pdfrwt>
<pdfrwt beam="2">  1       21 0.24896195E+00 0.17391891E+03</pdfrwt>
<totfact> 0.42758208E+04</totfact>
</mgrwt>
</event>
<event>
 4    1  0.3945814E+000  0.2464015E+03  0.7546771E-02  0.1115600E+00
         21   -1    0    0  501  502  0.00000000000E+00  0.00000000000E+00  0.17889850826E+03  0.17889850826E+03  0.00000000000E+00 0.  1.
         21   -1    0    0  502  503 -0.00000000000E+00 -0.00000000000E+00 -0.42205679600E+03  0.42205679600E+03  0.00000000000E+00 0. -1.
          6    1    1    2  501    0  0.17543227736E+03 -0.28661617027E+01  0.11414664023E+02  0.24666575234E+03  0.17300000000E+03 0. -1.
         -6    1    1    2    0  503 -0.17543227736E+03  0.28661617027E+01 -0.25457295177E+03  0.35428955192E+03  0.17300000000E+03 0. -1.
<mgrwt>
<rscale>  2 0.24640150E+03</rscale>
<asrwt>0</asrwt>
<pdfrwt beam="1">  1       21 0.27522848E-01 0.24640150E+03</pdfrwt>
<pdfrwt beam="2">  1       21 0.64931814E-01 0.24640150E+03</pdfrwt>
<totfact> 0.26755053E+04</totfact>
</mgrwt>
</event>
<event>
 4    1  0.3945814E+000  0.2045117E+03  0.7546771E-02  0.1145987E+00
         21   -1    0    0  503  502  0.00000000000E+00  0.00000000000E+00  0.25623128035E+03  0.25623128035E+03  0.00000000000E+00 0.  1.
         21   -1    0    0  501  503 -0.00000000000E+00 -0.00000000000E+00 -0.18877305549E+03  0.18877305549E+03  0.00000000000E+00 0. -1.
          6    1    1    2  501    0 -0.96295693937E+02 -0.51217137707E+02 -0.48114841176E+02  0.21009543976E+03  0.17300000000E+03 0. -1.
         -6    1    1    2    0  502  0.96295693937E+02  0.51217137707E+02  0.11557306603E+03  0.23490889608E+03  0.17300000000E+03 0.  1.
<mgrwt>
<rscale>  2 0.20451175E+03</rscale>
<asrwt>0</asrwt>
<pdfrwt beam="1">  1       21 0.39420197E-01 0.20451175E+03</pdfrwt>
<pdfrwt beam="2">  1       21 0.29042009E-01 0.20451175E+03</pdfrwt>
<totfact> 0.70045152E+04</totfact>
</mgrwt>
</event>
<event>
 4    1  0.3945814E+000  0.1765085E+03  0.7546771E-02  0.1171226E+00
         21   -1    0    0  501  502  0.00000000000E+00  0.00000000000E+00  0.16093236525E+03  0.16093236525E+03  0.00000000000E+00 0.  1.
         21   -1    0    0  502  503 -0.00000000000E+00 -0.00000000000E+00 -0.25515793703E+03  0.25515793703E+03  0.00000000000E+00 0.  1.
          6    1    1    2  501    0 -0.53999510310E+01 -0.34598991531E+02 -0.14930613202E+03  0.23118730662E+03  0.17300000000E+03 0.  1.
         -6    1    1    2    0  503  0.53999510310E+01  0.34598991531E+02  0.55080560238E+02  0.18490299566E+03  0.17300000000E+03 0.  1.
<mgrwt>
<rscale>  2 0.17650850E+03</rscale>
<asrwt>0</asrwt>
<pdfrwt beam="1">  1       21 0.24758825E-01 0.17650850E+03</pdfrwt>
<pdfrwt beam="2">  1       21 0.39255067E-01 0.17650850E+03</pdfrwt>
<totfact> 0.97131087E+04</totfact>
</mgrwt>
</event>
<event>
 4    1  0.3945814E+000  0.1953909E+03  0.7546771E-02  0.1153687E+00
         21   -1    0    0  501  502  0.00000000000E+00  0.00000000000E+00  0.40222222818E+02  0.40222222818E+02  0.00000000000E+00 0.  1.
         21   -1    0    0  502  503 -0.00000000000E+00 -0.00000000000E+00 -0.21299167510E+04  0.21299167510E+04  0.00000000000E+00 0. -1.
          6    1    1    2  501    0  0.25210338937E+02  0.87252713651E+02 -0.23695172452E+03  0.30712166479E+03  0.17300000000E+03 0.  1.
         -6    1    1    2    0  503 -0.25210338937E+02 -0.87252713651E+02 -0.18527428036E+04  0.18630173090E+04  0.17300000000E+03 0. -1.
<mgrwt>
<rscale>  2 0.19539088E+03</rscale>
<asrwt>0</asrwt>
<pdfrwt beam="1">  1       21 0.61880333E-02 0.19539088E+03</pdfrwt>
<pdfrwt beam="2">  1       21 0.32767955E+00 0.19539088E+03</pdfrwt>
<totfact> 0.44030132E+03</totfact>
</mgrwt>
</event>
<event>
 4    1  0.3945814E+000  0.2426635E+03  0.7546771E-02  0.1118031E+00
         21   -1    0    0  503  502  0.00000000000E+00  0.00000000000E+00  0.61550380301E+02  0.61550380301E+02  0.00000000000E+00 0.  1.
         21   -1    0    0  501  503 -0.00000000000E+00 -0.00000000000E+00 -0.96720351201E+03  0.96720351201E+03  0.00000000000E+00 0.  1.
          6    1    1    2  501    0 -0.10965224575E+03  0.13012678130E+03 -0.50641533653E+03  0.56155328089E+03  0.17300000000E+03 0.  1.
         -6    1    1    2    0  502  0.10965224575E+03 -0.13012678130E+03 -0.39923779518E+03  0.46720061142E+03  0.17300000000E+03 0.  1.
<mgrwt>
<rscale>  2 0.24266354E+03</rscale>
<asrwt>0</asrwt>
<pdfrwt beam="1">  1       21 0.94692902E-02 0.24266354E+03</pdfrwt>
<pdfrwt beam="2">  1       21 0.14880053E+00 0.24266354E+03</pdfrwt>
<totfact> 0.26478490E+04</totfact>
</mgrwt>
</event>
<event>
 4    1  0.3945814E+000  0.2319949E+03  0.7546771E-02  0.1125243E+00
         21   -1    0    0  501  502  0.00000000000E+00  0.00000000000E+00  0.73662708203E+03  0.73662708203E+03  0.00000000000E+00 0. -1.
         21   -1    0    0  502  503 -0.00000000000E+00 -0.00000000000E+00 -0.11386459286E+03  0.11386459286E+03  0.00000000000E+00 0.  1.
          6    1    1    2  501    0  0.31030291556E+02 -0.15142574891E+03  0.56593164882E+03  0.61163736607E+03  0.17300000000E+03 0. -1.
         -6    1    1    2    0  503 -0.31030291556E+02  0.15142574891E+03  0.56830840348E+02  0.23885430882E+03  0.17300000000E+03 0.  1.
<mgrwt>
<rscale>  2 0.23199491E+03</rscale>
<asrwt>0</asrwt>
<pdfrwt beam="1">  1       21 0.11332724E+00 0.23199491E+03</pdfrwt>
<pdfrwt beam="2">  1       21 0.17517630E-01 0.23199491E+03</pdfrwt>
<totfact> 0.17507803E+04</totfact>
</mgrwt>
</event>
<event>
 4    1  0.3945814E+000  0.3352868E+03  0.7546771E-02  0.1068821E+00
         21   -1    0    0  503  502  0.00000000000E+00  0.00000000000E+00  0.23450431407E+03  0.23450431407E+03  0.00000000000E+00 0.  1.
         21   -1    0    0  501  503 -0.00000000000E+00 -0.00000000000E+00 -0.52640879784E+03  0.52640879784E+03  0.00000000000E+00 0. -1.
          6    1    1    2  501    0 -0.15052576378E+03  0.24460218060E+03 -0.25966639682E+03  0.42408002777E+03  0.17300000000E+03 0. -1.
         -6    1    1    2    0  502  0.15052576378E+03 -0.24460218060E+03 -0.32238086947E+02  0.33683308414E+03  0.17300000000E+03 0.  1.
<mgrwt>
<rscale>  2 0.33528679E+03</rscale>
<asrwt>0</asrwt>
<pdfrwt beam="1">  1       21 0.36077587E-01 0.33528679E+03</pdfrwt>
<pdfrwt beam="2">  1       21 0.80985969E-01 0.33528679E+03</pdfrwt>
<totfact> 0.91768190E+03</totfact>
</mgrwt>
</event>
<event>
 4    1  0.3945814E+000  0.2148885E+03  0.7546771E-02  0.1137752E+00
         21   -1    0    0  503  502  0.00000000000E+00  0.00000000000E+00  0.26129915508E+03  0.26129915508E+03  0.00000000000E+00 0.  1.
         21   -1    0    0  501  503 -0.00000000000E+00 -0.00000000000E+00 -0.22009617054E+03  0.22009617054E+03  0.00000000000E+00 0.  1.
          6    1    1    2  501    0  0.12194094894E+03 -0.37127810427E+02 -0.86251286010E+02  0.23155205392E+03  0.17300000000E+03 0.  1.
         -6    1    1    2    0  502 -0.12194094894E+03  0.37127810427E+02  0.12745427055E+03  0.24984327171E+03  0.17300000000E+03 0.  1.
<mgrwt>
<rscale>  2 0.21488850E+03</rscale>
<asrwt>0</asrwt>
<pdfrwt beam="1">  1       21 0.40199870E-01 0.21488850E+03</pdfrwt>
<pdfrwt beam="2">  1       21 0.33860950E-01 0.21488850E+03</pdfrwt>
<totfact> 0.49573875E+04</totfact>
</mgrwt>
</event>
<event>
 4    1  0.3945814E+000  0.2300713E+03  0.7546771E-02  0.1126590E+00
         21   -1    0    0  503  502  0.00000000000E+00  0.00000000000E+00  0.61400867380E+03  0.61400867380E+03  0.00000000000E+00 0. -1.
         21   -1    0    0  501  503 -0.00000000000E+00 -0.00000000000E+00 -0.91474141319E+02  0.91474141319E+02  0.00000000000E+00 0.  1.
          6    1    1    2  501    0 -0.11667450646E+03  0.96906517633E+02  0.34589832264E+03  0.41542564103E+03  0.17300000000E+03 0.  1.
         -6    1    1    2    0  502  0.11667450646E+03 -0.96906517633E+02  0.17663620984E+03  0.29005717409E+03  0.17300000000E+03 0.  1.
<mgrwt>
<rscale>  2 0.23007132E+03</rscale>
<asrwt>0</asrwt>
<pdfrwt beam="1">  1       21 0.94462871E-01 0.23007132E+03</pdfrwt>
<pdfrwt beam="2">  1       21 0.14072945E-01 0.23007132E+03</pdfrwt>
<totfact> 0.40570410E+04</totfact>
</mgrwt>
</event>
<event>
 4    1  0.3945814E+000  0.1746887E+03  0.7546771E-02  0.1173045E+00
         21   -1    0    0  503  502  0.00000000000E+00  0.00000000000E+00  0.95579028253E+02  0.95579028253E+02  0.00000000000E+00 0. -1.
         21   -1    0    0  501  503 -0.00000000000E+00 -0.00000000000E+00 -0.70872310563E+03  0.70872310563E+03  0.00000000000E+00 0. -1.
          6    1    1    2  501    0 -0.16219304867E+02 -0.18002089024E+02 -0.60468088975E+03  0.62940854736E+03  0.17300000000E+03 0. -1.
         -6    1    1    2    0  502  0.16219304867E+02  0.18002089024E+02 -0.84631876178E+01  0.17489358652E+03  0.17300000000E+03 0. -1.
<mgrwt>
<rscale>  2 0.17468870E+03</rscale>
<asrwt>0</asrwt>
<pdfrwt beam="1">  1       21 0.14704466E-01 0.17468870E+03</pdfrwt>
<pdfrwt beam="2">  1       21 0.10903433E+00 0.17468870E+03</pdfrwt>
<totfact> 0.27427829E+04</totfact>
</mgrwt>
</event>
<event>
 4    1  0.3945814E+000  0.1829145E+03  0.7546771E-02  0.1165012E+00
         21   -1    0    0  503  502  0.00000000000E+00  0.00000000000E+00  0.10784360854E+03  0.10784360854E+03  0.00000000000E+00 0. -1.
         21   -1    0    0  501  503 -0.00000000000E+00 -0.00000000000E+00 -0.35415284361E+03  0.35415284361E+03  0.00000000000E+00 0. -1.
          6    1    1    2  501    0 -0.13238741200E+02 -0.57909109482E+02 -0.20449271560E+03  0.27436289830E+03  0.17300000000E+03 0. -1.
         -6    1    1    2    0  502  0.13238741200E+02  0.57909109482E+02 -0.41816519480E+02  0.18763355385E+03  0.17300000000E+03 0. -1.
<mgrwt>
<rscale>  2 0.18291454E+03</rscale>
<asrwt>0</asrwt>
<pdfrwt beam="1">  1       21 0.16591324E-01 0.18291454E+03</pdfrwt>
<pdfrwt beam="2">  1       21 0.54485053E-01 0.18291454E+03</pdfrwt>
<totfact> 0.10418203E+05</totfact>
</mgrwt>
</event>
<event>
 4    1  0.3945814E+000  0.3294389E+03  0.7546771E-02  0.1071385E+00
         21   -1    0    0  501  502  0.00000000000E+00  0.00000000000E+00  0.75544351338E+03  0.75544351338E+03  0.00000000000E+00 0. -1.
         21   -1    0    0  502  503 -0.00000000000E+00 -0.00000000000E+00 -0.16416688260E+03  0.16416688260E+03  0.00000000000E+00 0.  1.
          6    1    1    2  501    0  0.13370843727E+03  0.24642051859E+03  0.45813287525E+03  0.56428339473E+03  0.17300000000E+03 0. -1.
         -6    1    1    2    0  503 -0.13370843727E+03 -0.24642051859E+03  0.13314375553E+03  0.35532700125E+03  0.17300000000E+03 0.  1.
<mgrwt>
<rscale>  2 0.32943894E+03</rscale>
<asrwt>0</asrwt>
<pdfrwt beam="1">  1       21 0.11622208E+00 0.32943894E+03</pdfrwt>
<pdfrwt beam="2">  1       21 0.25256444E-01 0.32943894E+03</pdfrwt>
<totfact> 0.78418755E+03</totfact>
</mgrwt>
</event>
<event>
 4    1  0.3945814E+000  0.1802182E+03  0.7546771E-02  0.1167592E+00
         21   -1    0    0  503  502  0.00000000000E+00  0.00000000000E+00  0.18091204325E+03  0.18091204325E+03  0.00000000000E+00 0.  1.
         21   -1    0    0  501  503 -0.00000000000E+00 -0.00000000000E+00 -0.37306959410E+03  0.37306959410E+03  0.00000000000E+00 0.  1.
          6    1    1    2  501    0 -0.26233910061E+02 -0.43143743378E+02 -0.29558603312E+03  0.34619315938E+03  0.17300000000E+03 0.  1.
         -6    1    1    2    0  502  0.26233910061E+02  0.43143743378E+02  0.10342848227E+03  0.20778847796E+03  0.17300000000E+03 0.  1.
<mgrwt>
<rscale>  2 0.18021820E+03</rscale>
<asrwt>0</asrwt>
<pdfrwt beam="1">  1       21 0.27832623E-01 0.18021820E+03</pdfrwt>
<pdfrwt beam="2">  1       21 0.57395321E-01 0.18021820E+03</pdfrwt>
<totfact> 0.35346859E+04</totfact>
</mgrwt>
</event>
<event>
 4    1  0.3945814E+000  0.1816325E+03  0.7546771E-02  0.1166232E+00
         21   -1    0    0  501  502  0.00000000000E+00  0.00000000000E+00  0.24619956443E+02  0.24619956443E+02  0.00000000000E+00 0.  1.
         21   -1    0    0  502  503 -0.00000000000E+00 -0.00000000000E+00 -0.25058685677E+04  0.25058685677E+04  0.00000000000E+00 0.  1.
          6    1    1    2  501    0  0.49131661374E+02 -0.25445201338E+02 -0.37760049745E+03  0.41901373974E+03  0.17300000000E+03 0.  1.
         -6    1    1    2    0  503 -0.49131661374E+02  0.25445201338E+02 -0.21036481138E+04  0.21114747844E+04  0.17300000000E+03 0.  1.
<mgrwt>
<rscale>  2 0.18163254E+03</rscale>
<asrwt>0</asrwt>
<pdfrwt beam="1">  1       21 0.37876859E-02 0.18163254E+03</pdfrwt>
<pdfrwt beam="2">  1       21 0.38551821E+00 0.18163254E+03</pdfrwt>
<totfact> 0.46659884E+03</totfact>
</mgrwt>
</event>
<event>
 4    1  0.3945814E+000  0.1954808E+03  0.7546771E-02  0.1153609E+00
         21   -1    0    0  501  502  0.00000000000E+00  0.00000000000E+00  0.21707900078E+03  0.21707900078E+03  0.00000000000E+00 0.  1.
         21   -1    0    0  502  503 -0.00000000000E+00 -0.00000000000E+00 -0.19238565899E+03  0.19238565899E+03  0.00000000000E+00 0.  1.
          6    1    1    2  501    0  0.60404616576E+02 -0.68081068301E+02 -0.47344999727E+02  0.20113253979E+03  0.17300000000E+03 0.  1.
         -6    1    1    2    0  503 -0.60404616576E+02  0.68081068301E+02  0.72038341516E+02  0.20833211997E+03  0.17300000000E+03 0.  1.
<mgrwt>
<rscale>  2 0.19548082E+03</rscale>
<asrwt>0</asrwt>
<pdfrwt beam="1">  1       21 0.33396769E-01 0.19548082E+03</pdfrwt>
<pdfrwt beam="2">  1       21 0.29597794E-01 0.19548082E+03</pdfrwt>
<totfact> 0.94358103E+04</totfact>
</mgrwt>
</event>
<event>
 4    1  0.3945814E+000  0.2192195E+03  0.7546771E-02  0.1134466E+00
         21   -1    0    0  501  502  0.00000000000E+00  0.00000000000E+00  0.78472916438E+03  0.78472916438E+03  0.00000000000E+00 0. -1.
         21   -1    0    0  502  503 -0.00000000000E+00 -0.00000000000E+00 -0.13717824634E+03  0.13717824634E+03  0.00000000000E+00 0.  1.
          6    1    1    2  501    0 -0.10595503011E+03  0.83076630073E+02  0.66673554637E+03  0.70185004357E+03  0.17300000000E+03 0. -1.
         -6    1    1    2    0  503  0.10595503011E+03 -0.83076630073E+02 -0.19184628327E+02  0.22005736714E+03  0.17300000000E+03 0.  1.
<mgrwt>
<rscale>  2 0.21921951E+03</rscale>
<asrwt>0</asrwt>
<pdfrwt beam="1">  1       21 0.12072756E+00 0.21921951E+03</pdfrwt>
<pdfrwt beam="2">  1       21 0.21104346E-01 0.21921951E+03</pdfrwt>
<totfact> 0.10660939E+04</totfact>
</mgrwt>
</event>
<event>
 4    1  0.3945814E+000  0.1961811E+03  0.7546771E-02  0.1153002E+00
         21   -1    0    0  501  502  0.00000000000E+00  0.00000000000E+00  0.23571844643E+03  0.23571844643E+03  0.00000000000E+00 0.  1.
         21   -1    0    0  502  503 -0.00000000000E+00 -0.00000000000E+00 -0.16462322582E+03  0.16462322582E+03  0.00000000000E+00 0.  1.
          6    1    1    2  501    0  0.39972043881E+01  0.92423132948E+02  0.17435072757E+02  0.19695429650E+03  0.17300000000E+03 0. -1.
         -6    1    1    2    0  503 -0.39972043881E+01 -0.92423132948E+02  0.53660147857E+02  0.20338737575E+03  0.17300000000E+03 0. -1.
<mgrwt>
<rscale>  2 0.19618107E+03</rscale>
<asrwt>0</asrwt>
<pdfrwt beam="1">  1       21 0.36264376E-01 0.19618107E+03</pdfrwt>
<pdfrwt beam="2">  1       21 0.25326650E-01 0.19618107E+03</pdfrwt>
<totfact> 0.10820439E+05</totfact>
</mgrwt>
</event>
<event>
 4    1  0.3945814E+000  0.2339000E+03  0.7546771E-02  0.1123924E+00
         21   -1    0    0  503  502  0.00000000000E+00  0.00000000000E+00  0.45503685650E+03  0.45503685650E+03  0.00000000000E+00 0. -1.
         21   -1    0    0  501  503 -0.00000000000E+00 -0.00000000000E+00 -0.32555462405E+03  0.32555462405E+03  0.00000000000E+00 0.  1.
          6    1    1    2  501    0  0.25027598814E+02 -0.15541500340E+03 -0.24521635577E+03  0.33888090109E+03  0.17300000000E+03 0.  1.
         -6    1    1    2    0  502 -0.25027598814E+02  0.15541500340E+03  0.37469858822E+03  0.44171057945E+03  0.17300000000E+03 0. -1.
<mgrwt>
<rscale>  2 0.23389999E+03</rscale>
<asrwt>0</asrwt>
<pdfrwt beam="1">  1       21 0.70005670E-01 0.23389999E+03</pdfrwt>
<pdfrwt beam="2">  1       21 0.50085327E-01 0.23389999E+03</pdfrwt>
<totfact> 0.68358052E+03</totfact>
</mgrwt>
</event>
<event>
 4    1  0.3945814E+000  0.2156919E+03  0.7546771E-02  0.1137136E+00
         21   -1    0    0  503  502  0.00000000000E+00  0.00000000000E+00  0.47455556004E+02  0.47455556004E+02  0.00000000000E+00 0. -1.
         21   -1    0    0  501  503 -0.00000000000E+00 -0.00000000000E+00 -0.10078225605E+04  0.10078225605E+04  0.00000000000E+00 0. -1.
          6    1    1    2  501    0  0.12691629926E+03 -0.22050980724E+02 -0.56730086531E+03  0.60692113536E+03  0.17300000000E+03 0.  1.
         -6    1    1    2    0  502 -0.12691629926E+03  0.22050980724E+02 -0.39306613923E+03  0.44835698118E+03  0.17300000000E+03 0.  1.
<mgrwt>
<rscale>  2 0.21569189E+03</rscale>
<asrwt>0</asrwt>
<pdfrwt beam="1">  1       21 0.73008559E-02 0.21569189E+03</pdfrwt>
<pdfrwt beam="2">  1       21 0.15504960E+00 0.21569189E+03</pdfrwt>
<totfact> 0.37992412E+04</totfact>
</mgrwt>
</event>
<event>
 4    1  0.3945814E+000  0.4250487E+03  0.7546771E-02  0.1035436E+00
         21   -1    0    0  503  502  0.00000000000E+00  0.00000000000E+00  0.12997311309E+03  0.12997311309E+03  0.00000000000E+00 0. -1.
         21   -1    0    0  501  503 -0.00000000000E+00 -0.00000000000E+00 -0.13977590471E+04  0.13977590471E+04  0.00000000000E+00 0. -1.
          6    1    1    2  501    0  0.34035534276E+03  0.18680385067E+03 -0.69069752156E+03  0.81100524305E+03  0.17300000000E+03 0. -1.
         -6    1    1    2    0  502 -0.34035534276E+03 -0.18680385067E+03 -0.57708841243E+03  0.71672691713E+03  0.17300000000E+03 0. -1.
<mgrwt>
<rscale>  2 0.42504875E+03</rscale>
<asrwt>0</asrwt>
<pdfrwt beam="1">  1       21 0.19995864E-01 0.42504875E+03</pdfrwt>
<pdfrwt beam="2">  1       21 0.21503985E+00 0.42504875E+03</pdfrwt>
<totfact> 0.21235379E+03</totfact>
</mgrwt>
</event>
<event>
 4    1  0.3945814E+000  0.2048997E+03  0.7546771E-02  0.1145670E+00
         21   -1    0    0  503  502  0.00000000000E+00  0.00000000000E+00  0.62773387997E+02  0.62773387997E+02  0.00000000000E+00 0.  1.
         21   -1    0    0  501  503 -0.00000000000E+00 -0.00000000000E+00 -0.12694367823E+04  0.12694367823E+04  0.00000000000E+00 0. -1.
          6    1    1    2  501    0  0.29906059234E+02  0.10564326975E+03 -0.10615128650E+04  0.10811075041E+04  0.17300000000E+03 0. -1.
         -6    1    1    2    0  502 -0.29906059234E+02 -0.10564326975E+03 -0.14515052930E+03  0.25110266621E+03  0.17300000000E+03 0.  1.
<mgrwt>
<rscale>  2 0.20489967E+03</rscale>
<asrwt>0</asrwt>
<pdfrwt beam="1">  1       21 0.96574453E-02 0.20489967E+03</pdfrwt>
<pdfrwt beam="2">  1       21 0.19529795E+00 0.20489967E+03</pdfrwt>
<totfact> 0.12304638E+04</totfact>
</mgrwt>
</event>
<event>
 4    1  0.3945814E+000  0.1918385E+03  0.7546771E-02  0.1156813E+00
         21   -1    0    0  503  502  0.00000000000E+00  0.00000000000E+00  0.11792386321E+03  0.11792386321E+03  0.00000000000E+00 0.  1.
         21   -1    0    0  501  503 -0.00000000000E+00 -0.00000000000E+00 -0.42673812914E+03  0.42673812914E+03  0.00000000000E+00 0.  1.
          6    1    1    2  501    0  0.79059326370E+02  0.24952965516E+02 -0.29556763080E+03  0.35236664421E+03  0.17300000000E+03 0.  1.
         -6    1    1    2    0  502 -0.79059326370E+02 -0.24952965516E+02 -0.13246635131E+02  0.19229534814E+03  0.17300000000E+03 0.  1.
<mgrwt>
<rscale>  2 0.19183855E+03</rscale>
<asrwt>0</asrwt>
<pdfrwt beam="1">  1       21 0.18142133E-01 0.19183855E+03</pdfrwt>
<pdfrwt beam="2">  1       21 0.65652020E-01 0.19183855E+03</pdfrwt>
<totfact> 0.59034706E+04</totfact>
</mgrwt>
</event>
<event>
 4    1  0.3945814E+000  0.1734513E+03  0.7546771E-02  0.1174296E+00
         21   -1    0    0  503  502  0.00000000000E+00  0.00000000000E+00  0.58170445642E+02  0.58170445642E+02  0.00000000000E+00 0.  1.
         21   -1    0    0  501  503 -0.00000000000E+00 -0.00000000000E+00 -0.59766492866E+03  0.59766492866E+03  0.00000000000E+00 0.  1.
          6    1    1    2  501    0 -0.47797291243E+01 -0.11554384514E+02 -0.39007284643E+03  0.42689831943E+03  0.17300000000E+03 0.  1.
         -6    1    1    2    0  502  0.47797291243E+01  0.11554384514E+02 -0.14942163659E+03  0.22893705487E+03  0.17300000000E+03 0.  1.
<mgrwt>
<rscale>  2 0.17345129E+03</rscale>
<asrwt>0</asrwt>
<pdfrwt beam="1">  1       21 0.89492994E-02 0.17345129E+03</pdfrwt>
<pdfrwt beam="2">  1       21 0.91948450E-01 0.17345129E+03</pdfrwt>
<totfact> 0.99401023E+04</totfact>
</mgrwt>
</event>
<event>
 4    1  0.3945814E+000  0.2141615E+03  0.7546771E-02  0.1138312E+00
         21   -1    0    0  501  502  0.00000000000E+00  0.00000000000E+00  0.44789275589E+02  0.44789275589E+02  0.00000000000E+00 0.  1.
         21   -1    0    0  502  503 -0.00000000000E+00 -0.00000000000E+00 -0.10910275075E+04  0.10910275075E+04  0.00000000000E+00 0. -1.
          6    1    1    2  501    0  0.12248620514E+03  0.30549840939E+02 -0.38237877307E+03  0.43826782830E+03  0.17300000000E+03 0.  1.
         -6    1    1    2    0  503 -0.12248620514E+03 -0.30549840939E+02 -0.66385945887E+03  0.69754895481E+03  0.17300000000E+03 0.  1.
<mgrwt>
<rscale>  2 0.21416154E+03</rscale>
<asrwt>0</asrwt>
<pdfrwt beam="1">  1       21 0.68906585E-02 0.21416154E+03</pdfrwt>
<pdfrwt beam="2">  1       21 0.16785037E+00 0.21416154E+03</pdfrwt>
<totfact> 0.33885153E+04</totfact>
</mgrwt>
</event>
<event>
 4    1  0.3945814E+000  0.1941324E+03  0.7546771E-02  0.1154786E+00
         21   -1    0    0  503  502  0.00000000000E+00  0.00000000000E+00  0.46179992711E+03  0.46179992711E+03  0.00000000000E+00 0. -1.
         21   -1    0    0  501  503 -0.00000000000E+00 -0.00000000000E+00 -0.82500834840E+02  0.82500834840E+02  0.00000000000E+00 0. -1.
          6    1    1    2  501    0  0.83135662144E+02  0.29100891524E+02  0.16136645680E+03  0.25244114876E+03  0.17300000000E+03 0. -1.
         -6    1    1    2    0  502 -0.83135662144E+02 -0.29100891524E+02  0.21793263547E+03  0.29185961319E+03  0.17300000000E+03 0. -1.
<mgrwt>
<rscale>  2 0.19413243E+03</rscale>
<asrwt>0</asrwt>
<pdfrwt beam="1">  1       21 0.71046141E-01 0.19413243E+03</pdfrwt>
<pdfrwt beam="2">  1       21 0.12692436E-01 0.19413243E+03</pdfrwt>
<totfact> 0.95107479E+04</totfact>
</mgrwt>
</event>
<event>
 4    1  0.3945814E+000  0.2170205E+03  0.7546771E-02  0.1136124E+00
         21   -1    0    0  501  502  0.00000000000E+00  0.00000000000E+00  0.31776637395E+02  0.31776637395E+02  0.00000000000E+00 0. -1.
         21   -1    0    0  502  503 -0.00000000000E+00 -0.00000000000E+00 -0.32426015250E+04  0.32426015250E+04  0.00000000000E+00 0.  1.
          6    1    1    2  501    0 -0.98811231708E+02  0.86053608028E+02 -0.39908963082E+03  0.45428010785E+03  0.17300000000E+03 0. -1.
         -6    1    1    2    0  503  0.98811231708E+02 -0.86053608028E+02 -0.28117352568E+04  0.28200980545E+04  0.17300000000E+03 0.  1.
<mgrwt>
<rscale>  2 0.21702047E+03</rscale>
<asrwt>0</asrwt>
<pdfrwt beam="1">  1       21 0.48887124E-02 0.21702047E+03</pdfrwt>
<pdfrwt beam="2">  1       21 0.49886188E+00 0.21702047E+03</pdfrwt>
<totfact> 0.51865752E+02</totfact>
</mgrwt>
</event>
<event>
 4    1  0.3945814E+000  0.2265281E+03  0.7546771E-02  0.1129108E+00
         21   -1    0    0  503  502  0.00000000000E+00  0.00000000000E+00  0.21158160083E+04  0.21158160083E+04  0.00000000000E+00 0.  1.
         21   -1    0    0  501  503 -0.00000000000E+00 -0.00000000000E+00 -0.63378250287E+02  0.63378250287E+02  0.00000000000E+00 0.  1.
          6    1    1    2  501    0 -0.11955469311E+03  0.84217943700E+02  0.17011960830E+03  0.28329431306E+03  0.17300000000E+03 0.  1.
         -6    1    1    2    0  502  0.11955469311E+03 -0.84217943700E+02  0.18823181497E+04  0.18958999455E+04  0.17300000000E+03 0.  1.
<mgrwt>
<rscale>  2 0.22652811E+03</rscale>
<asrwt>0</asrwt>
<pdfrwt beam="1">  1       21 0.32551010E+00 0.22652811E+03</pdfrwt>
<pdfrwt beam="2">  1       21 0.97505016E-02 0.22652811E+03</pdfrwt>
<totfact> 0.19786301E+03</totfact>
</mgrwt>
</event>
<event>
 4    1  0.3945814E+000  0.2335845E+03  0.7546771E-02  0.1124142E+00
         21   -1    0    0  501  502  0.00000000000E+00  0.00000000000E+00  0.16446064633E+04  0.16446064633E+04  0.00000000000E+00 0. -1.
         21   -1    0    0  502  503 -0.00000000000E+00 -0.00000000000E+00 -0.36990092504E+02  0.36990092504E+02  0.00000000000E+00 0. -1.
          6    1    1    2  501    0  0.15153412304E+03 -0.40867257496E+02  0.10737907660E+04  0.10989032407E+04  0.17300000000E+03 0.  1.
         -6    1    1    2    0  503 -0.15153412304E+03  0.40867257496E+02  0.53382560478E+03  0.58269331513E+03  0.17300000000E+03 0.  1.
<mgrwt>
<rscale>  2 0.23358451E+03</rscale>
<asrwt>0</asrwt>
<pdfrwt beam="1">  1       21 0.25301632E+00 0.23358451E+03</pdfrwt>
<pdfrwt beam="2">  1       21 0.56907847E-02 0.23358451E+03</pdfrwt>
<totfact> 0.13299118E+04</totfact>
</mgrwt>
</event>
<event>
 4    1  0.3945814E+000  0.3815109E+03  0.7546771E-02  0.1050377E+00
         21   -1    0    0  503  502  0.00000000000E+00  0.00000000000E+00  0.33506414987E+03  0.33506414987E+03  0.00000000000E+00 0.  1.
         21   -1    0    0  501  503 -0.00000000000E+00 -0.00000000000E+00 -0.49877365530E+03  0.49877365530E+03  0.00000000000E+00 0.  1.
          6    1    1    2  501    0  0.16378743618E+03  0.29798530416E+03 -0.23163930124E+03  0.44632648546E+03  0.17300000000E+03 0.  1.
         -6    1    1    2    0  502 -0.16378743618E+03 -0.29798530416E+03  0.67929795799E+02  0.38751131971E+03  0.17300000000E+03 0.  1.
<mgrwt>
<rscale>  2 0.38151090E+03</rscale>
<asrwt>0</asrwt>
<pdfrwt beam="1">  1       21 0.51548331E-01 0.38151090E+03</pdfrwt>
<pdfrwt beam="2">  1       21 0.76734408E-01 0.38151090E+03</pdfrwt>
<totfact> 0.48655920E+03</totfact>
</mgrwt>
</event>
<event>
 4    1  0.3945814E+000  0.3747449E+03  0.7546771E-02  0.1052893E+00
         21   -1    0    0  501  502  0.00000000000E+00  0.00000000000E+00  0.64969812720E+02  0.64969812720E+02  0.00000000000E+00 0.  1.
         21   -1    0    0  502  503 -0.00000000000E+00 -0.00000000000E+00 -0.22825777830E+04  0.22825777830E+04  0.00000000000E+00 0. -1.
          6    1    1    2  501    0 -0.27467269933E+03 -0.18724226736E+03 -0.13791140455E+04  0.14291218664E+04  0.17300000000E+03 0. -1.
         -6    1    1    2    0  503  0.27467269933E+03  0.18724226736E+03 -0.83849392479E+03  0.91842572936E+03  0.17300000000E+03 0.  1.
<mgrwt>
<rscale>  2 0.37474492E+03</rscale>
<asrwt>0</asrwt>
<pdfrwt beam="1">  1       21 0.99953560E-02 0.37474492E+03</pdfrwt>
<pdfrwt beam="2">  1       21 0.35116581E+00 0.37474492E+03</pdfrwt>
<totfact> 0.11671676E+03</totfact>
</mgrwt>
</event>
<event>
 4    1  0.3945814E+000  0.1950443E+03  0.7546771E-02  0.1153989E+00
         21   -1    0    0  503  502  0.00000000000E+00  0.00000000000E+00  0.11066573804E+04  0.11066573804E+04  0.00000000000E+00 0.  1.
         21   -1    0    0  501  503 -0.00000000000E+00 -0.00000000000E+00 -0.48874825426E+02  0.48874825426E+02  0.00000000000E+00 0.  1.
          6    1    1    2  501    0 -0.99250440300E+01  0.89525279610E+02  0.21420472398E+03  0.28969975141E+03  0.17300000000E+03 0.  1.
         -6    1    1    2    0  502  0.99250440300E+01 -0.89525279610E+02  0.84357783103E+03  0.86583245446E+03  0.17300000000E+03 0.  1.
<mgrwt>
<rscale>  2 0.19504431E+03</rscale>
<asrwt>0</asrwt>
<pdfrwt beam="1">  1       21 0.17025496E+00 0.19504431E+03</pdfrwt>
<pdfrwt beam="2">  1       21 0.75192047E-02 0.19504431E+03</pdfrwt>
<totfact> 0.28355655E+04</totfact>
</mgrwt>
</event>
<event>
 4    1  0.3945814E+000  0.3379567E+03  0.7546771E-02  0.1067670E+00
         21   -1    0    0  501  502  0.00000000000E+00  0.00000000000E+00  0.84576330259E+03  0.84576330259E+03  0.00000000000E+00 0.  1.
         21   -1    0    0  502  503 -0.00000000000E+00 -0.00000000000E+00 -0.15561896632E+03  0.15561896632E+03  0.00000000000E+00 0. -1.
          6    1    1    2  501    0 -0.21271109633E+03 -0.19758479564E+03  0.52713211537E+03  0.62616533681E+03  0.17300000000E+03 0.  1.
         -6    1    1    2    0  503  0.21271109633E+03  0.19758479564E+03  0.16301222090E+03  0.37521693210E+03  0.17300000000E+03 0. -1.
<mgrwt>
<rscale>  2 0.33795675E+03</rscale>
<asrwt>0</asrwt>
<pdfrwt beam="1">  1       21 0.13011743E+00 0.33795675E+03</pdfrwt>
<pdfrwt beam="2">  1       21 0.23941380E-01 0.33795675E+03</pdfrwt>
<totfact> 0.65047830E+03</totfact>
</mgrwt>
</event>
<event>
 4    1  0.3945814E+000  0.1836584E+03  0.7546771E-02  0.1164309E+00
         21   -1    0    0  503  502  0.00000000000E+00  0.00000000000E+00  0.30408791000E+03  0.30408791000E+03  0.00000000000E+00 0.  1.
         21   -1    0    0  501  503 -0.00000000000E+00 -0.00000000000E+00 -0.15041237260E+03  0.15041237260E+03  0.00000000000E+00 0.  1.
          6    1    1    2  501    0 -0.60353784734E+02 -0.12602970222E+02 -0.39601968046E+02  0.18787956265E+03  0.17300000000E+03 0.  1.
         -6    1    1    2    0  502  0.60353784734E+02  0.12602970222E+02  0.19327750545E+03  0.26662071995E+03  0.17300000000E+03 0.  1.
<mgrwt>
<rscale>  2 0.18365842E+03</rscale>
<asrwt>0</asrwt>
<pdfrwt beam="1">  1       21 0.46782755E-01 0.18365842E+03</pdfrwt>
<pdfrwt beam="2">  1       21 0.23140365E-01 0.18365842E+03</pdfrwt>
<totfact> 0.77031564E+04</totfact>
</mgrwt>
</event>
<event>
 4    1  0.3945814E+000  0.1897892E+03  0.7546771E-02  0.1158652E+00
         21   -1    0    0  503  502  0.00000000000E+00  0.00000000000E+00  0.23413834635E+02  0.23413834635E+02  0.00000000000E+00 0. -1.
         21   -1    0    0  501  503 -0.00000000000E+00 -0.00000000000E+00 -0.15384562708E+04  0.15384562708E+04  0.00000000000E+00 0. -1.
          6    1    1    2  501    0  0.56221044015E+02 -0.54130686615E+02 -0.75296953001E+03  0.77651983242E+03  0.17300000000E+03 0. -1.
         -6    1    1    2    0  502 -0.56221044015E+02  0.54130686615E+02 -0.76207290615E+03  0.78535027301E+03  0.17300000000E+03 0. -1.
<mgrwt>
<rscale>  2 0.18978919E+03</rscale>
<asrwt>0</asrwt>
<pdfrwt beam="1">  1       21 0.36021286E-02 0.18978919E+03</pdfrwt>
<pdfrwt beam="2">  1       21 0.23668557E+00 0.18978919E+03</pdfrwt>
<totfact> 0.37309306E+04</totfact>
</mgrwt>
</event>
<event>
 4    1  0.3945814E+000  0.2678871E+03  0.7546771E-02  0.1102495E+00
         21   -1    0    0  503  502  0.00000000000E+00  0.00000000000E+00  0.21695378835E+03  0.21695378835E+03  0.00000000000E+00 0.  1.
         21   -1    0    0  501  503 -0.00000000000E+00 -0.00000000000E+00 -0.36437721794E+03  0.36437721794E+03  0.00000000000E+00 0.  1.
          6    1    1    2  501    0  0.93861315468E+02  0.18172664747E+03 -0.16197560036E+03  0.31304890361E+03  0.17300000000E+03 0.  1.
         -6    1    1    2    0  502 -0.93861315468E+02 -0.18172664747E+03  0.14552170765E+02  0.26828210268E+03  0.17300000000E+03 0.  1.
<mgrwt>
<rscale>  2 0.26788714E+03</rscale>
<asrwt>0</asrwt>
<pdfrwt beam="1">  1       21 0.33377506E-01 0.26788714E+03</pdfrwt>
<pdfrwt beam="2">  1       21 0.56058033E-01 0.26788714E+03</pdfrwt>
<totfact> 0.24936334E+04</totfact>
</mgrwt>
</event>
<event>
 4    1  0.3945814E+000  0.1797786E+03  0.7546771E-02  0.1168018E+00
         21   -1    0    0  501  502  0.00000000000E+00  0.00000000000E+00  0.27914579520E+02  0.27914579520E+02  0.00000000000E+00 0. -1.
         21   -1    0    0  502  503 -0.00000000000E+00 -0.00000000000E+00 -0.12524752432E+04  0.12524752432E+04  0.00000000000E+00 0. -1.
          6    1    1    2  501    0 -0.18546417224E+02 -0.45247840815E+02 -0.43629473974E+03  0.47188286323E+03  0.17300000000E+03 0. -1.
         -6    1    1    2    0  503  0.18546417224E+02  0.45247840815E+02 -0.78826592394E+03  0.80850695948E+03  0.17300000000E+03 0. -1.
<mgrwt>
<rscale>  2 0.17977858E+03</rscale>
<asrwt>0</asrwt>
<pdfrwt beam="1">  1       21 0.42945520E-02 0.17977858E+03</pdfrwt>
<pdfrwt beam="2">  1       21 0.19268844E+00 0.17977858E+03</pdfrwt>
<totfact> 0.52511541E+04</totfact>
</mgrwt>
</event>
<event>
 4    1  0.3945814E+000  0.1908413E+03  0.7546771E-02  0.1157705E+00
         21   -1    0    0  501  502  0.00000000000E+00  0.00000000000E+00  0.15512058031E+03  0.15512058031E+03  0.00000000000E+00 0.  1.
         21   -1    0    0  502  503 -0.00000000000E+00 -0.00000000000E+00 -0.34482205035E+03  0.34482205035E+03  0.00000000000E+00 0. -1.
          6    1    1    2  501    0  0.44830821876E+02  0.66944858714E+02  0.46356400858E+02  0.19639076506E+03  0.17300000000E+03 0.  1.
         -6    1    1    2    0  503 -0.44830821876E+02 -0.66944858714E+02 -0.23605787090E+03  0.30355186561E+03  0.17300000000E+03 0. -1.
<mgrwt>
<rscale>  2 0.19084134E+03</rscale>
<asrwt>0</asrwt>
<pdfrwt beam="1">  1       21 0.23864705E-01 0.19084134E+03</pdfrwt>
<pdfrwt beam="2">  1       21 0.53049546E-01 0.19084134E+03</pdfrwt>
<totfact> 0.55751671E+04</totfact>
</mgrwt>
</event>
<event>
 4    1  0.3945814E+000  0.2279404E+03  0.7546771E-02  0.1128098E+00
         21   -1    0    0  501  502  0.00000000000E+00  0.00000000000E+00  0.14012366425E+03  0.14012366425E+03  0.00000000000E+00 0. -1.
         21   -1    0    0  502  503 -0.00000000000E+00 -0.00000000000E+00 -0.39312238509E+03  0.39312238509E+03  0.00000000000E+00 0.  1.
          6    1    1    2  501    0 -0.55350030131E+02  0.13771056119E+03 -0.62955211126E+02  0.23647448722E+03  0.17300000000E+03 0.  1.
         -6    1    1    2    0  503  0.55350030131E+02 -0.13771056119E+03 -0.19004350972E+03  0.29677156212E+03  0.17300000000E+03 0. -1.
<mgrwt>
<rscale>  2 0.22794040E+03</rscale>
<asrwt>0</asrwt>
<pdfrwt beam="1">  1       21 0.21557487E-01 0.22794040E+03</pdfrwt>
<pdfrwt beam="2">  1       21 0.60480366E-01 0.22794040E+03</pdfrwt>
<totfact> 0.50248183E+04</totfact>
</mgrwt>
</event>
<event>
 4    1  0.3945814E+000  0.2565314E+03  0.7546771E-02  0.1109245E+00
         21   -1    0    0  503  502  0.00000000000E+00  0.00000000000E+00  0.87837471731E+02  0.87837471731E+02  0.00000000000E+00 0. -1.
         21   -1    0    0  501  503 -0.00000000000E+00 -0.00000000000E+00 -0.10246471458E+04  0.10246471458E+04  0.00000000000E+00 0.  1.
          6    1    1    2  501    0 -0.12197188475E+02 -0.18902537779E+03 -0.75680215939E+03  0.79909816250E+03  0.17300000000E+03 0.  1.
         -6    1    1    2    0  502  0.12197188475E+02  0.18902537779E+03 -0.18000751468E+03  0.31338645504E+03  0.17300000000E+03 0. -1.
<mgrwt>
<rscale>  2 0.25653141E+03</rscale>
<asrwt>0</asrwt>
<pdfrwt beam="1">  1       21 0.13513457E-01 0.25653141E+03</pdfrwt>
<pdfrwt beam="2">  1       21 0.15763802E+00 0.25653141E+03</pdfrwt>
<totfact> 0.11901200E+04</totfact>
</mgrwt>
</event>
<event>
 4    1  0.3945814E+000  0.1810439E+03  0.7546771E-02  0.1166797E+00
         21   -1    0    0  503  502  0.00000000000E+00  0.00000000000E+00  0.95520661192E+02  0.95520661192E+02  0.00000000000E+00 0.  1.
         21   -1    0    0  501  503 -0.00000000000E+00 -0.00000000000E+00 -0.37468573304E+03  0.37468573304E+03  0.00000000000E+00 0.  1.
          6    1    1    2  501    0  0.50871235954E+02 -0.16124705544E+02 -0.20780075512E+03  0.27560486680E+03  0.17300000000E+03 0.  1.
         -6    1    1    2    0  502 -0.50871235954E+02  0.16124705544E+02 -0.71364316730E+02  0.19460152743E+03  0.17300000000E+03 0.  1.
<mgrwt>
<rscale>  2 0.18104389E+03</rscale>
<asrwt>0</asrwt>
<pdfrwt beam="1">  1       21 0.14695486E-01 0.18104389E+03</pdfrwt>
<pdfrwt beam="2">  1       21 0.57643959E-01 0.18104389E+03</pdfrwt>
<totfact> 0.11544292E+05</totfact>
</mgrwt>
</event>
<event>
 4    1  0.3945814E+000  0.3622916E+03  0.7546771E-02  0.1057680E+00
         21   -1    0    0  501  502  0.00000000000E+00  0.00000000000E+00  0.29467425951E+03  0.29467425951E+03  0.00000000000E+00 0.  1.
         21   -1    0    0  502  503 -0.00000000000E+00 -0.00000000000E+00 -0.44713971867E+03  0.44713971867E+03  0.00000000000E+00 0. -1.
          6    1    1    2  501    0  0.71890894283E+02  0.31009335201E+03 -0.99203755690E+02  0.37562823747E+03  0.17300000000E+03 0. -1.
         -6    1    1    2    0  503 -0.71890894283E+02 -0.31009335201E+03 -0.53261703468E+02  0.36618574071E+03  0.17300000000E+03 0.  1.
<mgrwt>
<rscale>  2 0.36229158E+03</rscale>
<asrwt>0</asrwt>
<pdfrwt beam="1">  1       21 0.45334502E-01 0.36229158E+03</pdfrwt>
<pdfrwt beam="2">  1       21 0.68790725E-01 0.36229158E+03</pdfrwt>
<totfact> 0.82243310E+03</totfact>
</mgrwt>
</event>
<event>
 4    1  0.3945814E+000  0.1964416E+03  0.7546771E-02  0.1152776E+00
         21   -1    0    0  503  502  0.00000000000E+00  0.00000000000E+00  0.78396174758E+02  0.78396174758E+02  0.00000000000E+00 0.  1.
         21   -1    0    0  501  503 -0.00000000000E+00 -0.00000000000E+00 -0.50692901835E+03  0.50692901835E+03  0.00000000000E+00 0.  1.
          6    1    1    2  501    0 -0.71390940615E+02 -0.59696060192E+02 -0.26409452051E+03  0.32914313265E+03  0.17300000000E+03 0. -1.
         -6    1    1    2    0  502  0.71390940615E+02  0.59696060192E+02 -0.16443832308E+03  0.25618206046E+03  0.17300000000E+03 0. -1.
<mgrwt>
<rscale>  2 0.19644156E+03</rscale>
<asrwt>0</asrwt>
<pdfrwt beam="1">  1       21 0.12060950E-01 0.19644156E+03</pdfrwt>
<pdfrwt beam="2">  1       21 0.77989077E-01 0.19644156E+03</pdfrwt>
<totfact> 0.84567310E+04</totfact>
</mgrwt>
</event>
<event>
 4    1  0.3945814E+000  0.1918861E+03  0.7546771E-02  0.1156771E+00
         21   -1    0    0  503  502  0.00000000000E+00  0.00000000000E+00  0.39297196199E+03  0.39297196199E+03  0.00000000000E+00 0. -1.
         21   -1    0    0  501  503 -0.00000000000E+00 -0.00000000000E+00 -0.10223463988E+03  0.10223463988E+03  0.00000000000E+00 0. -1.
          6    1    1    2  501    0 -0.45557982489E+02 -0.69395593365E+02  0.21692157613E+03  0.28961223789E+03  0.17300000000E+03 0. -1.
         -6    1    1    2    0  502  0.45557982489E+02  0.69395593365E+02  0.73815745978E+02  0.20559436398E+03  0.17300000000E+03 0. -1.
<mgrwt>
<rscale>  2 0.19188611E+03</rscale>
<asrwt>0</asrwt>
<pdfrwt beam="1">  1       21 0.60457224E-01 0.19188611E+03</pdfrwt>
<pdfrwt beam="2">  1       21 0.15728406E-01 0.19188611E+03</pdfrwt>
<totfact> 0.91748558E+04</totfact>
</mgrwt>
</event>
<event>
 4    1  0.3945814E+000  0.3296335E+03  0.7546771E-02  0.1071299E+00
         21   -1    0    0  503  502  0.00000000000E+00  0.00000000000E+00  0.34892494888E+03  0.34892494888E+03  0.00000000000E+00 0. -1.
         21   -1    0    0  501  503 -0.00000000000E+00 -0.00000000000E+00 -0.38449163533E+03  0.38449163533E+03  0.00000000000E+00 0.  1.
          6    1    1    2  501    0  0.25137294740E+03  0.12466304727E+03 -0.17766017553E+03  0.37446144262E+03  0.17300000000E+03 0.  1.
         -6    1    1    2    0  502 -0.25137294740E+03 -0.12466304727E+03  0.14209348908E+03  0.35895514160E+03  0.17300000000E+03 0. -1.
<mgrwt>
<rscale>  2 0.32963348E+03</rscale>
<asrwt>0</asrwt>
<pdfrwt beam="1">  1       21 0.53680762E-01 0.32963348E+03</pdfrwt>
<pdfrwt beam="2">  1       21 0.59152559E-01 0.32963348E+03</pdfrwt>
<totfact> 0.81323918E+03</totfact>
</mgrwt>
</event>
<event>
 4    1  0.3945814E+000  0.2764785E+03  0.7546771E-02  0.1097628E+00
         21   -1    0    0  503  502  0.00000000000E+00  0.00000000000E+00  0.62373058624E+02  0.62373058624E+02  0.00000000000E+00 0. -1.
         21   -1    0    0  501  503 -0.00000000000E+00 -0.00000000000E+00 -0.15907421218E+04  0.15907421218E+04  0.00000000000E+00 0.  1.
          6    1    1    2  501    0 -0.34807110299E+02  0.21283760483E+03 -0.11602278657E+04  0.11927150043E+04  0.17300000000E+03 0.  1.
         -6    1    1    2    0  502  0.34807110299E+02 -0.21283760483E+03 -0.36814119742E+03  0.46040017614E+03  0.17300000000E+03 0. -1.
<mgrwt>
<rscale>  2 0.27647854E+03</rscale>
<asrwt>0</asrwt>
<pdfrwt beam="1">  1       21 0.95958551E-02 0.27647854E+03</pdfrwt>
<pdfrwt beam="2">  1       21 0.24472956E+00 0.27647854E+03</pdfrwt>
<totfact> 0.58058133E+03</totfact>
</mgrwt>
</event>
<event>
 4    1  0.3945814E+000  0.1985305E+03  0.7546771E-02  0.1150985E+00
         21   -1    0    0  503  502  0.00000000000E+00  0.00000000000E+00  0.47151695412E+03  0.47151695412E+03  0.00000000000E+00 0.  1.
         21   -1    0    0  501  503 -0.00000000000E+00 -0.00000000000E+00 -0.84477923717E+02  0.84477923717E+02  0.00000000000E+00 0.  1.
          6    1    1    2  501    0  0.42396699327E+02  0.87680665209E+02  0.16502814689E+03  0.25816403396E+03  0.17300000000E+03 0.  1.
         -6    1    1    2    0  502 -0.42396699327E+02 -0.87680665209E+02  0.22201088351E+03  0.29783084387E+03  0.17300000000E+03 0.  1.
<mgrwt>
<rscale>  2 0.19853055E+03</rscale>
<asrwt>0</asrwt>
<pdfrwt beam="1">  1       21 0.72541068E-01 0.19853055E+03</pdfrwt>
<pdfrwt beam="2">  1       21 0.12996604E-01 0.19853055E+03</pdfrwt>
<totfact> 0.86863432E+04</totfact>
</mgrwt>
</event>
<event>
 4    1  0.3945814E+000  0.1769182E+03  0.7546771E-02  0.1170819E+00
         21   -1    0    0  503  502  0.00000000000E+00  0.00000000000E+00  0.32116470535E+03  0.32116470535E+03  0.00000000000E+00 0. -1.
         21   -1    0    0  501  503 -0.00000000000E+00 -0.00000000000E+00 -0.41474800971E+03  0.41474800971E+03  0.00000000000E+00 0. -1.
          6    1    1    2  501    0 -0.34375087472E+02  0.13762641114E+02 -0.36862599251E+03  0.40888284298E+03  0.17300000000E+03 0. -1.
         -6    1    1    2    0  502  0.34375087472E+02 -0.13762641114E+02  0.27504268815E+03  0.32702987208E+03  0.17300000000E+03 0. -1.
<mgrwt>
<rscale>  2 0.17691822E+03</rscale>
<asrwt>0</asrwt>
<pdfrwt beam="1">  1       21 0.49409955E-01 0.17691822E+03</pdfrwt>
<pdfrwt beam="2">  1       21 0.63807386E-01 0.17691822E+03</pdfrwt>
<totfact> 0.89624690E+03</totfact>
</mgrwt>
</event>
<event>
 4    1  0.3945814E+000  0.2957317E+03  0.7546771E-02  0.1087394E+00
         21   -1    0    0  501  502  0.00000000000E+00  0.00000000000E+00  0.76140737528E+03  0.76140737528E+03  0.00000000000E+00 0.  1.
         21   -1    0    0  502  503 -0.00000000000E+00 -0.00000000000E+00 -0.16372814463E+03  0.16372814463E+03  0.00000000000E+00 0. -1.
          6    1    1    2  501    0  0.91347158389E+02  0.22177451326E+03  0.55154530432E+03  0.62582702147E+03  0.17300000000E+03 0.  1.
         -6    1    1    2    0  503 -0.91347158389E+02 -0.22177451326E+03  0.46133926323E+02  0.29930849844E+03  0.17300000000E+03 0. -1.
<mgrwt>
<rscale>  2 0.29573170E+03</rscale>
<asrwt>0</asrwt>
<pdfrwt beam="1">  1       21 0.11713959E+00 0.29573170E+03</pdfrwt>
<pdfrwt beam="2">  1       21 0.25188946E-01 0.29573170E+03</pdfrwt>
<totfact> 0.78536296E+03</totfact>
</mgrwt>
</event>
<event>
 4    1  0.3945814E+000  0.2542349E+03  0.7546771E-02  0.1110657E+00
         21   -1    0    0  501  502  0.00000000000E+00  0.00000000000E+00  0.33072267991E+03  0.33072267991E+03  0.00000000000E+00 0. -1.
         21   -1    0    0  502  503 -0.00000000000E+00 -0.00000000000E+00 -0.19544323363E+03  0.19544323363E+03  0.00000000000E+00 0.  1.
          6    1    1    2  501    0  0.12308233602E+03  0.13984686080E+03  0.66138720092E+02  0.26269704264E+03  0.17300000000E+03 0. -1.
         -6    1    1    2    0  503 -0.12308233602E+03 -0.13984686080E+03  0.69140726197E+02  0.26346887090E+03  0.17300000000E+03 0. -1.
<mgrwt>
<rscale>  2 0.25423494E+03</rscale>
<asrwt>0</asrwt>
<pdfrwt beam="1">  1       21 0.50880412E-01 0.25423494E+03</pdfrwt>
<pdfrwt beam="2">  1       21 0.30068190E-01 0.25423494E+03</pdfrwt>
<totfact> 0.37864384E+04</totfact>
</mgrwt>
</event>
<event>
 4    1  0.3945814E+000  0.2408727E+03  0.7546771E-02  0.1119213E+00
         21   -1    0    0  503  502  0.00000000000E+00  0.00000000000E+00  0.14549741299E+03  0.14549741299E+03  0.00000000000E+00 0.  1.
         21   -1    0    0  501  503 -0.00000000000E+00 -0.00000000000E+00 -0.85196791614E+03  0.85196791614E+03  0.00000000000E+00 0. -1.
          6    1    1    2  501    0  0.16753831593E+03 -0.46451089067E+01  0.10513290945E+02  0.24110203987E+03  0.17300000000E+03 0.  1.
         -6    1    1    2    0  502 -0.16753831593E+03  0.46451089067E+01 -0.71698379410E+03  0.75636328926E+03  0.17300000000E+03 0. -1.
<mgrwt>
<rscale>  2 0.24087271E+03</rscale>
<asrwt>0</asrwt>
<pdfrwt beam="1">  1       21 0.22384217E-01 0.24087271E+03</pdfrwt>
<pdfrwt beam="2">  1       21 0.13107199E+00 0.24087271E+03</pdfrwt>
<totfact> 0.76451716E+03</totfact>
</mgrwt>
</event>
<event>
 4    1  0.3945814E+000  0.1790461E+03  0.7546771E-02  0.1168729E+00
         21   -1    0    0  503  502  0.00000000000E+00  0.00000000000E+00  0.12298688869E+04  0.12298688869E+04  0.00000000000E+00 0.  1.
         21   -1    0    0  501  503 -0.00000000000E+00 -0.00000000000E+00 -0.63566600328E+02  0.63566600328E+02  0.00000000000E+00 0.  1.
          6    1    1    2  501    0 -0.37910326857E+02 -0.26292629959E+02  0.86420843776E+02  0.19881161312E+03  0.17300000000E+03 0.  1.
         -6    1    1    2    0  502  0.37910326857E+02  0.26292629959E+02  0.10798814428E+04  0.10946238741E+04  0.17300000000E+03 0.  1.
<mgrwt>
<rscale>  2 0.17904607E+03</rscale>
<asrwt>0</asrwt>
<pdfrwt beam="1">  1       21 0.18921058E+00 0.17904607E+03</pdfrwt>
<pdfrwt beam="2">  1       21 0.97794779E-02 0.17904607E+03</pdfrwt>
<totfact> 0.13469082E+04</totfact>
</mgrwt>
</event>
<event>
 4    1  0.3945814E+000  0.1797880E+03  0.7546771E-02  0.1168008E+00
         21   -1    0    0  503  502  0.00000000000E+00  0.00000000000E+00  0.10510932476E+03  0.10510932476E+03  0.00000000000E+00 0. -1.
         21   -1    0    0  501  503 -0.00000000000E+00 -0.00000000000E+00 -0.45087758961E+03  0.45087758961E+03  0.00000000000E+00 0. -1.
          6    1    1    2  501    0  0.41187583547E+02 -0.26425746112E+02 -0.32963434424E+03  0.37547641470E+03  0.17300000000E+03 0. -1.
         -6    1    1    2    0  502 -0.41187583547E+02  0.26425746112E+02 -0.16133920609E+02  0.18051049967E+03  0.17300000000E+03 0. -1.
<mgrwt>
<rscale>  2 0.17978803E+03</rscale>
<asrwt>0</asrwt>
<pdfrwt beam="1">  1       21 0.16170665E-01 0.17978803E+03</pdfrwt>
<pdfrwt beam="2">  1       21 0.69365783E-01 0.17978803E+03</pdfrwt>
<totfact> 0.65017949E+04</totfact>
</mgrwt>
</event>
<event>
 4    1  0.3945814E+000  0.2251795E+03  0.7546771E-02  0.1130079E+00
         21   -1    0    0  503  502  0.00000000000E+00  0.00000000000E+00  0.27096168990E+03  0.27096168990E+03  0.00000000000E+00 0.  1.
         21   -1    0    0  501  503 -0.00000000000E+00 -0.00000000000E+00 -0.24233380845E+03  0.24233380845E+03  0.00000000000E+00 0.  1.
          6    1    1    2  501    0  0.31259864330E+02 -0.14071121637E+03 -0.10817697393E+03  0.24981609880E+03  0.17300000000E+03 0.  1.
         -6    1    1    2    0  502 -0.31259864330E+02  0.14071121637E+03  0.13680485538E+03  0.26347939955E+03  0.17300000000E+03 0.  1.
<mgrwt>
<rscale>  2 0.22517954E+03</rscale>
<asrwt>0</asrwt>
<pdfrwt beam="1">  1       21 0.41686414E-01 0.22517954E+03</pdfrwt>
<pdfrwt beam="2">  1       21 0.37282125E-01 0.22517954E+03</pdfrwt>
<totfact> 0.37819444E+04</totfact>
</mgrwt>
</event>
<event>
 4    1  0.3945814E+000  0.1823698E+03  0.7546771E-02  0.1165529E+00
         21   -1    0    0  503  502  0.00000000000E+00  0.00000000000E+00  0.70386282352E+02  0.70386282352E+02  0.00000000000E+00 0. -1.
         21   -1    0    0  501  503 -0.00000000000E+00 -0.00000000000E+00 -0.77336351957E+03  0.77336351957E+03  0.00000000000E+00 0. -1.
          6    1    1    2  501    0 -0.56828811444E+02 -0.10011354601E+02 -0.61461480772E+03  0.64110069638E+03  0.17300000000E+03 0.  1.
         -6    1    1    2    0  502  0.56828811444E+02  0.10011354601E+02 -0.88362429503E+02  0.20264910555E+03  0.17300000000E+03 0.  1.
<mgrwt>
<rscale>  2 0.18236979E+03</rscale>
<asrwt>0</asrwt>
<pdfrwt beam="1">  1       21 0.10828659E-01 0.18236979E+03</pdfrwt>
<pdfrwt beam="2">  1       21 0.11897901E+00 0.18236979E+03</pdfrwt>
<totfact> 0.38228653E+04</totfact>
</mgrwt>
</event>
<event>
 4    1  0.3945814E+000  0.2967647E+03  0.7546771E-02  0.1086869E+00
         21   -1    0    0  501  502  0.00000000000E+00  0.00000000000E+00  0.22629080661E+03  0.22629080661E+03  0.00000000000E+00 0. -1.
         21   -1    0    0  502  503 -0.00000000000E+00 -0.00000000000E+00 -0.45223765491E+03  0.45223765491E+03  0.00000000000E+00 0.  1.
          6    1    1    2  501    0 -0.14682717305E+03  0.19126443518E+03  0.13704693992E+02  0.29708100166E+03  0.17300000000E+03 0. -1.
         -6    1    1    2    0  503  0.14682717305E+03 -0.19126443518E+03 -0.23965154230E+03  0.38144745986E+03  0.17300000000E+03 0.  1.
<mgrwt>
<rscale>  2 0.29676473E+03</rscale>
<asrwt>0</asrwt>
<pdfrwt beam="1">  1       21 0.34813971E-01 0.29676473E+03</pdfrwt>
<pdfrwt beam="2">  1       21 0.69575023E-01 0.29676473E+03</pdfrwt>
<totfact> 0.14128832E+04</totfact>
</mgrwt>
</event>
<event>
 4    1  0.3945814E+000  0.2410392E+03  0.7546771E-02  0.1119102E+00
         21   -1    0    0  503  502  0.00000000000E+00  0.00000000000E+00  0.49741264726E+03  0.49741264726E+03  0.00000000000E+00 0.  1.
         21   -1    0    0  501  503 -0.00000000000E+00 -0.00000000000E+00 -0.14972035552E+03  0.14972035552E+03  0.00000000000E+00 0.  1.
          6    1    1    2  501    0 -0.12215716928E+03 -0.11510227837E+03  0.22131542134E+02  0.24205312155E+03  0.17300000000E+03 0.  1.
         -6    1    1    2    0  502  0.12215716928E+03  0.11510227837E+03  0.32556074961E+03  0.40507988123E+03  0.17300000000E+03 0.  1.
<mgrwt>
<rscale>  2 0.24103923E+03</rscale>
<asrwt>0</asrwt>
<pdfrwt beam="1">  1       21 0.76525022E-01 0.24103923E+03</pdfrwt>
<pdfrwt beam="2">  1       21 0.23033901E-01 0.24103923E+03</pdfrwt>
<totfact> 0.26216689E+04</totfact>
</mgrwt>
</event>
<event>
 4    1  0.3945814E+000  0.1779429E+03  0.7546771E-02  0.1169809E+00
         21   -1    0    0  501  502  0.00000000000E+00  0.00000000000E+00  0.10784854030E+03  0.10784854030E+03  0.00000000000E+00 0.  1.
         21   -1    0    0  502  503 -0.00000000000E+00 -0.00000000000E+00 -0.32958748864E+03  0.32958748864E+03  0.00000000000E+00 0.  1.
          6    1    1    2  501    0 -0.23460045052E+02 -0.34413647925E+02 -0.38590528565E+02  0.18207938316E+03  0.17300000000E+03 0. -1.
         -6    1    1    2    0  503  0.23460045052E+02  0.34413647925E+02 -0.18314841977E+03  0.25535664578E+03  0.17300000000E+03 0. -1.
<mgrwt>
<rscale>  2 0.17794289E+03</rscale>
<asrwt>0</asrwt>
<pdfrwt beam="1">  1       21 0.16592083E-01 0.17794289E+03</pdfrwt>
<pdfrwt beam="2">  1       21 0.50705767E-01 0.17794289E+03</pdfrwt>
<totfact> 0.12134827E+05</totfact>
</mgrwt>
</event>
<event>
 4    1  0.3945814E+000  0.2526539E+03  0.7546771E-02  0.1111639E+00
         21   -1    0    0  501  502  0.00000000000E+00  0.00000000000E+00  0.24132099734E+03  0.24132099734E+03  0.00000000000E+00 0. -1.
         21   -1    0    0  502  503 -0.00000000000E+00 -0.00000000000E+00 -0.29098922528E+03  0.29098922528E+03  0.00000000000E+00 0.  1.
          6    1    1    2  501    0  0.82412159046E+02  0.16466096170E+03  0.55439889881E+02  0.25866499117E+03  0.17300000000E+03 0.  1.
         -6    1    1    2    0  503 -0.82412159046E+02 -0.16466096170E+03 -0.10510811782E+03  0.27364523145E+03  0.17300000000E+03 0.  1.
<mgrwt>
<rscale>  2 0.25265391E+03</rscale>
<asrwt>0</asrwt>
<pdfrwt beam="1">  1       21 0.37126307E-01 0.25265391E+03</pdfrwt>
<pdfrwt beam="2">  1       21 0.44767573E-01 0.25265391E+03</pdfrwt>
<totfact> 0.32543672E+04</totfact>
</mgrwt>
</event>
<event>
 4    1  0.3945814E+000  0.1760046E+03  0.7546771E-02  0.1171727E+00
         21   -1    0    0  503  502  0.00000000000E+00  0.00000000000E+00  0.63022857044E+03  0.63022857044E+03  0.00000000000E+00 0. -1.
         21   -1    0    0  501  503 -0.00000000000E+00 -0.00000000000E+00 -0.21243564966E+03  0.21243564966E+03  0.00000000000E+00 0. -1.
          6    1    1    2  501    0 -0.32369270684E+02  0.92596035587E+00 -0.16048991592E+03  0.23819034447E+03  0.17300000000E+03 0. -1.
         -6    1    1    2    0  502  0.32369270684E+02 -0.92596035587E+00  0.57828283671E+03  0.60447387563E+03  0.17300000000E+03 0. -1.
<mgrwt>
<rscale>  2 0.17600462E+03</rscale>
<asrwt>0</asrwt>
<pdfrwt beam="1">  1       21 0.96958241E-01 0.17600462E+03</pdfrwt>
<pdfrwt beam="2">  1       21 0.32682408E-01 0.17600462E+03</pdfrwt>
<totfact> 0.80561615E+03</totfact>
</mgrwt>
</event>
<event>
 4    1  0.3945814E+000  0.2076773E+03  0.7546771E-02  0.1143419E+00
         21   -1    0    0  503  502  0.00000000000E+00  0.00000000000E+00  0.39680457034E+03  0.39680457034E+03  0.00000000000E+00 0. -1.
         21   -1    0    0  501  503 -0.00000000000E+00 -0.00000000000E+00 -0.22117516609E+03  0.22117516609E+03  0.00000000000E+00 0.  1.
          6    1    1    2  501    0 -0.83634270163E+02 -0.78779166424E+02 -0.13253782937E+03  0.24636583453E+03  0.17300000000E+03 0.  1.
         -6    1    1    2    0  502  0.83634270163E+02  0.78779166424E+02  0.30816723362E+03  0.37161390190E+03  0.17300000000E+03 0.  1.
<mgrwt>
<rscale>  2 0.20767727E+03</rscale>
<asrwt>0</asrwt>
<pdfrwt beam="1">  1       21 0.61046857E-01 0.20767727E+03</pdfrwt>
<pdfrwt beam="2">  1       21 0.34026949E-01 0.20767727E+03</pdfrwt>
<totfact> 0.20590595E+04</totfact>
</mgrwt>
</event>
<event>
 4    1  0.3945814E+000  0.2039251E+03  0.7546771E-02  0.1146469E+00
         21   -1    0    0  503  502  0.00000000000E+00  0.00000000000E+00  0.13138785087E+04  0.13138785087E+04  0.00000000000E+00 0. -1.
         21   -1    0    0  501  503 -0.00000000000E+00 -0.00000000000E+00 -0.44707290623E+02  0.44707290623E+02  0.00000000000E+00 0. -1.
          6    1    1    2  501    0 -0.10175187637E+03  0.36096920469E+02  0.26748970926E+03  0.33635721573E+03  0.17300000000E+03 0. -1.
         -6    1    1    2    0  502  0.10175187637E+03 -0.36096920469E+02  0.10016815088E+04  0.10222285836E+04  0.17300000000E+03 0. -1.
<mgrwt>
<rscale>  2 0.20392506E+03</rscale>
<asrwt>0</asrwt>
<pdfrwt beam="1">  1       21 0.20213513E+00 0.20392506E+03</pdfrwt>
<pdfrwt beam="2">  1       21 0.68780457E-02 0.20392506E+03</pdfrwt>
<totfact> 0.20114634E+04</totfact>
</mgrwt>
</event>
<event>
 4    1  0.3945814E+000  0.2135897E+03  0.7546771E-02  0.1138754E+00
         21   -1    0    0  501  502  0.00000000000E+00  0.00000000000E+00  0.58388081451E+02  0.58388081451E+02  0.00000000000E+00 0. -1.
         21   -1    0    0  502  503 -0.00000000000E+00 -0.00000000000E+00 -0.12757422602E+04  0.12757422602E+04  0.00000000000E+00 0.  1.
          6    1    1    2  501    0 -0.11407994079E+03  0.51743073768E+02 -0.19340784867E+03  0.28814436399E+03  0.17300000000E+03 0. -1.
         -6    1    1    2    0  503  0.11407994079E+03 -0.51743073768E+02 -0.10239463301E+04  0.10459859777E+04  0.17300000000E+03 0.  1.
<mgrwt>
<rscale>  2 0.21358974E+03</rscale>
<asrwt>0</asrwt>
<pdfrwt beam="1">  1       21 0.89827817E-02 0.21358974E+03</pdfrwt>
<pdfrwt beam="2">  1       21 0.19626804E+00 0.21358974E+03</pdfrwt>
<totfact> 0.13685504E+04</totfact>
</mgrwt>
</event>
<event>
 4    1  0.3945814E+000  0.2440521E+03  0.7546771E-02  0.1117122E+00
         21   -1    0    0  501  502  0.00000000000E+00  0.00000000000E+00  0.49954342705E+03  0.49954342705E+03  0.00000000000E+00 0. -1.
         21   -1    0    0  502  503 -0.00000000000E+00 -0.00000000000E+00 -0.21298397415E+03  0.21298397415E+03  0.00000000000E+00 0. -1.
          6    1    1    2  501    0  0.12084269567E+03 -0.12259474663E+03  0.37964786684E+03  0.45132464125E+03  0.17300000000E+03 0. -1.
         -6    1    1    2    0  503 -0.12084269567E+03  0.12259474663E+03 -0.93088413941E+02  0.26120275996E+03  0.17300000000E+03 0. -1.
<mgrwt>
<rscale>  2 0.24405210E+03</rscale>
<asrwt>0</asrwt>
<pdfrwt beam="1">  1       21 0.76852835E-01 0.24405210E+03</pdfrwt>
<pdfrwt beam="2">  1       21 0.32766765E-01 0.24405210E+03</pdfrwt>
<totfact> 0.13082678E+04</totfact>
</mgrwt>
</event>
<event>
 4    1  0.3945814E+000  0.1799410E+03  0.7546771E-02  0.1167860E+00
         21   -1    0    0  503  502  0.00000000000E+00  0.00000000000E+00  0.49731048610E+02  0.49731048610E+02  0.00000000000E+00 0.  1.
         21   -1    0    0  501  503 -0.00000000000E+00 -0.00000000000E+00 -0.65350293085E+03  0.65350293085E+03  0.00000000000E+00 0.  1.
          6    1    1    2  501    0 -0.49453381863E+02  0.20312921131E+01 -0.32330730649E+03  0.37000861822E+03  0.17300000000E+03 0.  1.
         -6    1    1    2    0  502  0.49453381863E+02 -0.20312921131E+01 -0.28046457575E+03  0.33322536125E+03  0.17300000000E+03 0.  1.
<mgrwt>
<rscale>  2 0.17994100E+03</rscale>
<asrwt>0</asrwt>
<pdfrwt beam="1">  1       21 0.76509307E-02 0.17994100E+03</pdfrwt>
<pdfrwt beam="2">  1       21 0.10053891E+00 0.17994100E+03</pdfrwt>
<totfact> 0.10565311E+05</totfact>
</mgrwt>
</event>
<event>
 4    1  0.3945814E+000  0.2229039E+03  0.7546771E-02  0.1131736E+00
         21   -1    0    0  501  502  0.00000000000E+00  0.00000000000E+00  0.13108597365E+03  0.13108597365E+03  0.00000000000E+00 0. -1.
         21   -1    0    0  502  503 -0.00000000000E+00 -0.00000000000E+00 -0.82910728572E+03  0.82910728572E+03  0.00000000000E+00 0.  1.
          6    1    1    2  501    0  0.13795913531E+03 -0.26915011743E+02  0.47133554723E+01  0.22295370953E+03  0.17300000000E+03 0. -1.
         -6    1    1    2    0  503 -0.13795913531E+03  0.26915011743E+02 -0.70273466754E+03  0.73723954984E+03  0.17300000000E+03 0.  1.
<mgrwt>
<rscale>  2 0.22290388E+03</rscale>
<asrwt>0</asrwt>
<pdfrwt beam="1">  1       21 0.20167072E-01 0.22290388E+03</pdfrwt>
<pdfrwt beam="2">  1       21 0.12755497E+00 0.22290388E+03</pdfrwt>
<totfact> 0.10089024E+04</totfact>
</mgrwt>
</event>
<event>
 4    1  0.3945814E+000  0.2540869E+03  0.7546771E-02  0.1110749E+00
         21   -1    0    0  503  502  0.00000000000E+00  0.00000000000E+00  0.15094703977E+04  0.15094703977E+04  0.00000000000E+00 0.  1.
         21   -1    0    0  501  503 -0.00000000000E+00 -0.00000000000E+00 -0.43048412239E+02  0.43048412239E+02  0.00000000000E+00 0.  1.
          6    1    1    2  501    0  0.18458744493E+03  0.23635498663E+02  0.67079236449E+03  0.71730227790E+03  0.17300000000E+03 0.  1.
         -6    1    1    2    0  502 -0.18458744493E+03 -0.23635498663E+02  0.79562962101E+03  0.83521653208E+03  0.17300000000E+03 0.  1.
<mgrwt>
<rscale>  2 0.25408692E+03</rscale>
<asrwt>0</asrwt>
<pdfrwt beam="1">  1       21 0.23222617E+00 0.25408692E+03</pdfrwt>
<pdfrwt beam="2">  1       21 0.66228338E-02 0.25408692E+03</pdfrwt>
<totfact> 0.13452943E+04</totfact>
</mgrwt>
</event>
<event>
 4    1  0.3945814E+000  0.1974423E+03  0.7546771E-02  0.1151915E+00
         21   -1    0    0  503  502  0.00000000000E+00  0.00000000000E+00  0.85744156542E+03  0.85744156542E+03  0.00000000000E+00 0.  1.
         21   -1    0    0  501  503 -0.00000000000E+00 -0.00000000000E+00 -0.62566781706E+02  0.62566781706E+02  0.00000000000E+00 0. -1.
          6    1    1    2  501    0  0.89228055206E+02 -0.33057780526E+02  0.15693893632E+03  0.25221675682E+03  0.17300000000E+03 0. -1.
         -6    1    1    2    0  502 -0.89228055206E+02  0.33057780526E+02  0.63793584740E+03  0.66779159031E+03  0.17300000000E+03 0.  1.
<mgrwt>
<rscale>  2 0.19744230E+03</rscale>
<asrwt>0</asrwt>
<pdfrwt beam="1">  1       21 0.13191408E+00 0.19744230E+03</pdfrwt>
<pdfrwt beam="2">  1       21 0.96256593E-02 0.19744230E+03</pdfrwt>
<totfact> 0.36056345E+04</totfact>
</mgrwt>
</event>
<event>
 4    1  0.3945814E+000  0.1732640E+03  0.7546771E-02  0.1174486E+00
         21   -1    0    0  503  502  0.00000000000E+00  0.00000000000E+00  0.29065084417E+02  0.29065084417E+02  0.00000000000E+00 0. -1.
         21   -1    0    0  501  503 -0.00000000000E+00 -0.00000000000E+00 -0.19236140622E+04  0.19236140622E+04  0.00000000000E+00 0. -1.
          6    1    1    2  501    0  0.70386911029E+01  0.64706695882E+01 -0.16116578278E+04  0.16209445909E+04  0.17300000000E+03 0. -1.
         -6    1    1    2    0  502 -0.70386911029E+01 -0.64706695882E+01 -0.28289114993E+03  0.33173455570E+03  0.17300000000E+03 0. -1.
<mgrwt>
<rscale>  2 0.17326400E+03</rscale>
<asrwt>0</asrwt>
<pdfrwt beam="1">  1       21 0.44715487E-02 0.17326400E+03</pdfrwt>
<pdfrwt beam="2">  1       21 0.29594081E+00 0.17326400E+03</pdfrwt>
<totfact> 0.11955040E+04</totfact>
</mgrwt>
</event>
<event>
 4    1  0.3945814E+000  0.1996887E+03  0.7546771E-02  0.1150002E+00
         21   -1    0    0  503  502  0.00000000000E+00  0.00000000000E+00  0.32583434712E+03  0.32583434712E+03  0.00000000000E+00 0.  1.
         21   -1    0    0  501  503 -0.00000000000E+00 -0.00000000000E+00 -0.32822082443E+03  0.32822082443E+03  0.00000000000E+00 0.  1.
          6    1    1    2  501    0 -0.72838479448E+02 -0.68125976116E+02 -0.26017377511E+03  0.32797253843E+03  0.17300000000E+03 0.  1.
         -6    1    1    2    0  502  0.72838479448E+02  0.68125976116E+02  0.25778729781E+03  0.32608263312E+03  0.17300000000E+03 0.  1.
<mgrwt>
<rscale>  2 0.19968874E+03</rscale>
<asrwt>0</asrwt>
<pdfrwt beam="1">  1       21 0.50128361E-01 0.19968874E+03</pdfrwt>
<pdfrwt beam="2">  1       21 0.50495512E-01 0.19968874E+03</pdfrwt>
<totfact> 0.14083546E+04</totfact>
</mgrwt>
</event>
<event>
 4    1  0.3945814E+000  0.2006496E+03  0.7546771E-02  0.1149192E+00
         21   -1    0    0  503  502  0.00000000000E+00  0.00000000000E+00  0.41133516867E+02  0.41133516867E+02  0.00000000000E+00 0. -1.
         21   -1    0    0  501  503 -0.00000000000E+00 -0.00000000000E+00 -0.13687459598E+04  0.13687459598E+04  0.00000000000E+00 0. -1.
          6    1    1    2  501    0  0.98720781099E+01  0.10116225472E+03 -0.10400847053E+04  0.10592622215E+04  0.17300000000E+03 0. -1.
         -6    1    1    2    0  502 -0.98720781099E+01 -0.10116225472E+03 -0.28752773760E+03  0.35061725513E+03  0.17300000000E+03 0. -1.
<mgrwt>
<rscale>  2 0.20064959E+03</rscale>
<asrwt>0</asrwt>
<pdfrwt beam="1">  1       21 0.63282348E-02 0.20064959E+03</pdfrwt>
<pdfrwt beam="2">  1       21 0.21057625E+00 0.20064959E+03</pdfrwt>
<totfact> 0.20582872E+04</totfact>
</mgrwt>
</event>
<event>
 4    1  0.3945814E+000  0.2215193E+03  0.7546771E-02  0.1132755E+00
         21   -1    0    0  501  502  0.00000000000E+00  0.00000000000E+00  0.12074524627E+03  0.12074524627E+03  0.00000000000E+00 0.  1.
         21   -1    0    0  502  503 -0.00000000000E+00 -0.00000000000E+00 -0.81013035383E+03  0.81013035383E+03  0.00000000000E+00 0.  1.
          6    1    1    2  501    0 -0.10211800809E+03  0.93347337811E+02 -0.67326424655E+03  0.70877045560E+03  0.17300000000E+03 0.  1.
         -6    1    1    2    0  503  0.10211800809E+03 -0.93347337811E+02 -0.16120861012E+02  0.22210514450E+03  0.17300000000E+03 0.  1.
<mgrwt>
<rscale>  2 0.22151933E+03</rscale>
<asrwt>0</asrwt>
<pdfrwt beam="1">  1       21 0.18576192E-01 0.22151933E+03</pdfrwt>
<pdfrwt beam="2">  1       21 0.12463544E+00 0.22151933E+03</pdfrwt>
<totfact> 0.12481040E+04</totfact>
</mgrwt>
</event>
<event>
 4    1  0.3945814E+000  0.2375659E+03  0.7546771E-02  0.1121425E+00
         21   -1    0    0  503  502  0.00000000000E+00  0.00000000000E+00  0.16045880096E+04  0.16045880096E+04  0.00000000000E+00 0. -1.
         21   -1    0    0  501  503 -0.00000000000E+00 -0.00000000000E+00 -0.35645207884E+02  0.35645207884E+02  0.00000000000E+00 0.  1.
          6    1    1    2  501    0  0.13579838101E+03 -0.89818474181E+02  0.87890313452E+03  0.91044400073E+03  0.17300000000E+03 0.  1.
         -6    1    1    2    0  502 -0.13579838101E+03  0.89818474181E+02  0.69003966718E+03  0.72978921674E+03  0.17300000000E+03 0. -1.
<mgrwt>
<rscale>  2 0.23756590E+03</rscale>
<asrwt>0</asrwt>
<pdfrwt beam="1">  1       21 0.24685964E+00 0.23756590E+03</pdfrwt>
<pdfrwt beam="2">  1       21 0.54838794E-02 0.23756590E+03</pdfrwt>
<totfact> 0.15371343E+04</totfact>
</mgrwt>
</event>
<event>
 4    1  0.3945814E+000  0.2757467E+03  0.7546771E-02  0.1098035E+00
         21   -1    0    0  501  502  0.00000000000E+00  0.00000000000E+00  0.16033142285E+04  0.16033142285E+04  0.00000000000E+00 0.  1.
         21   -1    0    0  502  503 -0.00000000000E+00 -0.00000000000E+00 -0.67224373618E+02  0.67224373618E+02  0.00000000000E+00 0. -1.
          6    1    1    2  501    0  0.20823092858E+03  0.52412919006E+02  0.12213549463E+04  0.12520958983E+04  0.17300000000E+03 0.  1.
         -6    1    1    2    0  503 -0.20823092858E+03 -0.52412919006E+02  0.31473490858E+03  0.41844270381E+03  0.17300000000E+03 0. -1.
<mgrwt>
<rscale>  2 0.27574668E+03</rscale>
<asrwt>0</asrwt>
<pdfrwt beam="1">  1       21 0.24666370E+00 0.27574668E+03</pdfrwt>
<pdfrwt beam="2">  1       21 0.10342213E-01 0.27574668E+03</pdfrwt>
<totfact> 0.49491896E+03</totfact>
</mgrwt>
</event>
<event>
 4    1  0.3945814E+000  0.1846495E+03  0.7546771E-02  0.1163378E+00
         21   -1    0    0  503  502  0.00000000000E+00  0.00000000000E+00  0.18540572697E+04  0.18540572697E+04  0.00000000000E+00 0.  1.
         21   -1    0    0  501  503 -0.00000000000E+00 -0.00000000000E+00 -0.42869396917E+02  0.42869396917E+02  0.00000000000E+00 0.  1.
          6    1    1    2  501    0 -0.37778579950E+02  0.52337659259E+02  0.18887252109E+03  0.26413686017E+03  0.17300000000E+03 0.  1.
         -6    1    1    2    0  502  0.37778579950E+02 -0.52337659259E+02  0.16223153517E+04  0.16327898064E+04  0.17300000000E+03 0.  1.
<mgrwt>
<rscale>  2 0.18464954E+03</rscale>
<asrwt>0</asrwt>
<pdfrwt beam="1">  1       21 0.28523952E+00 0.18464954E+03</pdfrwt>
<pdfrwt beam="2">  1       21 0.65952933E-02 0.18464954E+03</pdfrwt>
<totfact> 0.70203898E+03</totfact>
</mgrwt>
</event>
<event>
 4    1  0.3945814E+000  0.2324607E+03  0.7546771E-02  0.1124920E+00
         21   -1    0    0  501  502  0.00000000000E+00  0.00000000000E+00  0.27609623430E+03  0.27609623430E+03  0.00000000000E+00 0.  1.
         21   -1    0    0  502  503 -0.00000000000E+00 -0.00000000000E+00 -0.23874499825E+03  0.23874499825E+03  0.00000000000E+00 0. -1.
          6    1    1    2  501    0  0.58844728474E+01 -0.15515918157E+03  0.12795255294E+03  0.26534855276E+03  0.17300000000E+03 0.  1.
         -6    1    1    2    0  503 -0.58844728474E+01  0.15515918157E+03 -0.90601316895E+02  0.24949267979E+03  0.17300000000E+03 0. -1.
<mgrwt>
<rscale>  2 0.23246075E+03</rscale>
<asrwt>0</asrwt>
<pdfrwt beam="1">  1       21 0.42476344E-01 0.23246075E+03</pdfrwt>
<pdfrwt beam="2">  1       21 0.36730000E-01 0.23246075E+03</pdfrwt>
<totfact> 0.37376931E+04</totfact>
</mgrwt>
</event>
<event>
 4    1  0.3945814E+000  0.1959617E+03  0.7546771E-02  0.1153192E+00
         21   -1    0    0  501  502  0.00000000000E+00  0.00000000000E+00  0.92085516282E+02  0.92085516282E+02  0.00000000000E+00 0.  1.
         21   -1    0    0  502  503 -0.00000000000E+00 -0.00000000000E+00 -0.41701842758E+03  0.41701842758E+03  0.00000000000E+00 0.  1.
          6    1    1    2  501    0 -0.68485396607E+02  0.61495787586E+02 -0.16326272531E+03  0.25506018685E+03  0.17300000000E+03 0.  1.
         -6    1    1    2    0  503  0.68485396607E+02 -0.61495787586E+02 -0.16167018598E+03  0.25404375701E+03  0.17300000000E+03 0.  1.
<mgrwt>
<rscale>  2 0.19596168E+03</rscale>
<asrwt>0</asrwt>
<pdfrwt beam="1">  1       21 0.14167003E-01 0.19596168E+03</pdfrwt>
<pdfrwt beam="2">  1       21 0.64156681E-01 0.19596168E+03</pdfrwt>
<totfact> 0.97450713E+04</totfact>
</mgrwt>
</event>
<event>
 4    1  0.3945814E+000  0.2110487E+03  0.7546771E-02  0.1140738E+00
         21   -1    0    0  501  502  0.00000000000E+00  0.00000000000E+00  0.70941941294E+03  0.70941941294E+03  0.00000000000E+00 0. -1.
         21   -1    0    0  502  503 -0.00000000000E+00 -0.00000000000E+00 -0.10149466342E+03  0.10149466342E+03  0.00000000000E+00 0.  1.
          6    1    1    2  501    0 -0.93770915745E+01 -0.12051809490E+03  0.55435864246E+03  0.59317370603E+03  0.17300000000E+03 0. -1.
         -6    1    1    2    0  503  0.93770915745E+01  0.12051809490E+03  0.53566107053E+02  0.21774037033E+03  0.17300000000E+03 0.  1.
<mgrwt>
<rscale>  2 0.21104867E+03</rscale>
<asrwt>0</asrwt>
<pdfrwt beam="1">  1       21 0.10914144E+00 0.21104867E+03</pdfrwt>
<pdfrwt beam="2">  1       21 0.15614564E-01 0.21104867E+03</pdfrwt>
<totfact> 0.24000460E+04</totfact>
</mgrwt>
</event>
<event>
 4    1  0.3945814E+000  0.2394302E+03  0.7546771E-02  0.1120173E+00
         21   -1    0    0  501  502  0.00000000000E+00  0.00000000000E+00  0.30066858539E+03  0.30066858539E+03  0.00000000000E+00 0.  1.
         21   -1    0    0  502  503 -0.00000000000E+00 -0.00000000000E+00 -0.19840349518E+03  0.19840349518E+03  0.00000000000E+00 0.  1.
          6    1    1    2  501    0 -0.10673193434E+03  0.12651526916E+03  0.10041604041E+03  0.25963474404E+03  0.17300000000E+03 0.  1.
         -6    1    1    2    0  503  0.10673193434E+03 -0.12651526916E+03  0.18490497929E+01  0.23943733653E+03  0.17300000000E+03 0.  1.
<mgrwt>
<rscale>  2 0.23943020E+03</rscale>
<asrwt>0</asrwt>
<pdfrwt beam="1">  1       21 0.46256705E-01 0.23943020E+03</pdfrwt>
<pdfrwt beam="2">  1       21 0.30523615E-01 0.23943020E+03</pdfrwt>
<totfact> 0.45135372E+04</totfact>
</mgrwt>
</event>
<event>
 4    1  0.3945814E+000  0.2608146E+03  0.7546771E-02  0.1106655E+00
         21   -1    0    0  503  502  0.00000000000E+00  0.00000000000E+00  0.12961665555E+04  0.12961665555E+04  0.00000000000E+00 0. -1.
         21   -1    0    0  501  503 -0.00000000000E+00 -0.00000000000E+00 -0.72687553450E+02  0.72687553450E+02  0.00000000000E+00 0.  1.
          6    1    1    2  501    0 -0.15255408635E+03 -0.12174767018E+03  0.25087662354E+03  0.36188855287E+03  0.17300000000E+03 0.  1.
         -6    1    1    2    0  502  0.15255408635E+03  0.12174767018E+03  0.97260237855E+03  0.10069655561E+04  0.17300000000E+03 0. -1.
<mgrwt>
<rscale>  2 0.26081458E+03</rscale>
<asrwt>0</asrwt>
<pdfrwt beam="1">  1       21 0.19941022E+00 0.26081458E+03</pdfrwt>
<pdfrwt beam="2">  1       21 0.11182701E-01 0.26081458E+03</pdfrwt>
<totfact> 0.85630764E+03</totfact>
</mgrwt>
</event>
<event>
 4    1  0.3945814E+000  0.2332456E+03  0.7546771E-02  0.1124376E+00
         21   -1    0    0  503  502  0.00000000000E+00  0.00000000000E+00  0.81145994021E+02  0.81145994021E+02  0.00000000000E+00 0.  1.
         21   -1    0    0  501  503 -0.00000000000E+00 -0.00000000000E+00 -0.95410966467E+03  0.95410966467E+03  0.00000000000E+00 0.  1.
          6    1    1    2  501    0 -0.11035554050E+03 -0.11088812718E+03 -0.71872595345E+03  0.75562591156E+03  0.17300000000E+03 0.  1.
         -6    1    1    2    0  502  0.11035554050E+03  0.11088812718E+03 -0.15423771720E+03  0.27962974712E+03  0.17300000000E+03 0.  1.
<mgrwt>
<rscale>  2 0.23324563E+03</rscale>
<asrwt>0</asrwt>
<pdfrwt beam="1">  1       21 0.12484000E-01 0.23324563E+03</pdfrwt>
<pdfrwt beam="2">  1       21 0.14678609E+00 0.23324563E+03</pdfrwt>
<totfact> 0.16845506E+04</totfact>
</mgrwt>
</event>
<event>
 4    1  0.3945814E+000  0.2218097E+03  0.7546771E-02  0.1132541E+00
         21   -1    0    0  503  502  0.00000000000E+00  0.00000000000E+00  0.37248816943E+03  0.37248816943E+03  0.00000000000E+00 0.  1.
         21   -1    0    0  501  503 -0.00000000000E+00 -0.00000000000E+00 -0.18255185990E+03  0.18255185990E+03  0.00000000000E+00 0. -1.
          6    1    1    2  501    0  0.74740990406E+02 -0.11698002606E+03 -0.50950481696E+02  0.22758623361E+03  0.17300000000E+03 0. -1.
         -6    1    1    2    0  502 -0.74740990406E+02  0.11698002606E+03  0.24088679123E+03  0.32745379572E+03  0.17300000000E+03 0.  1.
<mgrwt>
<rscale>  2 0.22180970E+03</rscale>
<asrwt>0</asrwt>
<pdfrwt beam="1">  1       21 0.57305872E-01 0.22180970E+03</pdfrwt>
<pdfrwt beam="2">  1       21 0.28084902E-01 0.22180970E+03</pdfrwt>
<totfact> 0.34107151E+04</totfact>
</mgrwt>
</event>
<event>
 4    1  0.3945814E+000  0.1748056E+03  0.7546771E-02  0.1172927E+00
         21   -1    0    0  501  502  0.00000000000E+00  0.00000000000E+00  0.32269429817E+03  0.32269429817E+03  0.00000000000E+00 0.  1.
         21   -1    0    0  502  503 -0.00000000000E+00 -0.00000000000E+00 -0.11646192891E+03  0.11646192891E+03  0.00000000000E+00 0.  1.
          6    1    1    2  501    0 -0.24663976461E+02 -0.44363130520E+01  0.19804814630E+03  0.26415915820E+03  0.17300000000E+03 0.  1.
         -6    1    1    2    0  503  0.24663976461E+02  0.44363130520E+01  0.81842229517E+01  0.17499706887E+03  0.17300000000E+03 0.  1.
<mgrwt>
<rscale>  2 0.17480559E+03</rscale>
<asrwt>0</asrwt>
<pdfrwt beam="1">  1       21 0.49645277E-01 0.17480559E+03</pdfrwt>
<pdfrwt beam="2">  1       21 0.17917220E-01 0.17480559E+03</pdfrwt>
<totfact> 0.11023352E+05</totfact>
</mgrwt>
</event>
<event>
 4    1  0.3945814E+000  0.1900651E+03  0.7546771E-02  0.1158403E+00
         21   -1    0    0  501  502  0.00000000000E+00  0.00000000000E+00  0.26567943761E+03  0.26567943761E+03  0.00000000000E+00 0.  1.
         21   -1    0    0  502  503 -0.00000000000E+00 -0.00000000000E+00 -0.14721842903E+03  0.14721842903E+03  0.00000000000E+00 0. -1.
          6    1    1    2  501    0 -0.60011591315E+02  0.50934766547E+02  0.11629356730E+03  0.22282041049E+03  0.17300000000E+03 0. -1.
         -6    1    1    2    0  503  0.60011591315E+02 -0.50934766547E+02  0.21674412864E+01  0.19007745615E+03  0.17300000000E+03 0. -1.
<mgrwt>
<rscale>  2 0.19006510E+03</rscale>
<asrwt>0</asrwt>
<pdfrwt beam="1">  1       21 0.40873759E-01 0.19006510E+03</pdfrwt>
<pdfrwt beam="2">  1       21 0.22648989E-01 0.19006510E+03</pdfrwt>
<totfact> 0.10545842E+05</totfact>
</mgrwt>
</event>
<event>
 4    1  0.3945814E+000  0.1775312E+03  0.7546771E-02  0.1170214E+00
         21   -1    0    0  503  502  0.00000000000E+00  0.00000000000E+00  0.90158195822E+02  0.90158195822E+02  0.00000000000E+00 0. -1.
         21   -1    0    0  501  503 -0.00000000000E+00 -0.00000000000E+00 -0.37393578128E+03  0.37393578128E+03  0.00000000000E+00 0. -1.
          6    1    1    2  501    0 -0.10024704818E+02  0.38572229990E+02 -0.20111273200E+03  0.26826040074E+03  0.17300000000E+03 0. -1.
         -6    1    1    2    0  502  0.10024704818E+02 -0.38572229990E+02 -0.82664853457E+02  0.19583357636E+03  0.17300000000E+03 0. -1.
<mgrwt>
<rscale>  2 0.17753116E+03</rscale>
<asrwt>0</asrwt>
<pdfrwt beam="1">  1       21 0.13870492E-01 0.17753116E+03</pdfrwt>
<pdfrwt beam="2">  1       21 0.57528582E-01 0.17753116E+03</pdfrwt>
<totfact> 0.12888608E+05</totfact>
</mgrwt>
</event>
<event>
 4    1  0.3945814E+000  0.1867134E+03  0.7546771E-02  0.1161459E+00
         21   -1    0    0  503  502  0.00000000000E+00  0.00000000000E+00  0.12261700417E+04  0.12261700417E+04  0.00000000000E+00 0.  1.
         21   -1    0    0  501  503 -0.00000000000E+00 -0.00000000000E+00 -0.35949532148E+02  0.35949532148E+02  0.00000000000E+00 0.  1.
          6    1    1    2  501    0 -0.23392808528E+02 -0.66224479478E+02  0.30652458737E+03  0.35891395603E+03  0.17300000000E+03 0.  1.
         -6    1    1    2    0  502  0.23392808528E+02  0.66224479478E+02  0.88369592221E+03  0.90320561785E+03  0.17300000000E+03 0.  1.
<mgrwt>
<rscale>  2 0.18671343E+03</rscale>
<asrwt>0</asrwt>
<pdfrwt beam="1">  1       21 0.18864151E+00 0.18671343E+03</pdfrwt>
<pdfrwt beam="2">  1       21 0.55306982E-02 0.18671343E+03</pdfrwt>
<totfact> 0.36224149E+04</totfact>
</mgrwt>
</event>
<event>
 4    1  0.3945814E+000  0.3346805E+03  0.7546771E-02  0.1069084E+00
         21   -1    0    0  503  502  0.00000000000E+00  0.00000000000E+00  0.74218130488E+02  0.74218130488E+02  0.00000000000E+00 0. -1.
         21   -1    0    0  501  503 -0.00000000000E+00 -0.00000000000E+00 -0.20834656409E+04  0.20834656409E+04  0.00000000000E+00 0.  1.
          6    1    1    2  501    0 -0.22819939919E+03 -0.17322546360E+03 -0.15710140782E+04  0.16062678049E+04  0.17300000000E+03 0.  1.
         -6    1    1    2    0  502  0.22819939919E+03  0.17322546360E+03 -0.43823343220E+03  0.55141596651E+03  0.17300000000E+03 0. -1.
<mgrwt>
<rscale>  2 0.33468048E+03</rscale>
<asrwt>0</asrwt>
<pdfrwt beam="1">  1       21 0.11418175E-01 0.33468048E+03</pdfrwt>
<pdfrwt beam="2">  1       21 0.32053313E+00 0.33468048E+03</pdfrwt>
<totfact> 0.14456864E+03</totfact>
</mgrwt>
</event>
<event>
 4    1  0.3945814E+000  0.2453400E+03  0.7546771E-02  0.1116286E+00
         21   -1    0    0  503  502  0.00000000000E+00  0.00000000000E+00  0.42150075228E+03  0.42150075228E+03  0.00000000000E+00 0. -1.
         21   -1    0    0  501  503 -0.00000000000E+00 -0.00000000000E+00 -0.15227227223E+03  0.15227227223E+03  0.00000000000E+00 0.  1.
          6    1    1    2  501    0 -0.26840437343E+02  0.17187878866E+03  0.20615434564E+03  0.32045489745E+03  0.17300000000E+03 0. -1.
         -6    1    1    2    0  502  0.26840437343E+02 -0.17187878866E+03  0.63074134399E+02  0.25331812706E+03  0.17300000000E+03 0.  1.
<mgrwt>
<rscale>  2 0.24534002E+03</rscale>
<asrwt>0</asrwt>
<pdfrwt beam="1">  1       21 0.64846269E-01 0.24534002E+03</pdfrwt>
<pdfrwt beam="2">  1       21 0.23426504E-01 0.24534002E+03</pdfrwt>
<totfact> 0.36600574E+04</totfact>
</mgrwt>
</event>
<event>
 4    1  0.3945814E+000  0.2036772E+03  0.7546771E-02  0.1146673E+00
         21   -1    0    0  501  502  0.00000000000E+00  0.00000000000E+00  0.53502720702E+03  0.53502720702E+03  0.00000000000E+00 0.  1.
         21   -1    0    0  502  503 -0.00000000000E+00 -0.00000000000E+00 -0.16387085899E+03  0.16387085899E+03  0.00000000000E+00 0. -1.
          6    1    1    2  501    0  0.31944824826E+02  0.10263975960E+03  0.43922160160E+03  0.48414874511E+03  0.17300000000E+03 0.  1.
         -6    1    1    2    0  503 -0.31944824826E+02 -0.10263975960E+03 -0.68065253571E+02  0.21474932090E+03  0.17300000000E+03 0. -1.
<mgrwt>
<rscale>  2 0.20367718E+03</rscale>
<asrwt>0</asrwt>
<pdfrwt beam="1">  1       21 0.82311877E-01 0.20367718E+03</pdfrwt>
<pdfrwt beam="2">  1       21 0.25210902E-01 0.20367718E+03</pdfrwt>
<totfact> 0.19088748E+04</totfact>
</mgrwt>
</event>
<event>
 4    1  0.3945814E+000  0.2020537E+03  0.7546771E-02  0.1148018E+00
         21   -1    0    0  501  502  0.00000000000E+00  0.00000000000E+00  0.98967772895E+02  0.98967772895E+02  0.00000000000E+00 0.  1.
         21   -1    0    0  502  503 -0.00000000000E+00 -0.00000000000E+00 -0.46903534335E+03  0.46903534335E+03  0.00000000000E+00 0.  1.
          6    1    1    2  501    0 -0.51658597743E+02 -0.90708860692E+02 -0.86446782695E+02  0.21976977583E+03  0.17300000000E+03 0. -1.
         -6    1    1    2    0  503  0.51658597743E+02  0.90708860692E+02 -0.28362078775E+03  0.34823334041E+03  0.17300000000E+03 0. -1.
<mgrwt>
<rscale>  2 0.20205373E+03</rscale>
<asrwt>0</asrwt>
<pdfrwt beam="1">  1       21 0.15225811E-01 0.20205373E+03</pdfrwt>
<pdfrwt beam="2">  1       21 0.72159284E-01 0.20205373E+03</pdfrwt>
<totfact> 0.65851708E+04</totfact>
</mgrwt>
</event>
<event>
 4    1  0.3945814E+000  0.2685878E+03  0.7546771E-02  0.1102091E+00
         21   -1    0    0  503  502  0.00000000000E+00  0.00000000000E+00  0.60709367301E+03  0.60709367301E+03  0.00000000000E+00 0. -1.
         21   -1    0    0  501  503 -0.00000000000E+00 -0.00000000000E+00 -0.12079906121E+03  0.12079906121E+03  0.00000000000E+00 0.  1.
          6    1    1    2  501    0  0.13829733233E+03 -0.15193496130E+03  0.19665107095E+03  0.33288290479E+03  0.17300000000E+03 0.  1.
         -6    1    1    2    0  502 -0.13829733233E+03  0.15193496130E+03  0.28964354084E+03  0.39500982943E+03  0.17300000000E+03 0. -1.
<mgrwt>
<rscale>  2 0.26858776E+03</rscale>
<asrwt>0</asrwt>
<pdfrwt beam="1">  1       21 0.93399025E-01 0.26858776E+03</pdfrwt>
<pdfrwt beam="2">  1       21 0.18584471E-01 0.26858776E+03</pdfrwt>
<totfact> 0.24523861E+04</totfact>
</mgrwt>
</event>
<event>
 4    1  0.3945814E+000  0.1899723E+03  0.7546771E-02  0.1158486E+00
         21   -1    0    0  501  502  0.00000000000E+00  0.00000000000E+00  0.36334749734E+02  0.36334749734E+02  0.00000000000E+00 0. -1.
         21   -1    0    0  502  503 -0.00000000000E+00 -0.00000000000E+00 -0.10553660739E+04  0.10553660739E+04  0.00000000000E+00 0. -1.
          6    1    1    2  501    0  0.72873066763E+02 -0.29154907194E+02 -0.37708948087E+03  0.42223923202E+03  0.17300000000E+03 0. -1.
         -6    1    1    2    0  503 -0.72873066763E+02  0.29154907194E+02 -0.64194184326E+03  0.66946159158E+03  0.17300000000E+03 0. -1.
<mgrwt>
<rscale>  2 0.18997235E+03</rscale>
<asrwt>0</asrwt>
<pdfrwt beam="1">  1       21 0.55899610E-02 0.18997235E+03</pdfrwt>
<pdfrwt beam="2">  1       21 0.16236402E+00 0.18997235E+03</pdfrwt>
<totfact> 0.53913593E+04</totfact>
</mgrwt>
</event>
<event>
 4    1  0.3945814E+000  0.1869436E+03  0.7546771E-02  0.1161247E+00
         21   -1    0    0  501  502  0.00000000000E+00  0.00000000000E+00  0.22105823942E+03  0.22105823942E+03  0.00000000000E+00 0.  1.
         21   -1    0    0  502  503 -0.00000000000E+00 -0.00000000000E+00 -0.13845638869E+04  0.13845638869E+04  0.00000000000E+00 0.  1.
          6    1    1    2  501    0  0.67079307947E+02  0.22787541268E+02  0.17383570199E+03  0.25527780334E+03  0.17300000000E+03 0.  1.
         -6    1    1    2    0  503 -0.67079307947E+02 -0.22787541268E+02 -0.13373413495E+04  0.13503443230E+04  0.17300000000E+03 0.  1.
<mgrwt>
<rscale>  2 0.18694359E+03</rscale>
<asrwt>0</asrwt>
<pdfrwt beam="1">  1       21 0.34008959E-01 0.18694359E+03</pdfrwt>
<pdfrwt beam="2">  1       21 0.21300983E+00 0.18694359E+03</pdfrwt>
<totfact> 0.93196410E+02</totfact>
</mgrwt>
</event>
<event>
 4    1  0.3945814E+000  0.1745473E+03  0.7546771E-02  0.1173187E+00
         21   -1    0    0  503  502  0.00000000000E+00  0.00000000000E+00  0.10647351638E+03  0.10647351638E+03  0.00000000000E+00 0. -1.
         21   -1    0    0  501  503 -0.00000000000E+00 -0.00000000000E+00 -0.29623942009E+03  0.29623942009E+03  0.00000000000E+00 0. -1.
          6    1    1    2  501    0 -0.69512836065E+01  0.22122964561E+02 -0.57711564033E+02  0.18384061175E+03  0.17300000000E+03 0. -1.
         -6    1    1    2    0  502  0.69512836065E+01 -0.22122964561E+02 -0.13205433967E+03  0.21887232473E+03  0.17300000000E+03 0. -1.
<mgrwt>
<rscale>  2 0.17454726E+03</rscale>
<asrwt>0</asrwt>
<pdfrwt beam="1">  1       21 0.16380541E-01 0.17454726E+03</pdfrwt>
<pdfrwt beam="2">  1       21 0.45575294E-01 0.17454726E+03</pdfrwt>
<totfact> 0.15508822E+05</totfact>
</mgrwt>
</event>
<event>
 4    1  0.3945814E+000  0.1948181E+03  0.7546771E-02  0.1154186E+00
         21   -1    0    0  501  502  0.00000000000E+00  0.00000000000E+00  0.38711855331E+02  0.38711855331E+02  0.00000000000E+00 0.  1.
         21   -1    0    0  502  503 -0.00000000000E+00 -0.00000000000E+00 -0.15085342089E+04  0.15085342089E+04  0.00000000000E+00 0.  1.
          6    1    1    2  501    0  0.86054719084E+02  0.24893087867E+02 -0.27717675126E+03  0.33879349454E+03  0.17300000000E+03 0.  1.
         -6    1    1    2    0  503 -0.86054719084E+02 -0.24893087867E+02 -0.11926456023E+04  0.12084525697E+04  0.17300000000E+03 0.  1.
<mgrwt>
<rscale>  2 0.19481807E+03</rscale>
<asrwt>0</asrwt>
<pdfrwt beam="1">  1       21 0.59556701E-02 0.19481807E+03</pdfrwt>
<pdfrwt beam="2">  1       21 0.23208219E+00 0.19481807E+03</pdfrwt>
<totfact> 0.16935859E+04</totfact>
</mgrwt>
</event>
<event>
 4    1  0.3945814E+000  0.2338804E+03  0.7546771E-02  0.1123938E+00
         21   -1    0    0  501  502  0.00000000000E+00  0.00000000000E+00  0.10121099563E+04  0.10121099563E+04  0.00000000000E+00 0. -1.
         21   -1    0    0  502  503 -0.00000000000E+00 -0.00000000000E+00 -0.56939113513E+02  0.56939113513E+02  0.00000000000E+00 0.  1.
          6    1    1    2  501    0  0.13855476563E+03 -0.74656803972E+02  0.59808267725E+03  0.64218607139E+03  0.17300000000E+03 0. -1.
         -6    1    1    2    0  503 -0.13855476563E+03  0.74656803972E+02  0.35708816553E+03  0.42686299842E+03  0.17300000000E+03 0.  1.
<mgrwt>
<rscale>  2 0.23388044E+03</rscale>
<asrwt>0</asrwt>
<pdfrwt beam="1">  1       21 0.15570921E+00 0.23388044E+03</pdfrwt>
<pdfrwt beam="2">  1       21 0.87598644E-02 0.23388044E+03</pdfrwt>
<totfact> 0.27042602E+04</totfact>
</mgrwt>
</event>
<event>
 4    1  0.3945814E+000  0.1844896E+03  0.7546771E-02  0.1163527E+00
         21   -1    0    0  501  502  0.00000000000E+00  0.00000000000E+00  0.42434671884E+02  0.42434671884E+02  0.00000000000E+00 0. -1.
         21   -1    0    0  502  503 -0.00000000000E+00 -0.00000000000E+00 -0.80597301836E+03  0.80597301836E+03  0.00000000000E+00 0. -1.
          6    1    1    2  501    0  0.21338719182E+02  0.60432222687E+02 -0.35232220593E+03  0.39770256633E+03  0.17300000000E+03 0. -1.
         -6    1    1    2    0  503 -0.21338719182E+02 -0.60432222687E+02 -0.41121614055E+03  0.45070512392E+03  0.17300000000E+03 0. -1.
<mgrwt>
<rscale>  2 0.18448955E+03</rscale>
<asrwt>0</asrwt>
<pdfrwt beam="1">  1       21 0.65284116E-02 0.18448955E+03</pdfrwt>
<pdfrwt beam="2">  1       21 0.12399584E+00 0.18448955E+03</pdfrwt>
<totfact> 0.83344772E+04</totfact>
</mgrwt>
</event>
<event>
 4    1  0.3945814E+000  0.3688098E+03  0.7546771E-02  0.1055149E+00
         21   -1    0    0  503  502  0.00000000000E+00  0.00000000000E+00  0.24537458641E+03  0.24537458641E+03  0.00000000000E+00 0.  1.
         21   -1    0    0  501  503 -0.00000000000E+00 -0.00000000000E+00 -0.74651172941E+03  0.74651172941E+03  0.00000000000E+00 0. -1.
          6    1    1    2  501    0  0.15194327979E+03 -0.28810571473E+03 -0.50219696636E+03  0.62307500043E+03  0.17300000000E+03 0. -1.
         -6    1    1    2    0  502 -0.15194327979E+03  0.28810571473E+03  0.10598233512E+01  0.36881131539E+03  0.17300000000E+03 0.  1.
<mgrwt>
<rscale>  2 0.36880979E+03</rscale>
<asrwt>0</asrwt>
<pdfrwt beam="1">  1       21 0.37749936E-01 0.36880979E+03</pdfrwt>
<pdfrwt beam="2">  1       21 0.11484796E+00 0.36880979E+03</pdfrwt>
<totfact> 0.35773803E+03</totfact>
</mgrwt>
</event>
<event>
 4    1  0.3945814E+000  0.2097873E+03  0.7546771E-02  0.1141735E+00
         21   -1    0    0  501  502  0.00000000000E+00  0.00000000000E+00  0.38082485950E+03  0.38082485950E+03  0.00000000000E+00 0. -1.
         21   -1    0    0  502  503 -0.00000000000E+00 -0.00000000000E+00 -0.12187475738E+03  0.12187475738E+03  0.00000000000E+00 0. -1.
          6    1    1    2  501    0  0.53462009281E+02  0.10594111076E+03  0.18665799398E+03  0.28080582633E+03  0.17300000000E+03 0. -1.
         -6    1    1    2    0  503 -0.53462009281E+02 -0.10594111076E+03  0.72292108129E+02  0.22189379055E+03  0.17300000000E+03 0. -1.
<mgrwt>
<rscale>  2 0.20978729E+03</rscale>
<asrwt>0</asrwt>
<pdfrwt beam="1">  1       21 0.58588439E-01 0.20978729E+03</pdfrwt>
<pdfrwt beam="2">  1       21 0.18749963E-01 0.20978729E+03</pdfrwt>
<totfact> 0.70442629E+04</totfact>
</mgrwt>
</event>
<event>
 4    1  0.3945814E+000  0.2296971E+03  0.7546771E-02  0.1126853E+00
         21   -1    0    0  503  502  0.00000000000E+00  0.00000000000E+00  0.48702246498E+03  0.48702246498E+03  0.00000000000E+00 0. -1.
         21   -1    0    0  501  503 -0.00000000000E+00 -0.00000000000E+00 -0.11052486808E+03  0.11052486808E+03  0.00000000000E+00 0. -1.
          6    1    1    2  501    0 -0.14541454293E+03  0.41065402384E+02  0.23032035935E+03  0.32528176171E+03  0.17300000000E+03 0. -1.
         -6    1    1    2    0  502  0.14541454293E+03 -0.41065402384E+02  0.14617723755E+03  0.27226557136E+03  0.17300000000E+03 0. -1.
<mgrwt>
<rscale>  2 0.22969710E+03</rscale>
<asrwt>0</asrwt>
<pdfrwt beam="1">  1       21 0.74926532E-01 0.22969710E+03</pdfrwt>
<pdfrwt beam="2">  1       21 0.17003826E-01 0.22969710E+03</pdfrwt>
<totfact> 0.48820474E+04</totfact>
</mgrwt>
</event>
<event>
 4    1  0.3945814E+000  0.1899101E+03  0.7546771E-02  0.1158542E+00
         21   -1    0    0  503  502  0.00000000000E+00  0.00000000000E+00  0.13694699768E+03  0.13694699768E+03  0.00000000000E+00 0. -1.
         21   -1    0    0  501  503 -0.00000000000E+00 -0.00000000000E+00 -0.29753801981E+03  0.29753801981E+03  0.00000000000E+00 0. -1.
          6    1    1    2  501    0  0.69449595537E+02  0.36243736978E+02 -0.15392817647E+03  0.24445805019E+03  0.17300000000E+03 0. -1.
         -6    1    1    2    0  502 -0.69449595537E+02 -0.36243736978E+02 -0.66628456619E+01  0.19002696730E+03  0.17300000000E+03 0. -1.
<mgrwt>
<rscale>  2 0.18991012E+03</rscale>
<asrwt>0</asrwt>
<pdfrwt beam="1">  1       21 0.21068769E-01 0.18991012E+03</pdfrwt>
<pdfrwt beam="2">  1       21 0.45775080E-01 0.18991012E+03</pdfrwt>
<totfact> 0.95902638E+04</totfact>
</mgrwt>
</event>
<event>
 4    1  0.3945814E+000  0.2099694E+03  0.7546771E-02  0.1141590E+00
         21   -1    0    0  501  502  0.00000000000E+00  0.00000000000E+00  0.59062118326E+02  0.59062118326E+02  0.00000000000E+00 0. -1.
         21   -1    0    0  502  503 -0.00000000000E+00 -0.00000000000E+00 -0.14319398829E+04  0.14319398829E+04  0.00000000000E+00 0. -1.
          6    1    1    2  501    0  0.16225190651E+02 -0.11787668304E+03 -0.17063451312E+03  0.27056109529E+03  0.17300000000E+03 0. -1.
         -6    1    1    2    0  503 -0.16225190651E+02  0.11787668304E+03 -0.12022432514E+04  0.12204409059E+04  0.17300000000E+03 0. -1.
<mgrwt>
<rscale>  2 0.20996945E+03</rscale>
<asrwt>0</asrwt>
<pdfrwt beam="1">  1       21 0.90864807E-02 0.20996945E+03</pdfrwt>
<pdfrwt beam="2">  1       21 0.22029842E+00 0.20996945E+03</pdfrwt>
<totfact> 0.94783564E+03</totfact>
</mgrwt>
</event>
<event>
 4    1  0.3945814E+000  0.1805018E+03  0.7546771E-02  0.1167318E+00
         21   -1    0    0  503  502  0.00000000000E+00  0.00000000000E+00  0.13721428610E+03  0.13721428610E+03  0.00000000000E+00 0.  1.
         21   -1    0    0  501  503 -0.00000000000E+00 -0.00000000000E+00 -0.25697575208E+03  0.25697575208E+03  0.00000000000E+00 0.  1.
          6    1    1    2  501    0 -0.51418805023E+02 -0.28270490339E+01 -0.55449593623E+01  0.18058691063E+03  0.17300000000E+03 0.  1.
         -6    1    1    2    0  502  0.51418805023E+02  0.28270490339E+01 -0.11421650662E+03  0.21360312755E+03  0.17300000000E+03 0.  1.
<mgrwt>
<rscale>  2 0.18050176E+03</rscale>
<asrwt>0</asrwt>
<pdfrwt beam="1">  1       21 0.21109890E-01 0.18050176E+03</pdfrwt>
<pdfrwt beam="2">  1       21 0.39534731E-01 0.18050176E+03</pdfrwt>
<totfact> 0.12920571E+05</totfact>
</mgrwt>
</event>
<event>
 4    1  0.3945814E+000  0.1738301E+03  0.7546771E-02  0.1173911E+00
         21   -1    0    0  503  502  0.00000000000E+00  0.00000000000E+00  0.27164740925E+04  0.27164740925E+04  0.00000000000E+00 0. -1.
         21   -1    0    0  501  503 -0.00000000000E+00 -0.00000000000E+00 -0.54052404697E+02  0.54052404697E+02  0.00000000000E+00 0. -1.
          6    1    1    2  501    0 -0.47153106911E+01  0.16299718967E+02  0.96687503298E+02  0.19891050321E+03  0.17300000000E+03 0. -1.
         -6    1    1    2    0  502  0.47153106911E+01 -0.16299718967E+02  0.25657341845E+04  0.25716159940E+04  0.17300000000E+03 0. -1.
<mgrwt>
<rscale>  2 0.17383013E+03</rscale>
<asrwt>0</asrwt>
<pdfrwt beam="1">  1       21 0.41791898E+00 0.17383013E+03</pdfrwt>
<pdfrwt beam="2">  1       21 0.83157567E-02 0.17383013E+03</pdfrwt>
<totfact> 0.77843478E+02</totfact>
</mgrwt>
</event>
<event>
 4    1  0.3945814E+000  0.2352886E+03  0.7546771E-02  0.1122972E+00
         21   -1    0    0  503  502  0.00000000000E+00  0.00000000000E+00  0.79336981068E+02  0.79336981068E+02  0.00000000000E+00 0.  1.
         21   -1    0    0  501  503 -0.00000000000E+00 -0.00000000000E+00 -0.70304670495E+03  0.70304670495E+03  0.00000000000E+00 0.  1.
          6    1    1    2  501    0 -0.79971164234E+02  0.13797228214E+03 -0.34567362956E+03  0.41815188140E+03  0.17300000000E+03 0.  1.
         -6    1    1    2    0  502  0.79971164234E+02 -0.13797228214E+03 -0.27803609432E+03  0.36423180461E+03  0.17300000000E+03 0.  1.
<mgrwt>
<rscale>  2 0.23528863E+03</rscale>
<asrwt>0</asrwt>
<pdfrwt beam="1">  1       21 0.12205690E-01 0.23528863E+03</pdfrwt>
<pdfrwt beam="2">  1       21 0.10816103E+00 0.23528863E+03</pdfrwt>
<totfact> 0.37874298E+04</totfact>
</mgrwt>
</event>
<event>
 4    1  0.3945814E+000  0.1971530E+03  0.7546771E-02  0.1152163E+00
         21   -1    0    0  501  502  0.00000000000E+00  0.00000000000E+00  0.79218406551E+02  0.79218406551E+02  0.00000000000E+00 0. -1.
         21   -1    0    0  502  503 -0.00000000000E+00 -0.00000000000E+00 -0.11596981802E+04  0.11596981802E+04  0.00000000000E+00 0.  1.
          6    1    1    2  501    0 -0.94299059920E+02 -0.69290931381E+01 -0.69734124861E+02  0.20912238810E+03  0.17300000000E+03 0. -1.
         -6    1    1    2    0  503  0.94299059920E+02  0.69290931381E+01 -0.10107456488E+04  0.10297941986E+04  0.17300000000E+03 0.  1.
<mgrwt>
<rscale>  2 0.19715305E+03</rscale>
<asrwt>0</asrwt>
<pdfrwt beam="1">  1       21 0.12187448E-01 0.19715305E+03</pdfrwt>
<pdfrwt beam="2">  1       21 0.17841509E+00 0.19715305E+03</pdfrwt>
<totfact> 0.10609448E+04</totfact>
</mgrwt>
</event>
<event>
 4    1  0.3945814E+000  0.2138795E+03  0.7546771E-02  0.1138530E+00
         21   -1    0    0  501  502  0.00000000000E+00  0.00000000000E+00  0.67812751235E+03  0.67812751235E+03  0.00000000000E+00 0.  1.
         21   -1    0    0  502  503 -0.00000000000E+00 -0.00000000000E+00 -0.86828339623E+02  0.86828339623E+02  0.00000000000E+00 0.  1.
          6    1    1    2  501    0  0.34442772946E+02  0.12095093662E+03  0.11499221559E+03  0.24283254173E+03  0.17300000000E+03 0.  1.
         -6    1    1    2    0  503 -0.34442772946E+02 -0.12095093662E+03  0.47630695714E+03  0.52212331024E+03  0.17300000000E+03 0.  1.
<mgrwt>
<rscale>  2 0.21387948E+03</rscale>
<asrwt>0</asrwt>
<pdfrwt beam="1">  1       21 0.10432731E+00 0.21387948E+03</pdfrwt>
<pdfrwt beam="2">  1       21 0.13358207E-01 0.21387948E+03</pdfrwt>
<totfact> 0.35496994E+04</totfact>
</mgrwt>
</event>
<event>
 4    1  0.3945814E+000  0.1994508E+03  0.7546771E-02  0.1150203E+00
         21   -1    0    0  501  502  0.00000000000E+00  0.00000000000E+00  0.26047510472E+02  0.26047510472E+02  0.00000000000E+00 0. -1.
         21   -1    0    0  502  503 -0.00000000000E+00 -0.00000000000E+00 -0.17159699505E+04  0.17159699505E+04  0.00000000000E+00 0. -1.
          6    1    1    2  501    0 -0.92203698445E+02 -0.36743905323E+02 -0.55609597306E+03  0.59078199688E+03  0.17300000000E+03 0. -1.
         -6    1    1    2    0  503  0.92203698445E+02  0.36743905323E+02 -0.11338264670E+04  0.11512354641E+04  0.17300000000E+03 0. -1.
<mgrwt>
<rscale>  2 0.19945084E+03</rscale>
<asrwt>0</asrwt>
<pdfrwt beam="1">  1       21 0.40073088E-02 0.19945084E+03</pdfrwt>
<pdfrwt beam="2">  1       21 0.26399541E+00 0.19945084E+03</pdfrwt>
<totfact> 0.21387042E+04</totfact>
</mgrwt>
</event>
<event>
 4    1  0.3945814E+000  0.2159234E+03  0.7546771E-02  0.1136959E+00
         21   -1    0    0  501  502  0.00000000000E+00  0.00000000000E+00  0.87654681489E+02  0.87654681489E+02  0.00000000000E+00 0. -1.
         21   -1    0    0  502  503 -0.00000000000E+00 -0.00000000000E+00 -0.91230092751E+03  0.91230092751E+03  0.00000000000E+00 0. -1.
          6    1    1    2  501    0  0.86012700449E+02 -0.96414458552E+02 -0.89469020103E+02  0.23372556132E+03  0.17300000000E+03 0. -1.
         -6    1    1    2    0  503 -0.86012700449E+02  0.96414458552E+02 -0.73517722592E+03  0.76623004768E+03  0.17300000000E+03 0. -1.
<mgrwt>
<rscale>  2 0.21592344E+03</rscale>
<asrwt>0</asrwt>
<pdfrwt beam="1">  1       21 0.13485336E-01 0.21592344E+03</pdfrwt>
<pdfrwt beam="2">  1       21 0.14035399E+00 0.21592344E+03</pdfrwt>
<totfact> 0.16654408E+04</totfact>
</mgrwt>
</event>
<event>
 4    1  0.3945814E+000  0.1733924E+03  0.7546771E-02  0.1174356E+00
         21   -1    0    0  503  502  0.00000000000E+00  0.00000000000E+00  0.44476266855E+03  0.44476266855E+03  0.00000000000E+00 0.  1.
         21   -1    0    0  501  503 -0.00000000000E+00 -0.00000000000E+00 -0.80032235930E+02  0.80032235930E+02  0.00000000000E+00 0.  1.
          6    1    1    2  501    0 -0.61753175645E+01  0.98886487178E+01  0.78936184247E+02  0.19051467425E+03  0.17300000000E+03 0.  1.
         -6    1    1    2    0  502  0.61753175645E+01 -0.98886487178E+01  0.28579424837E+03  0.33428023023E+03  0.17300000000E+03 0.  1.
<mgrwt>
<rscale>  2 0.17339239E+03</rscale>
<asrwt>0</asrwt>
<pdfrwt beam="1">  1       21 0.68425025E-01 0.17339239E+03</pdfrwt>
<pdfrwt beam="2">  1       21 0.12312652E-01 0.17339239E+03</pdfrwt>
<totfact> 0.10997131E+05</totfact>
</mgrwt>
</event>
<event>
 4    1  0.3945814E+000  0.3391469E+03  0.7546771E-02  0.1067160E+00
         21   -1    0    0  501  502  0.00000000000E+00  0.00000000000E+00  0.65651832623E+03  0.65651832623E+03  0.00000000000E+00 0. -1.
         21   -1    0    0  502  503 -0.00000000000E+00 -0.00000000000E+00 -0.27580785007E+03  0.27580785007E+03  0.00000000000E+00 0.  1.
          6    1    1    2  501    0 -0.27783318757E+03  0.88883725887E+02  0.47190499271E+03  0.58113244531E+03  0.17300000000E+03 0. -1.
         -6    1    1    2    0  503  0.27783318757E+03 -0.88883725887E+02 -0.91194516545E+02  0.35119373100E+03  0.17300000000E+03 0.  1.
<mgrwt>
<rscale>  2 0.33914687E+03</rscale>
<asrwt>0</asrwt>
<pdfrwt beam="1">  1       21 0.10100282E+00 0.33914687E+03</pdfrwt>
<pdfrwt beam="2">  1       21 0.42431977E-01 0.33914687E+03</pdfrwt>
<totfact> 0.39109128E+03</totfact>
</mgrwt>
</event>
<event>
 4    1  0.3945814E+000  0.2256789E+03  0.7546771E-02  0.1129719E+00
         21   -1    0    0  503  502  0.00000000000E+00  0.00000000000E+00  0.71371444828E+02  0.71371444828E+02  0.00000000000E+00 0. -1.
         21   -1    0    0  501  503 -0.00000000000E+00 -0.00000000000E+00 -0.71385108246E+03  0.71385108246E+03  0.00000000000E+00 0. -1.
          6    1    1    2  501    0 -0.14361054353E+03 -0.19441543031E+02 -0.32854138733E+03  0.39858550525E+03  0.17300000000E+03 0. -1.
         -6    1    1    2    0  502  0.14361054353E+03  0.19441543031E+02 -0.31393825030E+03  0.38663702203E+03  0.17300000000E+03 0. -1.
<mgrwt>
<rscale>  2 0.22567889E+03</rscale>
<asrwt>0</asrwt>
<pdfrwt beam="1">  1       21 0.10980222E-01 0.22567889E+03</pdfrwt>
<pdfrwt beam="2">  1       21 0.10982324E+00 0.22567889E+03</pdfrwt>
<totfact> 0.44318466E+04</totfact>
</mgrwt>
</event>
<event>
 4    1  0.3945814E+000  0.2939267E+03  0.7546771E-02  0.1088317E+00
         21   -1    0    0  503  502  0.00000000000E+00  0.00000000000E+00  0.12023981289E+04  0.12023981289E+04  0.00000000000E+00 0.  1.
         21   -1    0    0  501  503 -0.00000000000E+00 -0.00000000000E+00 -0.10758942438E+03  0.10758942438E+03  0.00000000000E+00 0.  1.
          6    1    1    2  501    0 -0.18002946952E+03 -0.15509123962E+03  0.16989897522E+03  0.33949751735E+03  0.17300000000E+03 0.  1.
         -6    1    1    2    0  502  0.18002946952E+03  0.15509123962E+03  0.92490972929E+03  0.97049003593E+03  0.17300000000E+03 0.  1.
<mgrwt>
<rscale>  2 0.29392670E+03</rscale>
<asrwt>0</asrwt>
<pdfrwt beam="1">  1       21 0.18498432E+00 0.29392670E+03</pdfrwt>
<pdfrwt beam="2">  1       21 0.16552220E-01 0.29392670E+03</pdfrwt>
<totfact> 0.51234113E+03</totfact>
</mgrwt>
</event>
<event>
 4    1  0.3945814E+000  0.1750542E+03  0.7546771E-02  0.1172677E+00
         21   -1    0    0  501  502  0.00000000000E+00  0.00000000000E+00  0.33124322579E+03  0.33124322579E+03  0.00000000000E+00 0.  1.
         21   -1    0    0  502  503 -0.00000000000E+00 -0.00000000000E+00 -0.13573668286E+03  0.13573668286E+03  0.00000000000E+00 0.  1.
          6    1    1    2  501    0  0.26496090005E+02 -0.35979339173E+01  0.22951378250E+03  0.28865301708E+03  0.17300000000E+03 0.  1.
         -6    1    1    2    0  503 -0.26496090005E+02  0.35979339173E+01 -0.34007239570E+02  0.17832689157E+03  0.17300000000E+03 0.  1.
<mgrwt>
<rscale>  2 0.17505424E+03</rscale>
<asrwt>0</asrwt>
<pdfrwt beam="1">  1       21 0.50960496E-01 0.17505424E+03</pdfrwt>
<pdfrwt beam="2">  1       21 0.20882567E-01 0.17505424E+03</pdfrwt>
<totfact> 0.78539014E+04</totfact>
</mgrwt>
</event>
<event>
 4    1  0.3945814E+000  0.1808559E+03  0.7546771E-02  0.1166977E+00
         21   -1    0    0  501  502  0.00000000000E+00  0.00000000000E+00  0.51867132287E+03  0.51867132287E+03  0.00000000000E+00 0. -1.
         21   -1    0    0  502  503 -0.00000000000E+00 -0.00000000000E+00 -0.85137267804E+02  0.85137267804E+02  0.00000000000E+00 0. -1.
          6    1    1    2  501    0  0.35800514839E+02 -0.38706152569E+02  0.37049574033E+03  0.41228138051E+03  0.17300000000E+03 0. -1.
         -6    1    1    2    0  503 -0.35800514839E+02  0.38706152569E+02  0.63038314733E+02  0.19152721017E+03  0.17300000000E+03 0. -1.
<mgrwt>
<rscale>  2 0.18085586E+03</rscale>
<asrwt>0</asrwt>
<pdfrwt beam="1">  1       21 0.79795586E-01 0.18085586E+03</pdfrwt>
<pdfrwt beam="2">  1       21 0.13098042E-01 0.18085586E+03</pdfrwt>
<totfact> 0.69731692E+04</totfact>
</mgrwt>
</event>
<event>
 4    1  0.3945814E+000  0.2029644E+03  0.7546771E-02  0.1147262E+00
         21   -1    0    0  503  502  0.00000000000E+00  0.00000000000E+00  0.24162870865E+03  0.24162870865E+03  0.00000000000E+00 0.  1.
         21   -1    0    0  501  503 -0.00000000000E+00 -0.00000000000E+00 -0.17561496481E+03  0.17561496481E+03  0.00000000000E+00 0.  1.
          6    1    1    2  501    0  0.10602926626E+03 -0.48309947019E+01 -0.26426119586E+01  0.20298159328E+03  0.17300000000E+03 0.  1.
         -6    1    1    2    0  502 -0.10602926626E+03  0.48309947019E+01  0.68656355795E+02  0.21426208018E+03  0.17300000000E+03 0.  1.
<mgrwt>
<rscale>  2 0.20296439E+03</rscale>
<asrwt>0</asrwt>
<pdfrwt beam="1">  1       21 0.37173647E-01 0.20296439E+03</pdfrwt>
<pdfrwt beam="2">  1       21 0.27017687E-01 0.20296439E+03</pdfrwt>
<totfact> 0.90709969E+04</totfact>
</mgrwt>
</event>
<event>
 4    1  0.3945814E+000  0.1758361E+03  0.7546771E-02  0.1171895E+00
         21   -1    0    0  503  502  0.00000000000E+00  0.00000000000E+00  0.57870543885E+02  0.57870543885E+02  0.00000000000E+00 0. -1.
         21   -1    0    0  501  503 -0.00000000000E+00 -0.00000000000E+00 -0.61977234163E+03  0.61977234163E+03  0.00000000000E+00 0. -1.
          6    1    1    2  501    0 -0.19189973518E+02 -0.24921528958E+02 -0.40680017470E+03  0.44317572116E+03  0.17300000000E+03 0. -1.
         -6    1    1    2    0  502  0.19189973518E+02  0.24921528958E+02 -0.15510162304E+03  0.23446716435E+03  0.17300000000E+03 0. -1.
<mgrwt>
<rscale>  2 0.17583611E+03</rscale>
<asrwt>0</asrwt>
<pdfrwt beam="1">  1       21 0.89031606E-02 0.17583611E+03</pdfrwt>
<pdfrwt beam="2">  1       21 0.95349591E-01 0.17583611E+03</pdfrwt>
<totfact> 0.92080111E+04</totfact>
</mgrwt>
</event>
<event>
 4    1  0.3945814E+000  0.1796847E+03  0.7546771E-02  0.1168109E+00
         21   -1    0    0  503  502  0.00000000000E+00  0.00000000000E+00  0.34879190219E+02  0.34879190219E+02  0.00000000000E+00 0. -1.
         21   -1    0    0  501  503 -0.00000000000E+00 -0.00000000000E+00 -0.27648158276E+04  0.27648158276E+04  0.00000000000E+00 0. -1.
          6    1    1    2  501    0  0.16466535831E+02  0.45677485816E+02 -0.25066784252E+04  0.25131102855E+04  0.17300000000E+03 0. -1.
         -6    1    1    2    0  502 -0.16466535831E+02 -0.45677485816E+02 -0.22325821216E+03  0.28658473234E+03  0.17300000000E+03 0. -1.
<mgrwt>
<rscale>  2 0.17968467E+03</rscale>
<asrwt>0</asrwt>
<pdfrwt beam="1">  1       21 0.53660267E-02 0.17968467E+03</pdfrwt>
<pdfrwt beam="2">  1       21 0.42535649E+00 0.17968467E+03</pdfrwt>
<totfact> 0.14675596E+03</totfact>
</mgrwt>
</event>
<event>
 4    1  0.3945814E+000  0.1762516E+03  0.7546771E-02  0.1171481E+00
         21   -1    0    0  501  502  0.00000000000E+00  0.00000000000E+00  0.89797061268E+02  0.89797061268E+02  0.00000000000E+00 0. -1.
         21   -1    0    0  502  503 -0.00000000000E+00 -0.00000000000E+00 -0.35668473769E+03  0.35668473769E+03  0.00000000000E+00 0. -1.
          6    1    1    2  501    0 -0.15822473276E+02 -0.29753797041E+02 -0.17218517036E+03  0.24639880680E+03  0.17300000000E+03 0. -1.
         -6    1    1    2    0  503  0.15822473276E+02  0.29753797041E+02 -0.94702506067E+02  0.20008299217E+03  0.17300000000E+03 0. -1.
<mgrwt>
<rscale>  2 0.17625164E+03</rscale>
<asrwt>0</asrwt>
<pdfrwt beam="1">  1       21 0.13814933E-01 0.17625164E+03</pdfrwt>
<pdfrwt beam="2">  1       21 0.54874575E-01 0.17625164E+03</pdfrwt>
<totfact> 0.14354848E+05</totfact>
</mgrwt>
</event>
<event>
 4    1  0.3945814E+000  0.2183898E+03  0.7546771E-02  0.1135089E+00
         21   -1    0    0  503  502  0.00000000000E+00  0.00000000000E+00  0.28338166787E+03  0.28338166787E+03  0.00000000000E+00 0. -1.
         21   -1    0    0  501  503 -0.00000000000E+00 -0.00000000000E+00 -0.16863997939E+03  0.16863997939E+03  0.00000000000E+00 0. -1.
          6    1    1    2  501    0 -0.62178599422E+02 -0.11789364559E+03  0.47273395996E+02  0.22344767590E+03  0.17300000000E+03 0. -1.
         -6    1    1    2    0  502  0.62178599422E+02  0.11789364559E+03  0.67468292484E+02  0.22857397137E+03  0.17300000000E+03 0. -1.
<mgrwt>
<rscale>  2 0.21838977E+03</rscale>
<asrwt>0</asrwt>
<pdfrwt beam="1">  1       21 0.43597180E-01 0.21838977E+03</pdfrwt>
<pdfrwt beam="2">  1       21 0.25944612E-01 0.21838977E+03</pdfrwt>
<totfact> 0.70548703E+04</totfact>
</mgrwt>
</event>
<event>
 4    1  0.3945814E+000  0.2186080E+03  0.7546771E-02  0.1134925E+00
         21   -1    0    0  501  502  0.00000000000E+00  0.00000000000E+00  0.63832218822E+02  0.63832218822E+02  0.00000000000E+00 0. -1.
         21   -1    0    0  502  503 -0.00000000000E+00 -0.00000000000E+00 -0.12777088404E+04  0.12777088404E+04  0.00000000000E+00 0. -1.
          6    1    1    2  501    0  0.58011402906E+02 -0.12039580522E+03 -0.17531938345E+03  0.28022555022E+03  0.17300000000E+03 0. -1.
         -6    1    1    2    0  503 -0.58011402906E+02  0.12039580522E+03 -0.10385572381E+04  0.10613155090E+04  0.17300000000E+03 0. -1.
<mgrwt>
<rscale>  2 0.21860803E+03</rscale>
<asrwt>0</asrwt>
<pdfrwt beam="1">  1       21 0.98203419E-02 0.21860803E+03</pdfrwt>
<pdfrwt beam="2">  1       21 0.19657058E+00 0.21860803E+03</pdfrwt>
<totfact> 0.11597457E+04</totfact>
</mgrwt>
</event>
<event>
 4    1  0.3945814E+000  0.2120277E+03  0.7546771E-02  0.1139970E+00
         21   -1    0    0  503  502  0.00000000000E+00  0.00000000000E+00  0.32462361185E+03  0.32462361185E+03  0.00000000000E+00 0.  1.
         21   -1    0    0  501  503 -0.00000000000E+00 -0.00000000000E+00 -0.17934960580E+03  0.17934960580E+03  0.00000000000E+00 0. -1.
          6    1    1    2  501    0 -0.13050337511E+02  0.12188690073E+03  0.19291804729E+03  0.28665850911E+03  0.17300000000E+03 0.  1.
         -6    1    1    2    0  502  0.13050337511E+02 -0.12188690073E+03 -0.47644041242E+02  0.21731470853E+03  0.17300000000E+03 0. -1.
<mgrwt>
<rscale>  2 0.21202766E+03</rscale>
<asrwt>0</asrwt>
<pdfrwt beam="1">  1       21 0.49942094E-01 0.21202766E+03</pdfrwt>
<pdfrwt beam="2">  1       21 0.27592247E-01 0.21202766E+03</pdfrwt>
<totfact> 0.47423834E+04</totfact>
</mgrwt>
</event>
<event>
 4    1  0.3945814E+000  0.2554457E+03  0.7546771E-02  0.1109911E+00
         21   -1    0    0  501  502  0.00000000000E+00  0.00000000000E+00  0.73400249507E+03  0.73400249507E+03  0.00000000000E+00 0. -1.
         21   -1    0    0  502  503 -0.00000000000E+00 -0.00000000000E+00 -0.89865606401E+02  0.89865606401E+02  0.00000000000E+00 0.  1.
          6    1    1    2  501    0  0.15014637963E+03  0.11304667748E+03  0.27935804013E+03  0.37854114861E+03  0.17300000000E+03 0. -1.
         -6    1    1    2    0  503 -0.15014637963E+03 -0.11304667748E+03  0.36477884854E+03  0.44532695287E+03  0.17300000000E+03 0.  1.
<mgrwt>
<rscale>  2 0.25544566E+03</rscale>
<asrwt>0</asrwt>
<pdfrwt beam="1">  1       21 0.11292346E+00 0.25544566E+03</pdfrwt>
<pdfrwt beam="2">  1       21 0.13825478E-01 0.25544566E+03</pdfrwt>
<totfact> 0.26953428E+04</totfact>
</mgrwt>
</event>
<event>
 4    1  0.3945814E+000  0.2204895E+03  0.7546771E-02  0.1133519E+00
         21   -1    0    0  503  502  0.00000000000E+00  0.00000000000E+00  0.28838635534E+02  0.28838635534E+02  0.00000000000E+00 0.  1.
         21   -1    0    0  501  503 -0.00000000000E+00 -0.00000000000E+00 -0.16938248683E+04  0.16938248683E+04  0.00000000000E+00 0.  1.
          6    1    1    2  501    0 -0.96863041068E+02 -0.96458167701E+02 -0.89184928772E+03  0.91870059260E+03  0.17300000000E+03 0.  1.
         -6    1    1    2    0  502  0.96863041068E+02  0.96458167701E+02 -0.77313694505E+03  0.80396291123E+03  0.17300000000E+03 0.  1.
<mgrwt>
<rscale>  2 0.22048952E+03</rscale>
<asrwt>0</asrwt>
<pdfrwt beam="1">  1       21 0.44367116E-02 0.22048952E+03</pdfrwt>
<pdfrwt beam="2">  1       21 0.26058853E+00 0.22048952E+03</pdfrwt>
<totfact> 0.18527119E+04</totfact>
</mgrwt>
</event>
<event>
 4    1  0.3945814E+000  0.2224062E+03  0.7546771E-02  0.1132102E+00
         21   -1    0    0  503  502  0.00000000000E+00  0.00000000000E+00  0.75849267982E+02  0.75849267982E+02  0.00000000000E+00 0. -1.
         21   -1    0    0  501  503 -0.00000000000E+00 -0.00000000000E+00 -0.65218043797E+03  0.65218043797E+03  0.00000000000E+00 0. -1.
          6    1    1    2  501    0  0.11685269056E+03 -0.76687349132E+02 -0.28537460332E+03  0.36180542427E+03  0.17300000000E+03 0. -1.
         -6    1    1    2    0  502 -0.11685269056E+03  0.76687349132E+02 -0.29095656667E+03  0.36622428168E+03  0.17300000000E+03 0. -1.
<mgrwt>
<rscale>  2 0.22240616E+03</rscale>
<asrwt>0</asrwt>
<pdfrwt beam="1">  1       21 0.11669118E-01 0.22240616E+03</pdfrwt>
<pdfrwt beam="2">  1       21 0.10033545E+00 0.22240616E+03</pdfrwt>
<totfact> 0.49504728E+04</totfact>
</mgrwt>
</event>
<event>
 4    1  0.3945814E+000  0.2031843E+03  0.7546771E-02  0.1147080E+00
         21   -1    0    0  501  502  0.00000000000E+00  0.00000000000E+00  0.26307432775E+03  0.26307432775E+03  0.00000000000E+00 0. -1.
         21   -1    0    0  502  503 -0.00000000000E+00 -0.00000000000E+00 -0.10941345042E+04  0.10941345042E+04  0.00000000000E+00 0. -1.
          6    1    1    2  501    0 -0.71215140331E+02 -0.79267016610E+02  0.21252662006E+03  0.29402622395E+03  0.17300000000E+03 0. -1.
         -6    1    1    2    0  503  0.71215140331E+02  0.79267016610E+02 -0.10435867965E+04  0.10631826080E+04  0.17300000000E+03 0. -1.
<mgrwt>
<rscale>  2 0.20318429E+03</rscale>
<asrwt>0</asrwt>
<pdfrwt beam="1">  1       21 0.40472974E-01 0.20318429E+03</pdfrwt>
<pdfrwt beam="2">  1       21 0.16832839E+00 0.20318429E+03</pdfrwt>
<totfact> 0.12757351E+03</totfact>
</mgrwt>
</event>
<event>
 4    1  0.3945814E+000  0.4526920E+03  0.7546771E-02  0.1026922E+00
         21   -1    0    0  503  502  0.00000000000E+00  0.00000000000E+00  0.68006042438E+03  0.68006042438E+03  0.00000000000E+00 0.  1.
         21   -1    0    0  501  503 -0.00000000000E+00 -0.00000000000E+00 -0.35654566721E+03  0.35654566721E+03  0.00000000000E+00 0. -1.
          6    1    1    2  501    0 -0.26040836270E+03 -0.32739663080E+03 -0.42188149998E+02  0.45465361455E+03  0.17300000000E+03 0. -1.
         -6    1    1    2    0  502  0.26040836270E+03  0.32739663080E+03  0.36570290717E+03  0.58195247704E+03  0.17300000000E+03 0.  1.
<mgrwt>
<rscale>  2 0.45269202E+03</rscale>
<asrwt>0</asrwt>
<pdfrwt beam="1">  1       21 0.10462468E+00 0.45269202E+03</pdfrwt>
<pdfrwt beam="2">  1       21 0.54853180E-01 0.45269202E+03</pdfrwt>
<totfact> 0.19906676E+03</totfact>
</mgrwt>
</event>
<event>
 4    1  0.3945814E+000  0.2003258E+03  0.7546771E-02  0.1149464E+00
         21   -1    0    0  501  502  0.00000000000E+00  0.00000000000E+00  0.29415961569E+03  0.29415961569E+03  0.00000000000E+00 0. -1.
         21   -1    0    0  502  503 -0.00000000000E+00 -0.00000000000E+00 -0.14674994383E+03  0.14674994383E+03  0.00000000000E+00 0. -1.
          6    1    1    2  501    0  0.26036763190E+01  0.10096846430E+03  0.15226236363E+02  0.20090357933E+03  0.17300000000E+03 0. -1.
         -6    1    1    2    0  503 -0.26036763190E+01 -0.10096846430E+03  0.13218343550E+03  0.24000598020E+03  0.17300000000E+03 0. -1.
<mgrwt>
<rscale>  2 0.20032576E+03</rscale>
<asrwt>0</asrwt>
<pdfrwt beam="1">  1       21 0.45255325E-01 0.20032576E+03</pdfrwt>
<pdfrwt beam="2">  1       21 0.22576915E-01 0.20032576E+03</pdfrwt>
<totfact> 0.85824207E+04</totfact>
</mgrwt>
</event>
<event>
 4    1  0.3945814E+000  0.1887827E+03  0.7546771E-02  0.1159564E+00
         21   -1    0    0  501  502  0.00000000000E+00  0.00000000000E+00  0.68120405529E+02  0.68120405529E+02  0.00000000000E+00 0.  1.
         21   -1    0    0  502  503 -0.00000000000E+00 -0.00000000000E+00 -0.17182749085E+04  0.17182749085E+04  0.00000000000E+00 0. -1.
          6    1    1    2  501    0 -0.12878513202E+02 -0.74458476357E+02 -0.80168144380E+02  0.20509961525E+03  0.17300000000E+03 0.  1.
         -6    1    1    2    0  503  0.12878513202E+02  0.74458476357E+02 -0.15699863586E+04  0.15812956988E+04  0.17300000000E+03 0. -1.
<mgrwt>
<rscale>  2 0.18878273E+03</rscale>
<asrwt>0</asrwt>
<pdfrwt beam="1">  1       21 0.10480061E-01 0.18878273E+03</pdfrwt>
<pdfrwt beam="2">  1       21 0.26435001E+00 0.18878273E+03</pdfrwt>
<totfact> 0.41117958E+03</totfact>
</mgrwt>
</event>
<event>
 4    1  0.3945814E+000  0.1804652E+03  0.7546771E-02  0.1167354E+00
         21   -1    0    0  503  502  0.00000000000E+00  0.00000000000E+00  0.33957931880E+03  0.33957931880E+03  0.00000000000E+00 0.  1.
         21   -1    0    0  501  503 -0.00000000000E+00 -0.00000000000E+00 -0.95911990545E+02  0.95911990545E+02  0.00000000000E+00 0.  1.
          6    1    1    2  501    0  0.50914082475E+02 -0.68137944080E+01  0.12010328537E+03  0.21677746826E+03  0.17300000000E+03 0.  1.
         -6    1    1    2    0  502 -0.50914082475E+02  0.68137944080E+01  0.12356404289E+03  0.21871384109E+03  0.17300000000E+03 0.  1.
<mgrwt>
<rscale>  2 0.18046515E+03</rscale>
<asrwt>0</asrwt>
<pdfrwt beam="1">  1       21 0.52242971E-01 0.18046515E+03</pdfrwt>
<pdfrwt beam="2">  1       21 0.14755691E-01 0.18046515E+03</pdfrwt>
<totfact> 0.14107531E+05</totfact>
</mgrwt>
</event>
<event>
 4    1  0.3945814E+000  0.1793945E+03  0.7546771E-02  0.1168390E+00
         21   -1    0    0  501  502  0.00000000000E+00  0.00000000000E+00  0.30278892389E+04  0.30278892389E+04  0.00000000000E+00 0. -1.
         21   -1    0    0  502  503 -0.00000000000E+00 -0.00000000000E+00 -0.14127109515E+02  0.14127109515E+02  0.00000000000E+00 0. -1.
          6    1    1    2  501    0 -0.47200777397E+02 -0.50474760319E+01  0.22637889015E+04  0.22708858582E+04  0.17300000000E+03 0. -1.
         -6    1    1    2    0  503  0.47200777397E+02  0.50474760319E+01  0.74997322792E+03  0.77113049025E+03  0.17300000000E+03 0. -1.
<mgrwt>
<rscale>  2 0.17939451E+03</rscale>
<asrwt>0</asrwt>
<pdfrwt beam="1">  1       21 0.46582860E+00 0.17939451E+03</pdfrwt>
<pdfrwt beam="2">  1       21 0.21734039E-02 0.17939451E+03</pdfrwt>
<totfact> 0.35758462E+03</totfact>
</mgrwt>
</event>
<event>
 4    1  0.3945814E+000  0.1860722E+03  0.7546771E-02  0.1162052E+00
         21   -1    0    0  501  502  0.00000000000E+00  0.00000000000E+00  0.11304935127E+04  0.11304935127E+04  0.00000000000E+00 0. -1.
         21   -1    0    0  502  503 -0.00000000000E+00 -0.00000000000E+00 -0.31197140528E+02  0.31197140528E+02  0.00000000000E+00 0.  1.
          6    1    1    2  501    0  0.68409895654E+02 -0.37324855648E+01  0.62821814611E+03  0.65519530247E+03  0.17300000000E+03 0. -1.
         -6    1    1    2    0  503 -0.68409895654E+02  0.37324855648E+01  0.47107822604E+03  0.50649535074E+03  0.17300000000E+03 0. -1.
<mgrwt>
<rscale>  2 0.18607215E+03</rscale>
<asrwt>0</asrwt>
<pdfrwt beam="1">  1       21 0.17392205E+00 0.18607215E+03</pdfrwt>
<pdfrwt beam="2">  1       21 0.47995610E-02 0.18607215E+03</pdfrwt>
<totfact> 0.57978869E+04</totfact>
</mgrwt>
</event>
<event>
 4    1  0.3945814E+000  0.1740926E+03  0.7546771E-02  0.1173646E+00
         21   -1    0    0  503  502  0.00000000000E+00  0.00000000000E+00  0.17045091841E+03  0.17045091841E+03  0.00000000000E+00 0. -1.
         21   -1    0    0  501  503 -0.00000000000E+00 -0.00000000000E+00 -0.39315322702E+03  0.39315322702E+03  0.00000000000E+00 0. -1.
          6    1    1    2  501    0  0.69979846197E+01 -0.18172960880E+02 -0.31990912657E+03  0.36421158350E+03  0.17300000000E+03 0. -1.
         -6    1    1    2    0  502 -0.69979846197E+01  0.18172960880E+02  0.97206817950E+02  0.19939256193E+03  0.17300000000E+03 0. -1.
<mgrwt>
<rscale>  2 0.17409259E+03</rscale>
<asrwt>0</asrwt>
<pdfrwt beam="1">  1       21 0.26223219E-01 0.17409259E+03</pdfrwt>
<pdfrwt beam="2">  1       21 0.60485111E-01 0.17409259E+03</pdfrwt>
<totfact> 0.35550688E+04</totfact>
</mgrwt>
</event>
<event>
 4    1  0.3945814E+000  0.3479588E+03  0.7546771E-02  0.1063456E+00
         21   -1    0    0  503  502  0.00000000000E+00  0.00000000000E+00  0.11015553745E+04  0.11015553745E+04  0.00000000000E+00 0. -1.
         21   -1    0    0  501  503 -0.00000000000E+00 -0.00000000000E+00 -0.14497742660E+03  0.14497742660E+03  0.00000000000E+00 0. -1.
          6    1    1    2  501    0  0.28213920856E+03  0.10744215495E+03  0.17177070418E+03  0.38804706478E+03  0.17300000000E+03 0. -1.
         -6    1    1    2    0  502 -0.28213920856E+03 -0.10744215495E+03  0.78480724376E+03  0.85848573636E+03  0.17300000000E+03 0. -1.
<mgrwt>
<rscale>  2 0.34795883E+03</rscale>
<asrwt>0</asrwt>
<pdfrwt beam="1">  1       21 0.16947005E+00 0.34795883E+03</pdfrwt>
<pdfrwt beam="2">  1       21 0.22304220E-01 0.34795883E+03</pdfrwt>
<totfact> 0.36458003E+03</totfact>
</mgrwt>
</event>
<event>
 4    1  0.3945814E+000  0.2819869E+03  0.7546771E-02  0.1094609E+00
         21   -1    0    0  501  502  0.00000000000E+00  0.00000000000E+00  0.22121926109E+04  0.22121926109E+04  0.00000000000E+00 0.  1.
         21   -1    0    0  502  503 -0.00000000000E+00 -0.00000000000E+00 -0.35945132420E+02  0.35945132420E+02  0.00000000000E+00 0. -1.
          6    1    1    2  501    0 -0.68923647104E+02  0.21174776697E+03  0.10841969799E+04  0.11202676810E+04  0.17300000000E+03 0. -1.
         -6    1    1    2    0  503  0.68923647104E+02 -0.21174776697E+03  0.10920504986E+04  0.11278700623E+04  0.17300000000E+03 0. -1.
<mgrwt>
<rscale>  2 0.28198685E+03</rscale>
<asrwt>0</asrwt>
<pdfrwt beam="1">  1       21 0.34033722E+00 0.28198685E+03</pdfrwt>
<pdfrwt beam="2">  1       21 0.55300221E-02 0.28198685E+03</pdfrwt>
<totfact> 0.41137966E+03</totfact>
</mgrwt>
</event>
<event>
 4    1  0.3945814E+000  0.1769172E+03  0.7546771E-02  0.1170820E+00
         21   -1    0    0  503  502  0.00000000000E+00  0.00000000000E+00  0.64917397444E+03  0.64917397444E+03  0.00000000000E+00 0.  1.
         21   -1    0    0  501  503 -0.00000000000E+00 -0.00000000000E+00 -0.50333899338E+02  0.50333899338E+02  0.00000000000E+00 0. -1.
          6    1    1    2  501    0  0.11593331319E+02  0.35160928773E+02  0.22765328283E+03  0.28831530211E+03  0.17300000000E+03 0. -1.
         -6    1    1    2    0  502 -0.11593331319E+02 -0.35160928773E+02  0.37118679226E+03  0.41119257167E+03  0.17300000000E+03 0.  1.
<mgrwt>
<rscale>  2 0.17691720E+03</rscale>
<asrwt>0</asrwt>
<pdfrwt beam="1">  1       21 0.99872913E-01 0.17691720E+03</pdfrwt>
<pdfrwt beam="2">  1       21 0.77436773E-02 0.17691720E+03</pdfrwt>
<totfact> 0.10524495E+05</totfact>
</mgrwt>
</event>
<event>
 4    1  0.3945814E+000  0.1772238E+03  0.7546771E-02  0.1170517E+00
         21   -1    0    0  503  502  0.00000000000E+00  0.00000000000E+00  0.37239599942E+02  0.37239599942E+02  0.00000000000E+00 0. -1.
         21   -1    0    0  501  503 -0.00000000000E+00 -0.00000000000E+00 -0.17752288824E+04  0.17752288824E+04  0.00000000000E+00 0. -1.
          6    1    1    2  501    0 -0.22556670731E+01  0.38395159423E+02 -0.15255613907E+04  0.15358208987E+04  0.17300000000E+03 0. -1.
         -6    1    1    2    0  502  0.22556670731E+01 -0.38395159423E+02 -0.21242789177E+03  0.27664758358E+03  0.17300000000E+03 0. -1.
<mgrwt>
<rscale>  2 0.17722380E+03</rscale>
<asrwt>0</asrwt>
<pdfrwt beam="1">  1       21 0.57291707E-02 0.17722380E+03</pdfrwt>
<pdfrwt beam="2">  1       21 0.27311207E+00 0.17722380E+03</pdfrwt>
<totfact> 0.10574680E+04</totfact>
</mgrwt>
</event>
