<event>
 4    1  0.4023583E+000  0.1919917E+03  0.7546771E-02  0.1156677E+00
         21   -1    0    0  503  502  0.00000000000E+00  0.00000000000E+00  0.27753895452E+02  0.27753895452E+02  0.00000000000E+00 0. -1.
         21   -1    0    0  501  503 -0.00000000000E+00 -0.00000000000E+00 -0.15114134630E+04  0.15114134630E+04  0.00000000000E+00 0. -1.
          6    1    1    2  501    0  0.75944873271E+00 -0.83253940491E+02 -0.47383567921E+03  0.51125438508E+03  0.17300000000E+03 0. -1.
         -6    1    1    2    0  502 -0.75944873271E+00  0.83253940491E+02 -0.10098238883E+04  0.10279129734E+04  0.17300000000E+03 0. -1.
<mgrwt>
<rscale>  2 0.19199165E+03</rscale>
<asrwt>0</asrwt>
<pdfrwt beam="1">  1       21 0.42698291E-02 0.19199165E+03</pdfrwt>
<pdfrwt beam="2">  1       21 0.23252520E+00 0.19199165E+03</pdfrwt>
<totfact> 0.29670008E+04</totfact>
</mgrwt>
</event>
<event>
 4    1  0.4023583E+000  0.2479370E+03  0.7546771E-02  0.1114616E+00
         21   -1    0    0  501  502  0.00000000000E+00  0.00000000000E+00  0.58968334830E+03  0.58968334830E+03  0.00000000000E+00 0. -1.
         21   -1    0    0  502  503 -0.00000000000E+00 -0.00000000000E+00 -0.12287611172E+03  0.12287611172E+03  0.00000000000E+00 0. -1.
          6    1    1    2  501    0  0.12688041046E+03 -0.12427837473E+03  0.37212800268E+03  0.44715993041E+03  0.17300000000E+03 0. -1.
         -6    1    1    2    0  503 -0.12688041046E+03  0.12427837473E+03  0.94679233898E+02  0.26539952961E+03  0.17300000000E+03 0. -1.
<mgrwt>
<rscale>  2 0.24793699E+03</rscale>
<asrwt>0</asrwt>
<pdfrwt beam="1">  1       21 0.90720513E-01 0.24793699E+03</pdfrwt>
<pdfrwt beam="2">  1       21 0.18904018E-01 0.24793699E+03</pdfrwt>
<totfact> 0.25673506E+04</totfact>
</mgrwt>
</event>
<event>
 4    1  0.4023583E+000  0.2458464E+03  0.7546771E-02  0.1115958E+00
         21   -1    0    0  501  502  0.00000000000E+00  0.00000000000E+00  0.25085659666E+03  0.25085659666E+03  0.00000000000E+00 0. -1.
         21   -1    0    0  502  503 -0.00000000000E+00 -0.00000000000E+00 -0.25949595162E+03  0.25949595162E+03  0.00000000000E+00 0. -1.
          6    1    1    2  501    0 -0.34960236766E+02 -0.17114096235E+03  0.63923700943E+02  0.25402103592E+03  0.17300000000E+03 0. -1.
         -6    1    1    2    0  503  0.34960236766E+02  0.17114096235E+03 -0.72563055902E+02  0.25633151236E+03  0.17300000000E+03 0. -1.
<mgrwt>
<rscale>  2 0.24584639E+03</rscale>
<asrwt>0</asrwt>
<pdfrwt beam="1">  1       21 0.38593323E-01 0.24584639E+03</pdfrwt>
<pdfrwt beam="2">  1       21 0.39922454E-01 0.24584639E+03</pdfrwt>
<totfact> 0.38168441E+04</totfact>
</mgrwt>
</event>
<event>
 4    1  0.4023583E+000  0.2084262E+03  0.7546771E-02  0.1142818E+00
         21   -1    0    0  501  502  0.00000000000E+00  0.00000000000E+00  0.11306005992E+04  0.11306005992E+04  0.00000000000E+00 0. -1.
         21   -1    0    0  502  503 -0.00000000000E+00 -0.00000000000E+00 -0.50641875403E+02  0.50641875403E+02  0.00000000000E+00 0. -1.
          6    1    1    2  501    0 -0.23535108147E+02  0.11383574710E+03  0.83008977261E+03  0.85585659384E+03  0.17300000000E+03 0. -1.
         -6    1    1    2    0  503  0.23535108147E+02 -0.11383574710E+03  0.24986895120E+03  0.32538588077E+03  0.17300000000E+03 0. -1.
<mgrwt>
<rscale>  2 0.20842619E+03</rscale>
<asrwt>0</asrwt>
<pdfrwt beam="1">  1       21 0.17393853E+00 0.20842619E+03</pdfrwt>
<pdfrwt beam="2">  1       21 0.77910586E-02 0.20842619E+03</pdfrwt>
<totfact> 0.24899680E+04</totfact>
</mgrwt>
</event>
<event>
 4    1  0.4023583E+000  0.1852913E+03  0.7546771E-02  0.1162778E+00
         21   -1    0    0  503  502  0.00000000000E+00  0.00000000000E+00  0.43765529942E+03  0.43765529942E+03  0.00000000000E+00 0. -1.
         21   -1    0    0  501  503 -0.00000000000E+00 -0.00000000000E+00 -0.20408796528E+03  0.20408796528E+03  0.00000000000E+00 0. -1.
          6    1    1    2  501    0  0.61552170810E+02  0.24803254259E+02 -0.13497693053E+03  0.22924145115E+03  0.17300000000E+03 0. -1.
         -6    1    1    2    0  502 -0.61552170810E+02 -0.24803254259E+02  0.36854426467E+03  0.41250181354E+03  0.17300000000E+03 0. -1.
<mgrwt>
<rscale>  2 0.18529131E+03</rscale>
<asrwt>0</asrwt>
<pdfrwt beam="1">  1       21 0.67331585E-01 0.18529131E+03</pdfrwt>
<pdfrwt beam="2">  1       21 0.31398149E-01 0.18529131E+03</pdfrwt>
<totfact> 0.19760414E+04</totfact>
</mgrwt>
</event>
<event>
 4    1  0.4023583E+000  0.1956856E+03  0.7546771E-02  0.1153431E+00
         21   -1    0    0  501  502  0.00000000000E+00  0.00000000000E+00  0.82995692808E+03  0.82995692808E+03  0.00000000000E+00 0.  1.
         21   -1    0    0  502  503 -0.00000000000E+00 -0.00000000000E+00 -0.80511185681E+02  0.80511185681E+02  0.00000000000E+00 0. -1.
          6    1    1    2  501    0  0.48048909464E+02  0.77814792872E+02  0.77272618904E+02  0.21038986982E+03  0.17300000000E+03 0. -1.
         -6    1    1    2    0  503 -0.48048909464E+02 -0.77814792872E+02  0.67217312349E+03  0.70007824394E+03  0.17300000000E+03 0.  1.
<mgrwt>
<rscale>  2 0.19568556E+03</rscale>
<asrwt>0</asrwt>
<pdfrwt beam="1">  1       21 0.12768567E+00 0.19568556E+03</pdfrwt>
<pdfrwt beam="2">  1       21 0.12386337E-01 0.19568556E+03</pdfrwt>
<totfact> 0.25028336E+04</totfact>
</mgrwt>
</event>
<event>
 4    1  0.4023583E+000  0.2112111E+03  0.7546771E-02  0.1140610E+00
         21   -1    0    0  503  502  0.00000000000E+00  0.00000000000E+00  0.61539526343E+03  0.61539526343E+03  0.00000000000E+00 0.  1.
         21   -1    0    0  501  503 -0.00000000000E+00 -0.00000000000E+00 -0.77065405406E+02  0.77065405406E+02  0.00000000000E+00 0. -1.
          6    1    1    2  501    0  0.11164210396E+03 -0.47086845032E+02  0.35352565784E+03  0.41181369708E+03  0.17300000000E+03 0.  1.
         -6    1    1    2    0  502 -0.11164210396E+03  0.47086845032E+02  0.18480420019E+03  0.28064697176E+03  0.17300000000E+03 0.  1.
<mgrwt>
<rscale>  2 0.21121110E+03</rscale>
<asrwt>0</asrwt>
<pdfrwt beam="1">  1       21 0.94676191E-01 0.21121110E+03</pdfrwt>
<pdfrwt beam="2">  1       21 0.11856217E-01 0.21121110E+03</pdfrwt>
<totfact> 0.55481990E+04</totfact>
</mgrwt>
</event>
<event>
 4    1  0.4023583E+000  0.2302387E+03  0.7546771E-02  0.1126472E+00
         21   -1    0    0  501  502  0.00000000000E+00  0.00000000000E+00  0.31578077519E+03  0.31578077519E+03  0.00000000000E+00 0.  1.
         21   -1    0    0  502  503 -0.00000000000E+00 -0.00000000000E+00 -0.52108881312E+03  0.52108881312E+03  0.00000000000E+00 0.  1.
          6    1    1    2  501    0  0.64774559349E+02 -0.13742307074E+03  0.24185005646E+03  0.33391809433E+03  0.17300000000E+03 0.  1.
         -6    1    1    2    0  503 -0.64774559349E+02  0.13742307074E+03 -0.44715809440E+03  0.50295149398E+03  0.17300000000E+03 0.  1.
<mgrwt>
<rscale>  2 0.23023867E+03</rscale>
<asrwt>0</asrwt>
<pdfrwt beam="1">  1       21 0.48581658E-01 0.23023867E+03</pdfrwt>
<pdfrwt beam="2">  1       21 0.80167509E-01 0.23023867E+03</pdfrwt>
<totfact> 0.53880366E+03</totfact>
</mgrwt>
</event>
<event>
 4    1  0.4023583E+000  0.1825582E+03  0.7546771E-02  0.1165350E+00
         21   -1    0    0  503  502  0.00000000000E+00  0.00000000000E+00  0.13358495385E+04  0.13358495385E+04  0.00000000000E+00 0.  1.
         21   -1    0    0  501  503 -0.00000000000E+00 -0.00000000000E+00 -0.25941893759E+02  0.25941893759E+02  0.00000000000E+00 0.  1.
          6    1    1    2  501    0 -0.57465936506E+02 -0.98066231926E+01  0.52171511440E+03  0.55273335733E+03  0.17300000000E+03 0.  1.
         -6    1    1    2    0  502  0.57465936506E+02  0.98066231926E+01  0.78819253037E+03  0.80905807495E+03  0.17300000000E+03 0.  1.
<mgrwt>
<rscale>  2 0.18255822E+03</rscale>
<asrwt>0</asrwt>
<pdfrwt beam="1">  1       21 0.20551526E+00 0.18255822E+03</pdfrwt>
<pdfrwt beam="2">  1       21 0.39910616E-02 0.18255822E+03</pdfrwt>
<totfact> 0.49037270E+04</totfact>
</mgrwt>
</event>
<event>
 4    1  0.4023583E+000  0.1940030E+03  0.7546771E-02  0.1154900E+00
         21   -1    0    0  501  502  0.00000000000E+00  0.00000000000E+00  0.69766015501E+03  0.69766015501E+03  0.00000000000E+00 0. -1.
         21   -1    0    0  502  503 -0.00000000000E+00 -0.00000000000E+00 -0.54048273841E+02  0.54048273841E+02  0.00000000000E+00 0. -1.
          6    1    1    2  501    0  0.87668204008E+02  0.47382544492E+01  0.30559315249E+03  0.36197284415E+03  0.17300000000E+03 0. -1.
         -6    1    1    2    0  503 -0.87668204008E+02 -0.47382544492E+01  0.33801872867E+03  0.38973558470E+03  0.17300000000E+03 0. -1.
<mgrwt>
<rscale>  2 0.19400300E+03</rscale>
<asrwt>0</asrwt>
<pdfrwt beam="1">  1       21 0.10733233E+00 0.19400300E+03</pdfrwt>
<pdfrwt beam="2">  1       21 0.83151195E-02 0.19400300E+03</pdfrwt>
<totfact> 0.77701457E+04</totfact>
</mgrwt>
</event>
<event>
 4    1  0.4023583E+000  0.1997371E+03  0.7546771E-02  0.1149961E+00
         21   -1    0    0  501  502  0.00000000000E+00  0.00000000000E+00  0.35224004279E+03  0.35224004279E+03  0.00000000000E+00 0. -1.
         21   -1    0    0  502  503 -0.00000000000E+00 -0.00000000000E+00 -0.11326110497E+03  0.11326110497E+03  0.00000000000E+00 0. -1.
          6    1    1    2  501    0 -0.70800928563E+02 -0.70378389601E+02  0.12001996191E+03  0.23302291832E+03  0.17300000000E+03 0. -1.
         -6    1    1    2    0  503  0.70800928563E+02  0.70378389601E+02  0.11895897591E+03  0.23247822943E+03  0.17300000000E+03 0. -1.
<mgrwt>
<rscale>  2 0.19973705E+03</rscale>
<asrwt>0</asrwt>
<pdfrwt beam="1">  1       21 0.54190775E-01 0.19973705E+03</pdfrwt>
<pdfrwt beam="2">  1       21 0.17424786E-01 0.19973705E+03</pdfrwt>
<totfact> 0.95664288E+04</totfact>
</mgrwt>
</event>
<event>
 4    1  0.4023583E+000  0.2233008E+03  0.7546771E-02  0.1131446E+00
         21   -1    0    0  503  502  0.00000000000E+00  0.00000000000E+00  0.99021801271E+02  0.99021801271E+02  0.00000000000E+00 0. -1.
         21   -1    0    0  501  503 -0.00000000000E+00 -0.00000000000E+00 -0.60020664935E+03  0.60020664935E+03  0.00000000000E+00 0.  1.
          6    1    1    2  501    0  0.13517934381E+03  0.40752781035E+02 -0.39088543790E+03  0.45017182244E+03  0.17300000000E+03 0. -1.
         -6    1    1    2    0  502 -0.13517934381E+03 -0.40752781035E+02 -0.11029941017E+03  0.24905662818E+03  0.17300000000E+03 0. -1.
<mgrwt>
<rscale>  2 0.22330079E+03</rscale>
<asrwt>0</asrwt>
<pdfrwt beam="1">  1       21 0.15234123E-01 0.22330079E+03</pdfrwt>
<pdfrwt beam="2">  1       21 0.92339483E-01 0.22330079E+03</pdfrwt>
<totfact> 0.37149234E+04</totfact>
</mgrwt>
</event>
<event>
 4    1  0.4023583E+000  0.1861027E+03  0.7546771E-02  0.1162024E+00
         21   -1    0    0  501  502  0.00000000000E+00  0.00000000000E+00  0.40912195396E+03  0.40912195396E+03  0.00000000000E+00 0. -1.
         21   -1    0    0  502  503 -0.00000000000E+00 -0.00000000000E+00 -0.14865551035E+03  0.14865551035E+03  0.00000000000E+00 0. -1.
          6    1    1    2  501    0  0.68358118379E+02 -0.56920436245E+01  0.31322520973E+03  0.36434086200E+03  0.17300000000E+03 0. -1.
         -6    1    1    2    0  503 -0.68358118379E+02  0.56920436245E+01 -0.52758766126E+02  0.19343660231E+03  0.17300000000E+03 0. -1.
<mgrwt>
<rscale>  2 0.18610275E+03</rscale>
<asrwt>0</asrwt>
<pdfrwt beam="1">  1       21 0.62941838E-01 0.18610275E+03</pdfrwt>
<pdfrwt beam="2">  1       21 0.22870079E-01 0.18610275E+03</pdfrwt>
<totfact> 0.42063991E+04</totfact>
</mgrwt>
</event>
<event>
 4    1  0.4023583E+000  0.3402190E+03  0.7546771E-02  0.1066703E+00
         21   -1    0    0  501  502  0.00000000000E+00  0.00000000000E+00  0.55336517580E+03  0.55336517580E+03  0.00000000000E+00 0. -1.
         21   -1    0    0  502  503 -0.00000000000E+00 -0.00000000000E+00 -0.27252560221E+03  0.27252560221E+03  0.00000000000E+00 0.  1.
          6    1    1    2  501    0 -0.16995857213E+03 -0.23860860409E+03  0.33951996124E+03  0.48064829789E+03  0.17300000000E+03 0. -1.
         -6    1    1    2    0  503  0.16995857213E+03  0.23860860409E+03 -0.58680387645E+02  0.34524248012E+03  0.17300000000E+03 0.  1.
<mgrwt>
<rscale>  2 0.34021902E+03</rscale>
<asrwt>0</asrwt>
<pdfrwt beam="1">  1       21 0.85133104E-01 0.34021902E+03</pdfrwt>
<pdfrwt beam="2">  1       21 0.41927016E-01 0.34021902E+03</pdfrwt>
<totfact> 0.60057457E+03</totfact>
</mgrwt>
</event>
<event>
 4    1  0.4023583E+000  0.1772671E+03  0.7546771E-02  0.1170474E+00
         21   -1    0    0  501  502  0.00000000000E+00  0.00000000000E+00  0.50923518931E+02  0.50923518931E+02  0.00000000000E+00 0.  1.
         21   -1    0    0  502  503 -0.00000000000E+00 -0.00000000000E+00 -0.64770741757E+03  0.64770741757E+03  0.00000000000E+00 0. -1.
          6    1    1    2  501    0 -0.31260837609E+02 -0.22746277200E+02 -0.22242605590E+03  0.28442395018E+03  0.17300000000E+03 0.  1.
         -6    1    1    2    0  503  0.31260837609E+02  0.22746277200E+02 -0.37435784274E+03  0.41420698632E+03  0.17300000000E+03 0. -1.
<mgrwt>
<rscale>  2 0.17726712E+03</rscale>
<asrwt>0</asrwt>
<pdfrwt beam="1">  1       21 0.78343880E-02 0.17726712E+03</pdfrwt>
<pdfrwt beam="2">  1       21 0.99647290E-01 0.17726712E+03</pdfrwt>
<totfact> 0.10367708E+05</totfact>
</mgrwt>
</event>
<event>
 4    1  0.4023583E+000  0.1937120E+03  0.7546771E-02  0.1155155E+00
         21   -1    0    0  501  502  0.00000000000E+00  0.00000000000E+00  0.84065322123E+02  0.84065322123E+02  0.00000000000E+00 0. -1.
         21   -1    0    0  502  503 -0.00000000000E+00 -0.00000000000E+00 -0.47735973764E+03  0.47735973764E+03  0.00000000000E+00 0. -1.
          6    1    1    2  501    0 -0.87035214811E+02 -0.44940797886E+01 -0.12512505818E+03  0.23060920527E+03  0.17300000000E+03 0. -1.
         -6    1    1    2    0  503  0.87035214811E+02  0.44940797886E+01 -0.26816935733E+03  0.33081585449E+03  0.17300000000E+03 0. -1.
<mgrwt>
<rscale>  2 0.19371196E+03</rscale>
<asrwt>0</asrwt>
<pdfrwt beam="1">  1       21 0.12933127E-01 0.19371196E+03</pdfrwt>
<pdfrwt beam="2">  1       21 0.73439958E-01 0.19371196E+03</pdfrwt>
<totfact> 0.85449288E+04</totfact>
</mgrwt>
</event>
<event>
 4    1  0.4023583E+000  0.3649378E+03  0.7546771E-02  0.1056646E+00
         21   -1    0    0  501  502  0.00000000000E+00  0.00000000000E+00  0.50386013192E+03  0.50386013192E+03  0.00000000000E+00 0.  1.
         21   -1    0    0  502  503 -0.00000000000E+00 -0.00000000000E+00 -0.26620201219E+03  0.26620201219E+03  0.00000000000E+00 0. -1.
          6    1    1    2  501    0 -0.77157836208E+02 -0.31192510097E+03  0.86442576149E+02  0.37503589065E+03  0.17300000000E+03 0. -1.
         -6    1    1    2    0  503  0.77157836208E+02  0.31192510097E+03  0.15121554358E+03  0.39502625346E+03  0.17300000000E+03 0.  1.
<mgrwt>
<rscale>  2 0.36493780E+03</rscale>
<asrwt>0</asrwt>
<pdfrwt beam="1">  1       21 0.77516943E-01 0.36493780E+03</pdfrwt>
<pdfrwt beam="2">  1       21 0.40954156E-01 0.36493780E+03</pdfrwt>
<totfact> 0.77442863E+03</totfact>
</mgrwt>
</event>
<event>
 4    1  0.4023583E+000  0.1838839E+03  0.7546771E-02  0.1164096E+00
         21   -1    0    0  503  502  0.00000000000E+00  0.00000000000E+00  0.58953026825E+02  0.58953026825E+02  0.00000000000E+00 0.  1.
         21   -1    0    0  501  503 -0.00000000000E+00 -0.00000000000E+00 -0.57743953687E+03  0.57743953687E+03  0.00000000000E+00 0. -1.
          6    1    1    2  501    0 -0.50881333671E+02  0.35991115316E+02 -0.23317163558E+03  0.29695501703E+03  0.17300000000E+03 0.  1.
         -6    1    1    2    0  502  0.50881333671E+02 -0.35991115316E+02 -0.28531487447E+03  0.33943754667E+03  0.17300000000E+03 0. -1.
<mgrwt>
<rscale>  2 0.18388385E+03</rscale>
<asrwt>0</asrwt>
<pdfrwt beam="1">  1       21 0.90696961E-02 0.18388385E+03</pdfrwt>
<pdfrwt beam="2">  1       21 0.88836855E-01 0.18388385E+03</pdfrwt>
<totfact> 0.10469464E+05</totfact>
</mgrwt>
</event>
<event>
 4    1  0.4023583E+000  0.2336251E+03  0.7546771E-02  0.1124114E+00
         21   -1    0    0  501  502  0.00000000000E+00  0.00000000000E+00  0.11127915106E+04  0.11127915106E+04  0.00000000000E+00 0. -1.
         21   -1    0    0  502  503 -0.00000000000E+00 -0.00000000000E+00 -0.15355127041E+03  0.15355127041E+03  0.00000000000E+00 0. -1.
          6    1    1    2  501    0  0.12592647842E+03  0.93777427390E+02  0.10019665250E+04  0.10288428457E+04  0.17300000000E+03 0. -1.
         -6    1    1    2    0  503 -0.12592647842E+03 -0.93777427390E+02 -0.42726284842E+02  0.23749993531E+03  0.17300000000E+03 0. -1.
<mgrwt>
<rscale>  2 0.23362509E+03</rscale>
<asrwt>0</asrwt>
<pdfrwt beam="1">  1       21 0.17119869E+00 0.23362509E+03</pdfrwt>
<pdfrwt beam="2">  1       21 0.23623273E-01 0.23362509E+03</pdfrwt>
<totfact> 0.34087892E+03</totfact>
</mgrwt>
</event>
<event>
 4    1  0.4023583E+000  0.1842854E+03  0.7546771E-02  0.1163719E+00
         21   -1    0    0  503  502  0.00000000000E+00  0.00000000000E+00  0.67945744165E+03  0.67945744165E+03  0.00000000000E+00 0. -1.
         21   -1    0    0  501  503 -0.00000000000E+00 -0.00000000000E+00 -0.74359400197E+02  0.74359400197E+02  0.00000000000E+00 0. -1.
          6    1    1    2  501    0  0.10260721046E+02 -0.62664395810E+02  0.86747017390E+02  0.20368150118E+03  0.17300000000E+03 0. -1.
         -6    1    1    2    0  502 -0.10260721046E+02  0.62664395810E+02  0.51835102406E+03  0.55013534066E+03  0.17300000000E+03 0. -1.
<mgrwt>
<rscale>  2 0.18428540E+03</rscale>
<asrwt>0</asrwt>
<pdfrwt beam="1">  1       21 0.10453191E+00 0.18428540E+03</pdfrwt>
<pdfrwt beam="2">  1       21 0.11439908E-01 0.18428540E+03</pdfrwt>
<totfact> 0.47398885E+04</totfact>
</mgrwt>
</event>
<event>
 4    1  0.4023583E+000  0.1853776E+03  0.7546771E-02  0.1162698E+00
         21   -1    0    0  501  502  0.00000000000E+00  0.00000000000E+00  0.48456648755E+02  0.48456648755E+02  0.00000000000E+00 0. -1.
         21   -1    0    0  502  503 -0.00000000000E+00 -0.00000000000E+00 -0.96695224159E+03  0.96695224159E+03  0.00000000000E+00 0. -1.
          6    1    1    2  501    0 -0.10677069801E+02 -0.65740925661E+02 -0.19711589971E+03  0.27059110673E+03  0.17300000000E+03 0.  1.
         -6    1    1    2    0  503  0.10677069801E+02  0.65740925661E+02 -0.72137969312E+03  0.74481778361E+03  0.17300000000E+03 0.  1.
<mgrwt>
<rscale>  2 0.18537764E+03</rscale>
<asrwt>0</asrwt>
<pdfrwt beam="1">  1       21 0.74548698E-02 0.18537764E+03</pdfrwt>
<pdfrwt beam="2">  1       21 0.14876187E+00 0.18537764E+03</pdfrwt>
<totfact> 0.41615103E+04</totfact>
</mgrwt>
</event>
<event>
 4    1  0.4023583E+000  0.1876606E+03  0.7546771E-02  0.1160588E+00
         21   -1    0    0  501  502  0.00000000000E+00  0.00000000000E+00  0.42916283076E+03  0.42916283076E+03  0.00000000000E+00 0. -1.
         21   -1    0    0  502  503 -0.00000000000E+00 -0.00000000000E+00 -0.19512160353E+03  0.19512160353E+03  0.00000000000E+00 0. -1.
          6    1    1    2  501    0  0.43489387142E+02  0.58276851362E+02  0.35462804263E+03  0.40122009773E+03  0.17300000000E+03 0. -1.
         -6    1    1    2    0  503 -0.43489387142E+02 -0.58276851362E+02 -0.12058681541E+03  0.22306433657E+03  0.17300000000E+03 0. -1.
<mgrwt>
<rscale>  2 0.18766065E+03</rscale>
<asrwt>0</asrwt>
<pdfrwt beam="1">  1       21 0.66025051E-01 0.18766065E+03</pdfrwt>
<pdfrwt beam="2">  1       21 0.30018708E-01 0.18766065E+03</pdfrwt>
<totfact> 0.22484217E+04</totfact>
</mgrwt>
</event>
<event>
 4    1  0.4023583E+000  0.2445094E+03  0.7546771E-02  0.1116825E+00
         21   -1    0    0  501  502  0.00000000000E+00  0.00000000000E+00  0.27550049909E+04  0.27550049909E+04  0.00000000000E+00 0. -1.
         21   -1    0    0  502  503 -0.00000000000E+00 -0.00000000000E+00 -0.80601163320E+02  0.80601163320E+02  0.00000000000E+00 0.  1.
          6    1    1    2  501    0 -0.66114005777E+02  0.15963956190E+03  0.25492100414E+04  0.25609093476E+04  0.17300000000E+03 0. -1.
         -6    1    1    2    0  503  0.66114005777E+02 -0.15963956190E+03  0.12519378624E+03  0.27469680668E+03  0.17300000000E+03 0.  1.
<mgrwt>
<rscale>  2 0.24450941E+03</rscale>
<asrwt>0</asrwt>
<pdfrwt beam="1">  1       21 0.42384685E+00 0.24450941E+03</pdfrwt>
<pdfrwt beam="2">  1       21 0.12400181E-01 0.24450941E+03</pdfrwt>
<totfact> 0.31515059E+02</totfact>
</mgrwt>
</event>
<event>
 4    1  0.4023583E+000  0.1942493E+03  0.7546771E-02  0.1154684E+00
         21   -1    0    0  503  502  0.00000000000E+00  0.00000000000E+00  0.89078992182E+03  0.89078992182E+03  0.00000000000E+00 0. -1.
         21   -1    0    0  501  503 -0.00000000000E+00 -0.00000000000E+00 -0.50388103720E+02  0.50388103720E+02  0.00000000000E+00 0. -1.
          6    1    1    2  501    0  0.82149124791E+02 -0.32485428155E+02  0.23234838517E+03  0.30285071213E+03  0.17300000000E+03 0.  1.
         -6    1    1    2    0  502 -0.82149124791E+02  0.32485428155E+02  0.60805343294E+03  0.63832731342E+03  0.17300000000E+03 0.  1.
<mgrwt>
<rscale>  2 0.19424928E+03</rscale>
<asrwt>0</asrwt>
<pdfrwt beam="1">  1       21 0.13704459E+00 0.19424928E+03</pdfrwt>
<pdfrwt beam="2">  1       21 0.77520166E-02 0.19424928E+03</pdfrwt>
<totfact> 0.47880661E+04</totfact>
</mgrwt>
</event>
<event>
 4    1  0.4023583E+000  0.1778149E+03  0.7546771E-02  0.1169935E+00
         21   -1    0    0  501  502  0.00000000000E+00  0.00000000000E+00  0.79176589218E+02  0.79176589218E+02  0.00000000000E+00 0. -1.
         21   -1    0    0  502  503 -0.00000000000E+00 -0.00000000000E+00 -0.68691841085E+03  0.68691841085E+03  0.00000000000E+00 0. -1.
          6    1    1    2  501    0  0.11259199844E+02 -0.39526643352E+02 -0.56025651523E+02  0.18643228997E+03  0.17300000000E+03 0. -1.
         -6    1    1    2    0  503 -0.11259199844E+02  0.39526643352E+02 -0.55171617011E+03  0.57966271010E+03  0.17300000000E+03 0. -1.
<mgrwt>
<rscale>  2 0.17781486E+03</rscale>
<asrwt>0</asrwt>
<pdfrwt beam="1">  1       21 0.12181014E-01 0.17781486E+03</pdfrwt>
<pdfrwt beam="2">  1       21 0.10567975E+00 0.17781486E+03</pdfrwt>
<totfact> 0.41423343E+04</totfact>
</mgrwt>
</event>
<event>
 4    1  0.4023583E+000  0.1761221E+03  0.7546771E-02  0.1171610E+00
         21   -1    0    0  501  502  0.00000000000E+00  0.00000000000E+00  0.23380254321E+03  0.23380254321E+03  0.00000000000E+00 0. -1.
         21   -1    0    0  502  503 -0.00000000000E+00 -0.00000000000E+00 -0.24700202915E+03  0.24700202915E+03  0.00000000000E+00 0.  1.
          6    1    1    2  501    0  0.96467751865E+01  0.31573980768E+02  0.15695724160E+03  0.23591217057E+03  0.17300000000E+03 0. -1.
         -6    1    1    2    0  503 -0.96467751865E+01 -0.31573980768E+02 -0.17015672754E+03  0.24489240180E+03  0.17300000000E+03 0.  1.
<mgrwt>
<rscale>  2 0.17612205E+03</rscale>
<asrwt>0</asrwt>
<pdfrwt beam="1">  1       21 0.35969622E-01 0.17612205E+03</pdfrwt>
<pdfrwt beam="2">  1       21 0.38000312E-01 0.17612205E+03</pdfrwt>
<totfact> 0.50167073E+04</totfact>
</mgrwt>
</event>
<event>
 4    1  0.4023583E+000  0.2089657E+03  0.7546771E-02  0.1142388E+00
         21   -1    0    0  503  502  0.00000000000E+00  0.00000000000E+00  0.12663055892E+04  0.12663055892E+04  0.00000000000E+00 0.  1.
         21   -1    0    0  501  503 -0.00000000000E+00 -0.00000000000E+00 -0.17580187487E+03  0.17580187487E+03  0.00000000000E+00 0.  1.
          6    1    1    2  501    0  0.69143158710E+02 -0.94640824679E+02 -0.10122826962E+03  0.23219350693E+03  0.17300000000E+03 0.  1.
         -6    1    1    2    0  502 -0.69143158710E+02  0.94640824679E+02  0.11917319839E+04  0.12099139571E+04  0.17300000000E+03 0.  1.
<mgrwt>
<rscale>  2 0.20896570E+03</rscale>
<asrwt>0</asrwt>
<pdfrwt beam="1">  1       21 0.19481624E+00 0.20896570E+03</pdfrwt>
<pdfrwt beam="2">  1       21 0.27046443E-01 0.20896570E+03</pdfrwt>
<totfact> 0.18583049E+03</totfact>
</mgrwt>
</event>
<event>
 4    1  0.4023583E+000  0.3301211E+03  0.7546771E-02  0.1071083E+00
         21   -1    0    0  501  502  0.00000000000E+00  0.00000000000E+00  0.51963309890E+03  0.51963309890E+03  0.00000000000E+00 0. -1.
         21   -1    0    0  502  503 -0.00000000000E+00 -0.00000000000E+00 -0.25020855585E+03  0.25020855585E+03  0.00000000000E+00 0.  1.
          6    1    1    2  501    0 -0.28000465930E+03 -0.25462870028E+02  0.28954420334E+03  0.43910797381E+03  0.17300000000E+03 0. -1.
         -6    1    1    2    0  503  0.28000465930E+03  0.25462870028E+02 -0.20119660291E+02  0.33073368094E+03  0.17300000000E+03 0.  1.
<mgrwt>
<rscale>  2 0.33012114E+03</rscale>
<asrwt>0</asrwt>
<pdfrwt beam="1">  1       21 0.79943553E-01 0.33012114E+03</pdfrwt>
<pdfrwt beam="2">  1       21 0.38493624E-01 0.33012114E+03</pdfrwt>
<totfact> 0.83081758E+03</totfact>
</mgrwt>
</event>
<event>
 4    1  0.4023583E+000  0.1783410E+03  0.7546771E-02  0.1169418E+00
         21   -1    0    0  501  502  0.00000000000E+00  0.00000000000E+00  0.39432344582E+03  0.39432344582E+03  0.00000000000E+00 0. -1.
         21   -1    0    0  502  503 -0.00000000000E+00 -0.00000000000E+00 -0.84433427702E+02  0.84433427702E+02  0.00000000000E+00 0. -1.
          6    1    1    2  501    0  0.34231320671E+02  0.26547043977E+02  0.10432952220E+03  0.20661601598E+03  0.17300000000E+03 0. -1.
         -6    1    1    2    0  503 -0.34231320671E+02 -0.26547043977E+02  0.20556049592E+03  0.27214085754E+03  0.17300000000E+03 0. -1.
<mgrwt>
<rscale>  2 0.17834105E+03</rscale>
<asrwt>0</asrwt>
<pdfrwt beam="1">  1       21 0.60665145E-01 0.17834105E+03</pdfrwt>
<pdfrwt beam="2">  1       21 0.12989758E-01 0.17834105E+03</pdfrwt>
<totfact> 0.12945937E+05</totfact>
</mgrwt>
</event>
<event>
 4    1  0.4023583E+000  0.1926553E+03  0.7546771E-02  0.1156088E+00
         21   -1    0    0  503  502  0.00000000000E+00  0.00000000000E+00  0.86888179331E+03  0.86888179331E+03  0.00000000000E+00 0. -1.
         21   -1    0    0  501  503 -0.00000000000E+00 -0.00000000000E+00 -0.80789685297E+02  0.80789685297E+02  0.00000000000E+00 0. -1.
          6    1    1    2  501    0  0.21385041793E+02  0.82035101544E+02  0.68080402358E+02  0.20433066114E+03  0.17300000000E+03 0. -1.
         -6    1    1    2    0  502 -0.21385041793E+02 -0.82035101544E+02  0.72001170565E+03  0.74534081746E+03  0.17300000000E+03 0. -1.
<mgrwt>
<rscale>  2 0.19265533E+03</rscale>
<asrwt>0</asrwt>
<pdfrwt beam="1">  1       21 0.13367412E+00 0.19265533E+03</pdfrwt>
<pdfrwt beam="2">  1       21 0.12429183E-01 0.19265533E+03</pdfrwt>
<totfact> 0.22196953E+04</totfact>
</mgrwt>
</event>
<event>
 4    1  0.4023583E+000  0.2076926E+03  0.7546771E-02  0.1143406E+00
         21   -1    0    0  503  502  0.00000000000E+00  0.00000000000E+00  0.58012902098E+03  0.58012902098E+03  0.00000000000E+00 0.  1.
         21   -1    0    0  501  503 -0.00000000000E+00 -0.00000000000E+00 -0.74357181970E+02  0.74357181970E+02  0.00000000000E+00 0.  1.
          6    1    1    2  501    0 -0.72228285038E+02  0.89388424787E+02  0.25404752861E+03  0.32814076619E+03  0.17300000000E+03 0.  1.
         -6    1    1    2    0  502  0.72228285038E+02 -0.89388424787E+02  0.25172431040E+03  0.32634543676E+03  0.17300000000E+03 0.  1.
<mgrwt>
<rscale>  2 0.20769260E+03</rscale>
<asrwt>0</asrwt>
<pdfrwt beam="1">  1       21 0.89250615E-01 0.20769260E+03</pdfrwt>
<pdfrwt beam="2">  1       21 0.11439567E-01 0.20769260E+03</pdfrwt>
<totfact> 0.67980041E+04</totfact>
</mgrwt>
</event>
<event>
 4    1  0.4023583E+000  0.1971024E+03  0.7546771E-02  0.1152207E+00
         21   -1    0    0  501  502  0.00000000000E+00  0.00000000000E+00  0.81858552526E+03  0.81858552526E+03  0.00000000000E+00 0. -1.
         21   -1    0    0  502  503 -0.00000000000E+00 -0.00000000000E+00 -0.88613964245E+02  0.88613964245E+02  0.00000000000E+00 0.  1.
          6    1    1    2  501    0  0.63580259951E+02 -0.69842011938E+02  0.67410937312E+03  0.70233382591E+03  0.17300000000E+03 0. -1.
         -6    1    1    2    0  503 -0.63580259951E+02  0.69842011938E+02  0.55862187902E+02  0.20486566360E+03  0.17300000000E+03 0.  1.
<mgrwt>
<rscale>  2 0.19710240E+03</rscale>
<asrwt>0</asrwt>
<pdfrwt beam="1">  1       21 0.12593623E+00 0.19710240E+03</pdfrwt>
<pdfrwt beam="2">  1       21 0.13632918E-01 0.19710240E+03</pdfrwt>
<totfact> 0.21781328E+04</totfact>
</mgrwt>
</event>
<event>
 4    1  0.4023583E+000  0.1862518E+03  0.7546771E-02  0.1161886E+00
         21   -1    0    0  503  502  0.00000000000E+00  0.00000000000E+00  0.15128355667E+03  0.15128355667E+03  0.00000000000E+00 0.  1.
         21   -1    0    0  501  503 -0.00000000000E+00 -0.00000000000E+00 -0.26466590037E+03  0.26466590037E+03  0.00000000000E+00 0.  1.
          6    1    1    2  501    0 -0.68677437313E+02 -0.66447373748E+01 -0.13271272641E+03  0.22869720305E+03  0.17300000000E+03 0.  1.
         -6    1    1    2    0  502  0.68677437313E+02  0.66447373748E+01  0.19330382709E+02  0.18725225400E+03  0.17300000000E+03 0.  1.
<mgrwt>
<rscale>  2 0.18625183E+03</rscale>
<asrwt>0</asrwt>
<pdfrwt beam="1">  1       21 0.23274393E-01 0.18625183E+03</pdfrwt>
<pdfrwt beam="2">  1       21 0.40717831E-01 0.18625183E+03</pdfrwt>
<totfact> 0.10108016E+05</totfact>
</mgrwt>
</event>
<event>
 4    1  0.4023583E+000  0.2025404E+03  0.7546771E-02  0.1147613E+00
         21   -1    0    0  501  502  0.00000000000E+00  0.00000000000E+00  0.25861803532E+04  0.25861803532E+04  0.00000000000E+00 0. -1.
         21   -1    0    0  502  503 -0.00000000000E+00 -0.00000000000E+00 -0.25457041792E+02  0.25457041792E+02  0.00000000000E+00 0. -1.
          6    1    1    2  501    0 -0.91899022513E+02 -0.51460334481E+02  0.20820343074E+04  0.20918626756E+04  0.17300000000E+03 0. -1.
         -6    1    1    2    0  503  0.91899022513E+02  0.51460334481E+02  0.47868900401E+03  0.51977471940E+03  0.17300000000E+03 0. -1.
<mgrwt>
<rscale>  2 0.20254036E+03</rscale>
<asrwt>0</asrwt>
<pdfrwt beam="1">  1       21 0.39787369E+00 0.20254036E+03</pdfrwt>
<pdfrwt beam="2">  1       21 0.39164700E-02 0.20254036E+03</pdfrwt>
<totfact> 0.35974798E+03</totfact>
</mgrwt>
</event>
<event>
 4    1  0.4023583E+000  0.2003594E+03  0.7546771E-02  0.1149436E+00
         21   -1    0    0  501  502  0.00000000000E+00  0.00000000000E+00  0.12696977150E+04  0.12696977150E+04  0.00000000000E+00 0.  1.
         21   -1    0    0  502  503 -0.00000000000E+00 -0.00000000000E+00 -0.50234830039E+02  0.50234830039E+02  0.00000000000E+00 0.  1.
          6    1    1    2  501    0 -0.95635776972E+02  0.32690985064E+02  0.20795450814E+03  0.28877150102E+03  0.17300000000E+03 0.  1.
         -6    1    1    2    0  503  0.95635776972E+02 -0.32690985064E+02  0.10115083768E+04  0.10311610440E+04  0.17300000000E+03 0.  1.
<mgrwt>
<rscale>  2 0.20035943E+03</rscale>
<asrwt>0</asrwt>
<pdfrwt beam="1">  1       21 0.19533809E+00 0.20035943E+03</pdfrwt>
<pdfrwt beam="2">  1       21 0.77284363E-02 0.20035943E+03</pdfrwt>
<totfact> 0.18231258E+04</totfact>
</mgrwt>
</event>
<event>
 4    1  0.4023583E+000  0.2318599E+03  0.7546771E-02  0.1125338E+00
         21   -1    0    0  501  502  0.00000000000E+00  0.00000000000E+00  0.17696455040E+03  0.17696455040E+03  0.00000000000E+00 0. -1.
         21   -1    0    0  502  503 -0.00000000000E+00 -0.00000000000E+00 -0.53658099215E+03  0.53658099215E+03  0.00000000000E+00 0.  1.
          6    1    1    2  501    0 -0.15436940265E+03 -0.29175125844E+00  0.55189012523E+02  0.23833762753E+03  0.17300000000E+03 0. -1.
         -6    1    1    2    0  503  0.15436940265E+03  0.29175125844E+00 -0.41480545427E+03  0.47520791501E+03  0.17300000000E+03 0.  1.
<mgrwt>
<rscale>  2 0.23185987E+03</rscale>
<asrwt>0</asrwt>
<pdfrwt beam="1">  1       21 0.27225316E-01 0.23185987E+03</pdfrwt>
<pdfrwt beam="2">  1       21 0.82550921E-01 0.23185987E+03</pdfrwt>
<totfact> 0.16090336E+04</totfact>
</mgrwt>
</event>
<event>
 4    1  0.4023583E+000  0.1797679E+03  0.7546771E-02  0.1168028E+00
         21   -1    0    0  501  502  0.00000000000E+00  0.00000000000E+00  0.70001844840E+03  0.70001844840E+03  0.00000000000E+00 0. -1.
         21   -1    0    0  502  503 -0.00000000000E+00 -0.00000000000E+00 -0.67282627050E+02  0.67282627050E+02  0.00000000000E+00 0. -1.
          6    1    1    2  501    0 -0.17604210540E+02  0.45580419978E+02  0.53130183644E+03  0.56089047444E+03  0.17300000000E+03 0. -1.
         -6    1    1    2    0  503  0.17604210540E+02 -0.45580419978E+02  0.10143398491E+03  0.20641060101E+03  0.17300000000E+03 0. -1.
<mgrwt>
<rscale>  2 0.17976786E+03</rscale>
<asrwt>0</asrwt>
<pdfrwt beam="1">  1       21 0.10769514E+00 0.17976786E+03</pdfrwt>
<pdfrwt beam="2">  1       21 0.10351174E-01 0.17976786E+03</pdfrwt>
<totfact> 0.52814133E+04</totfact>
</mgrwt>
</event>
<event>
 4    1  0.4023583E+000  0.1816129E+03  0.7546771E-02  0.1166251E+00
         21   -1    0    0  501  502  0.00000000000E+00  0.00000000000E+00  0.55687459047E+03  0.55687459047E+03  0.00000000000E+00 0. -1.
         21   -1    0    0  502  503 -0.00000000000E+00 -0.00000000000E+00 -0.31956259395E+03  0.31956259395E+03  0.00000000000E+00 0. -1.
          6    1    1    2  501    0 -0.45785280388E+02  0.30951068661E+02  0.51418445483E+03  0.54531542628E+03  0.17300000000E+03 0. -1.
         -6    1    1    2    0  503  0.45785280388E+02 -0.30951068661E+02 -0.27687245830E+03  0.33112175815E+03  0.17300000000E+03 0. -1.
<mgrwt>
<rscale>  2 0.18161294E+03</rscale>
<asrwt>0</asrwt>
<pdfrwt beam="1">  1       21 0.85673014E-01 0.18161294E+03</pdfrwt>
<pdfrwt beam="2">  1       21 0.49163476E-01 0.18161294E+03</pdfrwt>
<totfact> 0.46859291E+03</totfact>
</mgrwt>
</event>
<event>
 4    1  0.4023583E+000  0.1784108E+03  0.7546771E-02  0.1169350E+00
         21   -1    0    0  503  502  0.00000000000E+00  0.00000000000E+00  0.19211635724E+03  0.19211635724E+03  0.00000000000E+00 0. -1.
         21   -1    0    0  501  503 -0.00000000000E+00 -0.00000000000E+00 -0.30154590891E+03  0.30154590891E+03  0.00000000000E+00 0. -1.
          6    1    1    2  501    0  0.42369751200E+02  0.10306409278E+02 -0.22039613248E+03  0.28355753050E+03  0.17300000000E+03 0. -1.
         -6    1    1    2    0  502 -0.42369751200E+02 -0.10306409278E+02  0.11096658081E+03  0.21010473566E+03  0.17300000000E+03 0. -1.
<mgrwt>
<rscale>  2 0.17841081E+03</rscale>
<asrwt>0</asrwt>
<pdfrwt beam="1">  1       21 0.29556363E-01 0.17841081E+03</pdfrwt>
<pdfrwt beam="2">  1       21 0.46391678E-01 0.17841081E+03</pdfrwt>
<totfact> 0.49155007E+04</totfact>
</mgrwt>
</event>
<event>
 4    1  0.4023583E+000  0.2571769E+03  0.7546771E-02  0.1108851E+00
         21   -1    0    0  501  502  0.00000000000E+00  0.00000000000E+00  0.76301295957E+03  0.76301295957E+03  0.00000000000E+00 0.  1.
         21   -1    0    0  502  503 -0.00000000000E+00 -0.00000000000E+00 -0.11695107439E+03  0.11695107439E+03  0.00000000000E+00 0. -1.
          6    1    1    2  501    0  0.18623849618E+03  0.39066099817E+02  0.54686603439E+03  0.60431978056E+03  0.17300000000E+03 0.  1.
         -6    1    1    2    0  503 -0.18623849618E+03 -0.39066099817E+02  0.99195850791E+02  0.27564425339E+03  0.17300000000E+03 0. -1.
<mgrwt>
<rscale>  2 0.25717686E+03</rscale>
<asrwt>0</asrwt>
<pdfrwt beam="1">  1       21 0.11738661E+00 0.25717686E+03</pdfrwt>
<pdfrwt beam="2">  1       21 0.17992473E-01 0.25717686E+03</pdfrwt>
<totfact> 0.15074025E+04</totfact>
</mgrwt>
</event>
<event>
 4    1  0.4023583E+000  0.2477655E+03  0.7546771E-02  0.1114725E+00
         21   -1    0    0  501  502  0.00000000000E+00  0.00000000000E+00  0.27982738627E+03  0.27982738627E+03  0.00000000000E+00 0. -1.
         21   -1    0    0  502  503 -0.00000000000E+00 -0.00000000000E+00 -0.45416074431E+03  0.45416074431E+03  0.00000000000E+00 0.  1.
          6    1    1    2  501    0  0.70582720945E+02  0.16271695872E+03  0.17670217803E+03  0.30432119359E+03  0.17300000000E+03 0. -1.
         -6    1    1    2    0  503 -0.70582720945E+02 -0.16271695872E+03 -0.35103553608E+03  0.42966693698E+03  0.17300000000E+03 0.  1.
<mgrwt>
<rscale>  2 0.24776547E+03</rscale>
<asrwt>0</asrwt>
<pdfrwt beam="1">  1       21 0.43050367E-01 0.24776547E+03</pdfrwt>
<pdfrwt beam="2">  1       21 0.69870883E-01 0.24776547E+03</pdfrwt>
<totfact> 0.93206498E+03</totfact>
</mgrwt>
</event>
<event>
 4    1  0.4023583E+000  0.2155179E+03  0.7546771E-02  0.1137269E+00
         21   -1    0    0  501  502  0.00000000000E+00  0.00000000000E+00  0.64782077555E+03  0.64782077555E+03  0.00000000000E+00 0. -1.
         21   -1    0    0  502  503 -0.00000000000E+00 -0.00000000000E+00 -0.71732985980E+02  0.71732985980E+02  0.00000000000E+00 0.  1.
          6    1    1    2  501    0 -0.29077676286E+01  0.12849323515E+03  0.29589901798E+03  0.36606583484E+03  0.17300000000E+03 0. -1.
         -6    1    1    2    0  503  0.29077676286E+01 -0.12849323515E+03  0.28018877159E+03  0.35348792669E+03  0.17300000000E+03 0. -1.
<mgrwt>
<rscale>  2 0.21551790E+03</rscale>
<asrwt>0</asrwt>
<pdfrwt beam="1">  1       21 0.99664731E-01 0.21551790E+03</pdfrwt>
<pdfrwt beam="2">  1       21 0.11035844E-01 0.21551790E+03</pdfrwt>
<totfact> 0.55757028E+04</totfact>
</mgrwt>
</event>
<event>
 4    1  0.4023583E+000  0.2472245E+03  0.7546771E-02  0.1115072E+00
         21   -1    0    0  501  502  0.00000000000E+00  0.00000000000E+00  0.24789508575E+03  0.24789508575E+03  0.00000000000E+00 0.  1.
         21   -1    0    0  502  503 -0.00000000000E+00 -0.00000000000E+00 -0.26555168451E+03  0.26555168451E+03  0.00000000000E+00 0.  1.
          6    1    1    2  501    0 -0.47443346137E+02  0.17011782013E+03  0.59834565908E+02  0.25436218095E+03  0.17300000000E+03 0.  1.
         -6    1    1    2    0  503  0.47443346137E+02 -0.17011782013E+03 -0.77491164667E+02  0.25908458931E+03  0.17300000000E+03 0.  1.
<mgrwt>
<rscale>  2 0.24722448E+03</rscale>
<asrwt>0</asrwt>
<pdfrwt beam="1">  1       21 0.38137706E-01 0.24722448E+03</pdfrwt>
<pdfrwt beam="2">  1       21 0.40854105E-01 0.24722448E+03</pdfrwt>
<totfact> 0.37279979E+04</totfact>
</mgrwt>
</event>
<event>
 4    1  0.4023583E+000  0.1753750E+03  0.7546771E-02  0.1172356E+00
         21   -1    0    0  501  502  0.00000000000E+00  0.00000000000E+00  0.15203331124E+03  0.15203331124E+03  0.00000000000E+00 0.  1.
         21   -1    0    0  502  503 -0.00000000000E+00 -0.00000000000E+00 -0.30089401671E+03  0.30089401671E+03  0.00000000000E+00 0.  1.
          6    1    1    2  501    0 -0.26295770308E+02 -0.11658903394E+02  0.55202829815E+02  0.18385796144E+03  0.17300000000E+03 0.  1.
         -6    1    1    2    0  503  0.26295770308E+02  0.11658903394E+02 -0.20406353528E+03  0.26906936651E+03  0.17300000000E+03 0.  1.
<mgrwt>
<rscale>  2 0.17537502E+03</rscale>
<asrwt>0</asrwt>
<pdfrwt beam="1">  1       21 0.23389740E-01 0.17537502E+03</pdfrwt>
<pdfrwt beam="2">  1       21 0.46291387E-01 0.17537502E+03</pdfrwt>
<totfact> 0.77414746E+04</totfact>
</mgrwt>
</event>
<event>
 4    1  0.4023583E+000  0.1847734E+03  0.7546771E-02  0.1163262E+00
         21   -1    0    0  503  502  0.00000000000E+00  0.00000000000E+00  0.30243827241E+02  0.30243827241E+02  0.00000000000E+00 0. -1.
         21   -1    0    0  501  503 -0.00000000000E+00 -0.00000000000E+00 -0.11917606050E+04  0.11917606050E+04  0.00000000000E+00 0. -1.
          6    1    1    2  501    0  0.59750313580E+02 -0.25339610981E+02 -0.72112333762E+03  0.74441927965E+03  0.17300000000E+03 0. -1.
         -6    1    1    2    0  502 -0.59750313580E+02  0.25339610981E+02 -0.44039344015E+03  0.47758515260E+03  0.17300000000E+03 0. -1.
<mgrwt>
<rscale>  2 0.18477336E+03</rscale>
<asrwt>0</asrwt>
<pdfrwt beam="1">  1       21 0.46528958E-02 0.18477336E+03</pdfrwt>
<pdfrwt beam="2">  1       21 0.18334781E+00 0.18477336E+03</pdfrwt>
<totfact> 0.52727318E+04</totfact>
</mgrwt>
</event>
<event>
 4    1  0.4023583E+000  0.2104220E+03  0.7546771E-02  0.1141232E+00
         21   -1    0    0  501  502  0.00000000000E+00  0.00000000000E+00  0.25590618189E+03  0.25590618189E+03  0.00000000000E+00 0.  1.
         21   -1    0    0  502  503 -0.00000000000E+00 -0.00000000000E+00 -0.17325150721E+03  0.17325150721E+03  0.00000000000E+00 0. -1.
          6    1    1    2  501    0  0.26213504702E+02  0.11688144302E+03  0.33518757630E+02  0.21307493204E+03  0.17300000000E+03 0. -1.
         -6    1    1    2    0  503 -0.26213504702E+02 -0.11688144302E+03  0.49135917051E+02  0.21608275705E+03  0.17300000000E+03 0. -1.
<mgrwt>
<rscale>  2 0.21042200E+03</rscale>
<asrwt>0</asrwt>
<pdfrwt beam="1">  1       21 0.39370182E-01 0.21042200E+03</pdfrwt>
<pdfrwt beam="2">  1       21 0.26654078E-01 0.21042200E+03</pdfrwt>
<totfact> 0.82704527E+04</totfact>
</mgrwt>
</event>
<event>
 4    1  0.4023583E+000  0.2128797E+03  0.7546771E-02  0.1139306E+00
         21   -1    0    0  503  502  0.00000000000E+00  0.00000000000E+00  0.19121390310E+04  0.19121390310E+04  0.00000000000E+00 0.  1.
         21   -1    0    0  501  503 -0.00000000000E+00 -0.00000000000E+00 -0.28009970846E+02  0.28009970846E+02  0.00000000000E+00 0.  1.
          6    1    1    2  501    0 -0.10242763356E+03 -0.69981049803E+02  0.56153880794E+03  0.60053609406E+03  0.17300000000E+03 0.  1.
         -6    1    1    2    0  502  0.10242763356E+03  0.69981049803E+02  0.13225902522E+04  0.13396129077E+04  0.17300000000E+03 0.  1.
<mgrwt>
<rscale>  2 0.21287970E+03</rscale>
<asrwt>0</asrwt>
<pdfrwt beam="1">  1       21 0.29417513E+00 0.21287970E+03</pdfrwt>
<pdfrwt beam="2">  1       21 0.43092278E-02 0.21287970E+03</pdfrwt>
<totfact> 0.12496016E+04</totfact>
</mgrwt>
</event>
<event>
 4    1  0.4023583E+000  0.2136919E+03  0.7546771E-02  0.1138675E+00
         21   -1    0    0  503  502  0.00000000000E+00  0.00000000000E+00  0.51853792985E+02  0.51853792985E+02  0.00000000000E+00 0. -1.
         21   -1    0    0  501  503 -0.00000000000E+00 -0.00000000000E+00 -0.90778063406E+03  0.90778063406E+03  0.00000000000E+00 0. -1.
          6    1    1    2  501    0  0.88150869571E+02  0.89244781542E+02 -0.51093786101E+03  0.55382461543E+03  0.17300000000E+03 0. -1.
         -6    1    1    2    0  502 -0.88150869571E+02 -0.89244781542E+02 -0.34498898006E+03  0.40580981161E+03  0.17300000000E+03 0. -1.
<mgrwt>
<rscale>  2 0.21369185E+03</rscale>
<asrwt>0</asrwt>
<pdfrwt beam="1">  1       21 0.79775067E-02 0.21369185E+03</pdfrwt>
<pdfrwt beam="2">  1       21 0.13965856E+00 0.21369185E+03</pdfrwt>
<totfact> 0.42914184E+04</totfact>
</mgrwt>
</event>
<event>
 4    1  0.4023583E+000  0.2663924E+03  0.7546771E-02  0.1103362E+00
         21   -1    0    0  503  502  0.00000000000E+00  0.00000000000E+00  0.27544867439E+03  0.27544867439E+03  0.00000000000E+00 0.  1.
         21   -1    0    0  501  503 -0.00000000000E+00 -0.00000000000E+00 -0.31332313967E+03  0.31332313967E+03  0.00000000000E+00 0. -1.
          6    1    1    2  501    0 -0.17398420051E+03 -0.10375645724E+03 -0.14304718007E+03  0.30236964162E+03  0.17300000000E+03 0. -1.
         -6    1    1    2    0  502  0.17398420051E+03  0.10375645724E+03  0.10517271478E+03  0.28640217244E+03  0.17300000000E+03 0.  1.
<mgrwt>
<rscale>  2 0.26639239E+03</rscale>
<asrwt>0</asrwt>
<pdfrwt beam="1">  1       21 0.42376719E-01 0.26639239E+03</pdfrwt>
<pdfrwt beam="2">  1       21 0.48203560E-01 0.26639239E+03</pdfrwt>
<totfact> 0.21201314E+04</totfact>
</mgrwt>
</event>
<event>
 4    1  0.4023583E+000  0.1782224E+03  0.7546771E-02  0.1169535E+00
         21   -1    0    0  503  502  0.00000000000E+00  0.00000000000E+00  0.64377736206E+02  0.64377736206E+02  0.00000000000E+00 0. -1.
         21   -1    0    0  501  503 -0.00000000000E+00 -0.00000000000E+00 -0.49420307106E+03  0.49420307106E+03  0.00000000000E+00 0. -1.
          6    1    1    2  501    0 -0.38142106803E+02 -0.19478372185E+02 -0.20357304893E+03  0.27056461990E+03  0.17300000000E+03 0. -1.
         -6    1    1    2    0  502  0.38142106803E+02  0.19478372185E+02 -0.22625228592E+03  0.28801618736E+03  0.17300000000E+03 0. -1.
<mgrwt>
<rscale>  2 0.17822241E+03</rscale>
<asrwt>0</asrwt>
<pdfrwt beam="1">  1       21 0.99042673E-02 0.17822241E+03</pdfrwt>
<pdfrwt beam="2">  1       21 0.76031240E-01 0.17822241E+03</pdfrwt>
<totfact> 0.12794410E+05</totfact>
</mgrwt>
</event>
<event>
 4    1  0.4023583E+000  0.1860742E+03  0.7546771E-02  0.1162051E+00
         21   -1    0    0  503  502  0.00000000000E+00  0.00000000000E+00  0.11266223120E+03  0.11266223120E+03  0.00000000000E+00 0. -1.
         21   -1    0    0  501  503 -0.00000000000E+00 -0.00000000000E+00 -0.47499773053E+03  0.47499773053E+03  0.00000000000E+00 0.  1.
          6    1    1    2  501    0  0.13340836453E+02  0.67205783863E+02 -0.35574405286E+03  0.40146908529E+03  0.17300000000E+03 0.  1.
         -6    1    1    2    0  502 -0.13340836453E+02 -0.67205783863E+02 -0.65914464776E+01  0.18619087644E+03  0.17300000000E+03 0. -1.
<mgrwt>
<rscale>  2 0.18607417E+03</rscale>
<asrwt>0</asrwt>
<pdfrwt beam="1">  1       21 0.17332652E-01 0.18607417E+03</pdfrwt>
<pdfrwt beam="2">  1       21 0.73076571E-01 0.18607417E+03</pdfrwt>
<totfact> 0.50872210E+04</totfact>
</mgrwt>
</event>
<event>
 4    1  0.4023583E+000  0.1776983E+03  0.7546771E-02  0.1170049E+00
         21   -1    0    0  503  502  0.00000000000E+00  0.00000000000E+00  0.17027957231E+03  0.17027957231E+03  0.00000000000E+00 0. -1.
         21   -1    0    0  501  503 -0.00000000000E+00 -0.00000000000E+00 -0.30403474786E+03  0.30403474786E+03  0.00000000000E+00 0.  1.
          6    1    1    2  501    0 -0.26892158989E+02  0.30405403850E+02 -0.21499530308E+03  0.27892589902E+03  0.17300000000E+03 0.  1.
         -6    1    1    2    0  502  0.26892158989E+02 -0.30405403850E+02  0.81240127532E+02  0.19538842115E+03  0.17300000000E+03 0. -1.
<mgrwt>
<rscale>  2 0.17769827E+03</rscale>
<asrwt>0</asrwt>
<pdfrwt beam="1">  1       21 0.26196857E-01 0.17769827E+03</pdfrwt>
<pdfrwt beam="2">  1       21 0.46774577E-01 0.17769827E+03</pdfrwt>
<totfact> 0.61011590E+04</totfact>
</mgrwt>
</event>
<event>
 4    1  0.4023583E+000  0.2460034E+03  0.7546771E-02  0.1115857E+00
         21   -1    0    0  503  502  0.00000000000E+00  0.00000000000E+00  0.30271445269E+03  0.30271445269E+03  0.00000000000E+00 0.  1.
         21   -1    0    0  501  503 -0.00000000000E+00 -0.00000000000E+00 -0.28219367920E+03  0.28219367920E+03  0.00000000000E+00 0. -1.
          6    1    1    2  501    0 -0.46228212976E+02  0.16867608764E+03 -0.14765455648E+03  0.28691381679E+03  0.17300000000E+03 0. -1.
         -6    1    1    2    0  502  0.46228212976E+02 -0.16867608764E+03  0.16817532997E+03  0.29799431509E+03  0.17300000000E+03 0.  1.
<mgrwt>
<rscale>  2 0.24600339E+03</rscale>
<asrwt>0</asrwt>
<pdfrwt beam="1">  1       21 0.46571454E-01 0.24600339E+03</pdfrwt>
<pdfrwt beam="2">  1       21 0.43414412E-01 0.24600339E+03</pdfrwt>
<totfact> 0.21879309E+04</totfact>
</mgrwt>
</event>
<event>
 4    1  0.4023583E+000  0.2222601E+03  0.7546771E-02  0.1132209E+00
         21   -1    0    0  501  502  0.00000000000E+00  0.00000000000E+00  0.69270714850E+03  0.69270714850E+03  0.00000000000E+00 0.  1.
         21   -1    0    0  502  503 -0.00000000000E+00 -0.00000000000E+00 -0.19707232510E+03  0.19707232510E+03  0.00000000000E+00 0. -1.
          6    1    1    2  501    0 -0.12882118827E+03 -0.53625291528E+02  0.60320995056E+03  0.64285442745E+03  0.17300000000E+03 0.  1.
         -6    1    1    2    0  503  0.12882118827E+03  0.53625291528E+02 -0.10757512716E+03  0.24692504616E+03  0.17300000000E+03 0. -1.
<mgrwt>
<rscale>  2 0.22226014E+03</rscale>
<asrwt>0</asrwt>
<pdfrwt beam="1">  1       21 0.10657033E+00 0.22226014E+03</pdfrwt>
<pdfrwt beam="2">  1       21 0.30318819E-01 0.22226014E+03</pdfrwt>
<totfact> 0.72036485E+03</totfact>
</mgrwt>
</event>
<event>
 4    1  0.4023583E+000  0.2200067E+03  0.7546771E-02  0.1133878E+00
         21   -1    0    0  503  502  0.00000000000E+00  0.00000000000E+00  0.45093375580E+03  0.45093375580E+03  0.00000000000E+00 0.  1.
         21   -1    0    0  501  503 -0.00000000000E+00 -0.00000000000E+00 -0.10958081879E+03  0.10958081879E+03  0.00000000000E+00 0. -1.
          6    1    1    2  501    0 -0.40861744456E+02 -0.12963124249E+03  0.13059395678E+03  0.25584706904E+03  0.17300000000E+03 0.  1.
         -6    1    1    2    0  502  0.40861744456E+02  0.12963124249E+03  0.21075898023E+03  0.30466750555E+03  0.17300000000E+03 0. -1.
<mgrwt>
<rscale>  2 0.22000668E+03</rscale>
<asrwt>0</asrwt>
<pdfrwt beam="1">  1       21 0.69374423E-01 0.22000668E+03</pdfrwt>
<pdfrwt beam="2">  1       21 0.16858588E-01 0.22000668E+03</pdfrwt>
<totfact> 0.59121931E+04</totfact>
</mgrwt>
</event>
<event>
 4    1  0.4023583E+000  0.1753641E+03  0.7546771E-02  0.1172367E+00
         21   -1    0    0  503  502  0.00000000000E+00  0.00000000000E+00  0.65919968453E+03  0.65919968453E+03  0.00000000000E+00 0. -1.
         21   -1    0    0  501  503 -0.00000000000E+00 -0.00000000000E+00 -0.14366524762E+03  0.14366524762E+03  0.00000000000E+00 0. -1.
          6    1    1    2  501    0 -0.15434043210E+02  0.24194243053E+02 -0.72110933675E+02  0.18961159733E+03  0.17300000000E+03 0. -1.
         -6    1    1    2    0  502  0.15434043210E+02 -0.24194243053E+02  0.58764537058E+03  0.61325333481E+03  0.17300000000E+03 0. -1.
<mgrwt>
<rscale>  2 0.17536411E+03</rscale>
<asrwt>0</asrwt>
<pdfrwt beam="1">  1       21 0.10141533E+00 0.17536411E+03</pdfrwt>
<pdfrwt beam="2">  1       21 0.22102346E-01 0.17536411E+03</pdfrwt>
<totfact> 0.15367083E+04</totfact>
</mgrwt>
</event>
<event>
 4    1  0.4023583E+000  0.2090192E+03  0.7546771E-02  0.1142345E+00
         21   -1    0    0  503  502  0.00000000000E+00  0.00000000000E+00  0.16237007995E+03  0.16237007995E+03  0.00000000000E+00 0.  1.
         21   -1    0    0  501  503 -0.00000000000E+00 -0.00000000000E+00 -0.47096535542E+03  0.47096535542E+03  0.00000000000E+00 0.  1.
          6    1    1    2  501    0  0.41574004743E+02  0.10968878180E+03 -0.36163222253E+03  0.41769234024E+03  0.17300000000E+03 0.  1.
         -6    1    1    2    0  502 -0.41574004743E+02 -0.10968878180E+03  0.53036947068E+02  0.21564309513E+03  0.17300000000E+03 0.  1.
<mgrwt>
<rscale>  2 0.20901920E+03</rscale>
<asrwt>0</asrwt>
<pdfrwt beam="1">  1       21 0.24980012E-01 0.20901920E+03</pdfrwt>
<pdfrwt beam="2">  1       21 0.72456210E-01 0.20901920E+03</pdfrwt>
<totfact> 0.25802326E+04</totfact>
</mgrwt>
</event>
<event>
 4    1  0.4023583E+000  0.1750115E+03  0.7546771E-02  0.1172720E+00
         21   -1    0    0  503  502  0.00000000000E+00  0.00000000000E+00  0.15327732493E+03  0.15327732493E+03  0.00000000000E+00 0.  1.
         21   -1    0    0  501  503 -0.00000000000E+00 -0.00000000000E+00 -0.24995110692E+03  0.24995110692E+03  0.00000000000E+00 0. -1.
          6    1    1    2  501    0 -0.15271865233E+01  0.26413859107E+02  0.41947939683E+02  0.17996848028E+03  0.17300000000E+03 0.  1.
         -6    1    1    2    0  502  0.15271865233E+01 -0.26413859107E+02 -0.13862172167E+03  0.22325995156E+03  0.17300000000E+03 0. -1.
<mgrwt>
<rscale>  2 0.17501150E+03</rscale>
<asrwt>0</asrwt>
<pdfrwt beam="1">  1       21 0.23581127E-01 0.17501150E+03</pdfrwt>
<pdfrwt beam="2">  1       21 0.38454017E-01 0.17501150E+03</pdfrwt>
<totfact> 0.11110977E+05</totfact>
</mgrwt>
</event>
<event>
 4    1  0.4023583E+000  0.1964317E+03  0.7546771E-02  0.1152785E+00
         21   -1    0    0  503  502  0.00000000000E+00  0.00000000000E+00  0.63249423202E+03  0.63249423202E+03  0.00000000000E+00 0. -1.
         21   -1    0    0  501  503 -0.00000000000E+00 -0.00000000000E+00 -0.63849237833E+02  0.63849237833E+02  0.00000000000E+00 0. -1.
          6    1    1    2  501    0 -0.48724343879E+02 -0.79261288032E+02  0.21083961303E+03  0.28816445980E+03  0.17300000000E+03 0. -1.
         -6    1    1    2    0  502  0.48724343879E+02  0.79261288032E+02  0.35780538115E+03  0.40817901006E+03  0.17300000000E+03 0. -1.
<mgrwt>
<rscale>  2 0.19643170E+03</rscale>
<asrwt>0</asrwt>
<pdfrwt beam="1">  1       21 0.97306800E-01 0.19643170E+03</pdfrwt>
<pdfrwt beam="2">  1       21 0.98229601E-02 0.19643170E+03</pdfrwt>
<totfact> 0.73201219E+04</totfact>
</mgrwt>
</event>
<event>
 4    1  0.4023583E+000  0.1876617E+03  0.7546771E-02  0.1160587E+00
         21   -1    0    0  501  502  0.00000000000E+00  0.00000000000E+00  0.85467429125E+03  0.85467429125E+03  0.00000000000E+00 0.  1.
         21   -1    0    0  502  503 -0.00000000000E+00 -0.00000000000E+00 -0.82103666864E+02  0.82103666864E+02  0.00000000000E+00 0. -1.
          6    1    1    2  501    0 -0.69991546659E+02  0.19725753478E+02  0.71686757330E+03  0.74102364308E+03  0.17300000000E+03 0.  1.
         -6    1    1    2    0  503  0.69991546659E+02 -0.19725753478E+02  0.55703051087E+02  0.19575431503E+03  0.17300000000E+03 0. -1.
<mgrwt>
<rscale>  2 0.18766172E+03</rscale>
<asrwt>0</asrwt>
<pdfrwt beam="1">  1       21 0.13148835E+00 0.18766172E+03</pdfrwt>
<pdfrwt beam="2">  1       21 0.12631334E-01 0.18766172E+03</pdfrwt>
<totfact> 0.22553117E+04</totfact>
</mgrwt>
</event>
<event>
 4    1  0.4023583E+000  0.3152784E+03  0.7546771E-02  0.1077843E+00
         21   -1    0    0  503  502  0.00000000000E+00  0.00000000000E+00  0.27242753598E+03  0.27242753598E+03  0.00000000000E+00 0. -1.
         21   -1    0    0  501  503 -0.00000000000E+00 -0.00000000000E+00 -0.76001096126E+03  0.76001096126E+03  0.00000000000E+00 0.  1.
          6    1    1    2  501    0 -0.10959433506E+03  0.23970936869E+03 -0.61601245024E+03  0.69200566368E+03  0.17300000000E+03 0.  1.
         -6    1    1    2    0  502  0.10959433506E+03 -0.23970936869E+03  0.12842902496E+03  0.34043283356E+03  0.17300000000E+03 0. -1.
<mgrwt>
<rscale>  2 0.31527845E+03</rscale>
<asrwt>0</asrwt>
<pdfrwt beam="1">  1       21 0.41911929E-01 0.31527845E+03</pdfrwt>
<pdfrwt beam="2">  1       21 0.11692476E+00 0.31527845E+03</pdfrwt>
<totfact> 0.28351011E+03</totfact>
</mgrwt>
</event>
<event>
 4    1  0.4023583E+000  0.2475525E+03  0.7546771E-02  0.1114861E+00
         21   -1    0    0  501  502  0.00000000000E+00  0.00000000000E+00  0.26879424337E+03  0.26879424337E+03  0.00000000000E+00 0.  1.
         21   -1    0    0  502  503 -0.00000000000E+00 -0.00000000000E+00 -0.29464373608E+03  0.29464373608E+03  0.00000000000E+00 0.  1.
          6    1    1    2  501    0 -0.75432632154E+02 -0.16019718828E+03  0.12106819700E+03  0.27557164123E+03  0.17300000000E+03 0.  1.
         -6    1    1    2    0  503  0.75432632154E+02  0.16019718828E+03 -0.14691768971E+03  0.28786633821E+03  0.17300000000E+03 0.  1.
<mgrwt>
<rscale>  2 0.24755246E+03</rscale>
<asrwt>0</asrwt>
<pdfrwt beam="1">  1       21 0.41352961E-01 0.24755246E+03</pdfrwt>
<pdfrwt beam="2">  1       21 0.45329806E-01 0.24755246E+03</pdfrwt>
<totfact> 0.25546225E+04</totfact>
</mgrwt>
</event>
<event>
 4    1  0.4023583E+000  0.2183944E+03  0.7546771E-02  0.1135086E+00
         21   -1    0    0  501  502  0.00000000000E+00  0.00000000000E+00  0.28946076349E+03  0.28946076349E+03  0.00000000000E+00 0. -1.
         21   -1    0    0  502  503 -0.00000000000E+00 -0.00000000000E+00 -0.19173071028E+03  0.19173071028E+03  0.00000000000E+00 0. -1.
          6    1    1    2  501    0  0.74014431290E+01  0.13308772126E+03  0.13907638003E+03  0.25891767493E+03  0.17300000000E+03 0. -1.
         -6    1    1    2    0  503 -0.74014431290E+01 -0.13308772126E+03 -0.41346326814E+02  0.22227379884E+03  0.17300000000E+03 0. -1.
<mgrwt>
<rscale>  2 0.21839442E+03</rscale>
<asrwt>0</asrwt>
<pdfrwt beam="1">  1       21 0.44532425E-01 0.21839442E+03</pdfrwt>
<pdfrwt beam="2">  1       21 0.29497032E-01 0.21839442E+03</pdfrwt>
<totfact> 0.52676904E+04</totfact>
</mgrwt>
</event>
<event>
 4    1  0.4023583E+000  0.1959424E+03  0.7546771E-02  0.1153208E+00
         21   -1    0    0  503  502  0.00000000000E+00  0.00000000000E+00  0.27548810877E+03  0.27548810877E+03  0.00000000000E+00 0. -1.
         21   -1    0    0  501  503 -0.00000000000E+00 -0.00000000000E+00 -0.32858008615E+03  0.32858008615E+03  0.00000000000E+00 0.  1.
          6    1    1    2  501    0 -0.41727759752E+02  0.81995260578E+02 -0.25574519870E+03  0.32217857680E+03  0.17300000000E+03 0.  1.
         -6    1    1    2    0  502  0.41727759752E+02 -0.81995260578E+02  0.20265322132E+03  0.28188961812E+03  0.17300000000E+03 0. -1.
<mgrwt>
<rscale>  2 0.19594241E+03</rscale>
<asrwt>0</asrwt>
<pdfrwt beam="1">  1       21 0.42382786E-01 0.19594241E+03</pdfrwt>
<pdfrwt beam="2">  1       21 0.50550782E-01 0.19594241E+03</pdfrwt>
<totfact> 0.19909876E+04</totfact>
</mgrwt>
</event>
<event>
 4    1  0.4023583E+000  0.2142442E+03  0.7546771E-02  0.1138248E+00
         21   -1    0    0  501  502  0.00000000000E+00  0.00000000000E+00  0.84447106710E+02  0.84447106710E+02  0.00000000000E+00 0.  1.
         21   -1    0    0  502  503 -0.00000000000E+00 -0.00000000000E+00 -0.73142300304E+03  0.73142300304E+03  0.00000000000E+00 0. -1.
          6    1    1    2  501    0  0.31833222794E+02  0.12230385998E+03 -0.11673694693E+03  0.24398381712E+03  0.17300000000E+03 0. -1.
         -6    1    1    2    0  503 -0.31833222794E+02 -0.12230385998E+03 -0.53023894940E+03  0.57188629263E+03  0.17300000000E+03 0. -1.
<mgrwt>
<rscale>  2 0.21424423E+03</rscale>
<asrwt>0</asrwt>
<pdfrwt beam="1">  1       21 0.12991862E-01 0.21424423E+03</pdfrwt>
<pdfrwt beam="2">  1       21 0.11252662E+00 0.21424423E+03</pdfrwt>
<totfact> 0.31070949E+04</totfact>
</mgrwt>
</event>
<event>
 4    1  0.4023583E+000  0.1770534E+03  0.7546771E-02  0.1170686E+00
         21   -1    0    0  503  502  0.00000000000E+00  0.00000000000E+00  0.83988005017E+03  0.83988005017E+03  0.00000000000E+00 0.  1.
         21   -1    0    0  501  503 -0.00000000000E+00 -0.00000000000E+00 -0.38135504330E+02  0.38135504330E+02  0.00000000000E+00 0.  1.
          6    1    1    2  501    0 -0.61726312297E+01 -0.37159264050E+02  0.33684281516E+03  0.38054039787E+03  0.17300000000E+03 0. -1.
         -6    1    1    2    0  502  0.61726312297E+01  0.37159264050E+02  0.46490173068E+03  0.49747515664E+03  0.17300000000E+03 0. -1.
<mgrwt>
<rscale>  2 0.17705342E+03</rscale>
<asrwt>0</asrwt>
<pdfrwt beam="1">  1       21 0.12921230E+00 0.17705342E+03</pdfrwt>
<pdfrwt beam="2">  1       21 0.58670013E-02 0.17705342E+03</pdfrwt>
<totfact> 0.90577571E+04</totfact>
</mgrwt>
</event>
<event>
 4    1  0.4023583E+000  0.1792614E+03  0.7546771E-02  0.1168520E+00
         21   -1    0    0  501  502  0.00000000000E+00  0.00000000000E+00  0.51496159528E+03  0.51496159528E+03  0.00000000000E+00 0. -1.
         21   -1    0    0  502  503 -0.00000000000E+00 -0.00000000000E+00 -0.17161366430E+03  0.17161366430E+03  0.00000000000E+00 0. -1.
          6    1    1    2  501    0 -0.46943380093E+02  0.14087903132E+01  0.44552640274E+03  0.48023790059E+03  0.17300000000E+03 0. -1.
         -6    1    1    2    0  503  0.46943380093E+02 -0.14087903132E+01 -0.10217847177E+03  0.20633735899E+03  0.17300000000E+03 0. -1.
<mgrwt>
<rscale>  2 0.17926144E+03</rscale>
<asrwt>0</asrwt>
<pdfrwt beam="1">  1       21 0.79224860E-01 0.17926144E+03</pdfrwt>
<pdfrwt beam="2">  1       21 0.26402103E-01 0.17926144E+03</pdfrwt>
<totfact> 0.19340191E+04</totfact>
</mgrwt>
</event>
<event>
 4    1  0.4023583E+000  0.2145706E+03  0.7546771E-02  0.1137997E+00
         21   -1    0    0  501  502  0.00000000000E+00  0.00000000000E+00  0.70885263751E+02  0.70885263751E+02  0.00000000000E+00 0. -1.
         21   -1    0    0  502  503 -0.00000000000E+00 -0.00000000000E+00 -0.15171411312E+04  0.15171411312E+04  0.00000000000E+00 0.  1.
          6    1    1    2  501    0 -0.10552663901E+03 -0.70538502622E+02 -0.12266974453E+03  0.24716071313E+03  0.17300000000E+03 0. -1.
         -6    1    1    2    0  503  0.10552663901E+03  0.70538502622E+02 -0.13235861230E+04  0.13408656819E+04  0.17300000000E+03 0.  1.
<mgrwt>
<rscale>  2 0.21457062E+03</rscale>
<asrwt>0</asrwt>
<pdfrwt beam="1">  1       21 0.10905424E-01 0.21457062E+03</pdfrwt>
<pdfrwt beam="2">  1       21 0.23340635E+00 0.21457062E+03</pdfrwt>
<totfact> 0.56861821E+03</totfact>
</mgrwt>
</event>
<event>
 4    1  0.4023583E+000  0.2585208E+03  0.7546771E-02  0.1108035E+00
         21   -1    0    0  501  502  0.00000000000E+00  0.00000000000E+00  0.13707069635E+03  0.13707069635E+03  0.00000000000E+00 0. -1.
         21   -1    0    0  502  503 -0.00000000000E+00 -0.00000000000E+00 -0.93852268262E+03  0.93852268262E+03  0.00000000000E+00 0.  1.
          6    1    1    2  501    0 -0.46520119888E+02  0.18638643949E+03 -0.27943016560E+02  0.26002661124E+03  0.17300000000E+03 0. -1.
         -6    1    1    2    0  503  0.46520119888E+02 -0.18638643949E+03 -0.77350896971E+03  0.81556676772E+03  0.17300000000E+03 0.  1.
<mgrwt>
<rscale>  2 0.25852084E+03</rscale>
<asrwt>0</asrwt>
<pdfrwt beam="1">  1       21 0.21087799E-01 0.25852084E+03</pdfrwt>
<pdfrwt beam="2">  1       21 0.14438811E+00 0.25852084E+03</pdfrwt>
<totfact> 0.65897991E+03</totfact>
</mgrwt>
</event>
<event>
 4    1  0.4023583E+000  0.1976839E+03  0.7546771E-02  0.1151708E+00
         21   -1    0    0  501  502  0.00000000000E+00  0.00000000000E+00  0.97099201794E+03  0.97099201794E+03  0.00000000000E+00 0. -1.
         21   -1    0    0  502  503 -0.00000000000E+00 -0.00000000000E+00 -0.43446904063E+02  0.43446904063E+02  0.00000000000E+00 0. -1.
          6    1    1    2  501    0 -0.33604896553E+02  0.89558013578E+02  0.60143837540E+03  0.63309323664E+03  0.17300000000E+03 0. -1.
         -6    1    1    2    0  503  0.33604896553E+02 -0.89558013578E+02  0.32610673847E+03  0.38134568536E+03  0.17300000000E+03 0. -1.
<mgrwt>
<rscale>  2 0.19768391E+03</rscale>
<asrwt>0</asrwt>
<pdfrwt beam="1">  1       21 0.14938337E+00 0.19768391E+03</pdfrwt>
<pdfrwt beam="2">  1       21 0.66841398E-02 0.19768391E+03</pdfrwt>
<totfact> 0.49353700E+04</totfact>
</mgrwt>
</event>
<event>
 4    1  0.4023583E+000  0.1788444E+03  0.7546771E-02  0.1168926E+00
         21   -1    0    0  501  502  0.00000000000E+00  0.00000000000E+00  0.35922712121E+03  0.35922712121E+03  0.00000000000E+00 0. -1.
         21   -1    0    0  502  503 -0.00000000000E+00 -0.00000000000E+00 -0.99478956264E+02  0.99478956264E+02  0.00000000000E+00 0. -1.
          6    1    1    2  501    0 -0.45294179084E+02  0.21791311024E+01  0.20417311429E+03  0.27142581283E+03  0.17300000000E+03 0.  1.
         -6    1    1    2    0  503  0.45294179084E+02 -0.21791311024E+01  0.55575050660E+02  0.18728026465E+03  0.17300000000E+03 0.  1.
<mgrwt>
<rscale>  2 0.17884438E+03</rscale>
<asrwt>0</asrwt>
<pdfrwt beam="1">  1       21 0.55265710E-01 0.17884438E+03</pdfrwt>
<pdfrwt beam="2">  1       21 0.15304455E-01 0.17884438E+03</pdfrwt>
<totfact> 0.11734626E+05</totfact>
</mgrwt>
</event>
<event>
 4    1  0.4023583E+000  0.1945130E+03  0.7546771E-02  0.1154453E+00
         21   -1    0    0  501  502  0.00000000000E+00  0.00000000000E+00  0.42995467967E+03  0.42995467967E+03  0.00000000000E+00 0.  1.
         21   -1    0    0  502  503 -0.00000000000E+00 -0.00000000000E+00 -0.16809753555E+03  0.16809753555E+03  0.00000000000E+00 0.  1.
          6    1    1    2  501    0  0.19392806171E+02  0.86776765837E+02  0.33734420006E+03  0.38940518401E+03  0.17300000000E+03 0.  1.
         -6    1    1    2    0  503 -0.19392806171E+02 -0.86776765837E+02 -0.75487055939E+02  0.20864703121E+03  0.17300000000E+03 0.  1.
<mgrwt>
<rscale>  2 0.19451295E+03</rscale>
<asrwt>0</asrwt>
<pdfrwt beam="1">  1       21 0.66146873E-01 0.19451295E+03</pdfrwt>
<pdfrwt beam="2">  1       21 0.25861159E-01 0.19451295E+03</pdfrwt>
<totfact> 0.29755114E+04</totfact>
</mgrwt>
</event>
<event>
 4    1  0.4023583E+000  0.1736793E+03  0.7546771E-02  0.1174064E+00
         21   -1    0    0  501  502  0.00000000000E+00  0.00000000000E+00  0.49504858475E+03  0.49504858475E+03  0.00000000000E+00 0.  1.
         21   -1    0    0  502  503 -0.00000000000E+00 -0.00000000000E+00 -0.75201616715E+02  0.75201616715E+02  0.00000000000E+00 0.  1.
          6    1    1    2  501    0  0.14721979929E+02  0.43314345994E+01  0.85723385230E+02  0.19368272198E+03  0.17300000000E+03 0.  1.
         -6    1    1    2    0  503 -0.14721979929E+02 -0.43314345994E+01  0.33412358280E+03  0.37656747948E+03  0.17300000000E+03 0.  1.
<mgrwt>
<rscale>  2 0.17367930E+03</rscale>
<asrwt>0</asrwt>
<pdfrwt beam="1">  1       21 0.76161319E-01 0.17367930E+03</pdfrwt>
<pdfrwt beam="2">  1       21 0.11569480E-01 0.17367930E+03</pdfrwt>
<totfact> 0.96964408E+04</totfact>
</mgrwt>
</event>
<event>
 4    1  0.4023583E+000  0.3221909E+03  0.7546771E-02  0.1074645E+00
         21   -1    0    0  503  502  0.00000000000E+00  0.00000000000E+00  0.40103315274E+04  0.40103315274E+04  0.00000000000E+00 0.  1.
         21   -1    0    0  501  503 -0.00000000000E+00 -0.00000000000E+00 -0.26127515107E+02  0.26127515107E+02  0.00000000000E+00 0. -1.
          6    1    1    2  501    0 -0.79811700551E+02 -0.25982309703E+03  0.17976114335E+04  0.18262567769E+04  0.17300000000E+03 0. -1.
         -6    1    1    2    0  502  0.79811700551E+02  0.25982309703E+03  0.21865925787E+04  0.22102022656E+04  0.17300000000E+03 0.  1.
<mgrwt>
<rscale>  2 0.32219086E+03</rscale>
<asrwt>0</asrwt>
<pdfrwt beam="1">  1       21 0.61697359E+00 0.32219086E+03</pdfrwt>
<pdfrwt beam="2">  1       21 0.40196209E-02 0.32219086E+03</pdfrwt>
<totfact> 0.82330523E+01</totfact>
</mgrwt>
</event>
<event>
 4    1  0.4023583E+000  0.1856376E+03  0.7546771E-02  0.1162456E+00
         21   -1    0    0  503  502  0.00000000000E+00  0.00000000000E+00  0.20715251722E+03  0.20715251722E+03  0.00000000000E+00 0. -1.
         21   -1    0    0  501  503 -0.00000000000E+00 -0.00000000000E+00 -0.25599001772E+03  0.25599001772E+03  0.00000000000E+00 0. -1.
          6    1    1    2  501    0  0.50602340631E+02 -0.44404208677E+02 -0.16144585225E+03  0.24602051507E+03  0.17300000000E+03 0. -1.
         -6    1    1    2    0  502 -0.50602340631E+02  0.44404208677E+02  0.11260835175E+03  0.21712201986E+03  0.17300000000E+03 0. -1.
<mgrwt>
<rscale>  2 0.18563763E+03</rscale>
<asrwt>0</asrwt>
<pdfrwt beam="1">  1       21 0.31869618E-01 0.18563763E+03</pdfrwt>
<pdfrwt beam="2">  1       21 0.39383079E-01 0.18563763E+03</pdfrwt>
<totfact> 0.59031179E+04</totfact>
</mgrwt>
</event>
<event>
 4    1  0.4023583E+000  0.1745048E+03  0.7546771E-02  0.1173230E+00
         21   -1    0    0  501  502  0.00000000000E+00  0.00000000000E+00  0.15510393699E+03  0.15510393699E+03  0.00000000000E+00 0.  1.
         21   -1    0    0  502  503 -0.00000000000E+00 -0.00000000000E+00 -0.23125814682E+03  0.23125814682E+03  0.00000000000E+00 0.  1.
          6    1    1    2  501    0 -0.19100408178E+02 -0.12573470780E+02  0.36996842646E+02  0.17838353098E+03  0.17300000000E+03 0.  1.
         -6    1    1    2    0  503  0.19100408178E+02  0.12573470780E+02 -0.11315105248E+03  0.20797855283E+03  0.17300000000E+03 0.  1.
<mgrwt>
<rscale>  2 0.17450478E+03</rscale>
<asrwt>0</asrwt>
<pdfrwt beam="1">  1       21 0.23862144E-01 0.17450478E+03</pdfrwt>
<pdfrwt beam="2">  1       21 0.35578176E-01 0.17450478E+03</pdfrwt>
<totfact> 0.12687936E+05</totfact>
</mgrwt>
</event>
<event>
 4    1  0.4023583E+000  0.3576530E+03  0.7546771E-02  0.1059517E+00
         21   -1    0    0  501  502  0.00000000000E+00  0.00000000000E+00  0.44555495358E+03  0.44555495358E+03  0.00000000000E+00 0.  1.
         21   -1    0    0  502  503 -0.00000000000E+00 -0.00000000000E+00 -0.29133250792E+03  0.29133250792E+03  0.00000000000E+00 0. -1.
          6    1    1    2  501    0  0.11158370436E+03 -0.29246499499E+03  0.12155754114E+03  0.37774585661E+03  0.17300000000E+03 0. -1.
         -6    1    1    2    0  503 -0.11158370436E+03  0.29246499499E+03  0.32664904522E+02  0.35914160489E+03  0.17300000000E+03 0.  1.
<mgrwt>
<rscale>  2 0.35765304E+03</rscale>
<asrwt>0</asrwt>
<pdfrwt beam="1">  1       21 0.68546916E-01 0.35765304E+03</pdfrwt>
<pdfrwt beam="2">  1       21 0.44820386E-01 0.35765304E+03</pdfrwt>
<totfact> 0.85043506E+03</totfact>
</mgrwt>
</event>
<event>
 4    1  0.4023583E+000  0.1761973E+03  0.7546771E-02  0.1171535E+00
         21   -1    0    0  503  502  0.00000000000E+00  0.00000000000E+00  0.23472954033E+02  0.23472954033E+02  0.00000000000E+00 0. -1.
         21   -1    0    0  501  503 -0.00000000000E+00 -0.00000000000E+00 -0.13610493791E+04  0.13610493791E+04  0.00000000000E+00 0. -1.
          6    1    1    2  501    0 -0.19764358181E+01 -0.33355396219E+02 -0.78513094361E+03  0.80465898825E+03  0.17300000000E+03 0. -1.
         -6    1    1    2    0  502  0.19764358181E+01  0.33355396219E+02 -0.55244548143E+03  0.57986334485E+03  0.17300000000E+03 0. -1.
<mgrwt>
<rscale>  2 0.17619730E+03</rscale>
<asrwt>0</asrwt>
<pdfrwt beam="1">  1       21 0.36112235E-02 0.17619730E+03</pdfrwt>
<pdfrwt beam="2">  1       21 0.20939222E+00 0.17619730E+03</pdfrwt>
<totfact> 0.55034395E+04</totfact>
</mgrwt>
</event>
<event>
 4    1  0.4023583E+000  0.2128438E+03  0.7546771E-02  0.1139334E+00
         21   -1    0    0  503  502  0.00000000000E+00  0.00000000000E+00  0.26529946815E+02  0.26529946815E+02  0.00000000000E+00 0.  1.
         21   -1    0    0  501  503 -0.00000000000E+00 -0.00000000000E+00 -0.17120758892E+04  0.17120758892E+04  0.00000000000E+00 0. -1.
          6    1    1    2  501    0 -0.25000506714E+02 -0.12144321583E+03 -0.88723137054E+03  0.91240450727E+03  0.17300000000E+03 0.  1.
         -6    1    1    2    0  502  0.25000506714E+02  0.12144321583E+03 -0.79831457188E+03  0.82620132879E+03  0.17300000000E+03 0.  1.
<mgrwt>
<rscale>  2 0.21284379E+03</rscale>
<asrwt>0</asrwt>
<pdfrwt beam="1">  1       21 0.40815298E-02 0.21284379E+03</pdfrwt>
<pdfrwt beam="2">  1       21 0.26339632E+00 0.21284379E+03</pdfrwt>
<totfact> 0.20665153E+04</totfact>
</mgrwt>
</event>
<event>
 4    1  0.4023583E+000  0.1811297E+03  0.7546771E-02  0.1166714E+00
         21   -1    0    0  501  502  0.00000000000E+00  0.00000000000E+00  0.41436003347E+02  0.41436003347E+02  0.00000000000E+00 0.  1.
         21   -1    0    0  502  503 -0.00000000000E+00 -0.00000000000E+00 -0.80858276870E+03  0.80858276870E+03  0.00000000000E+00 0.  1.
          6    1    1    2  501    0 -0.52854596420E+02 -0.92396421821E+01 -0.44485004693E+03  0.48031192324E+03  0.17300000000E+03 0. -1.
         -6    1    1    2    0  503  0.52854596420E+02  0.92396421821E+01 -0.32229671843E+03  0.36970684881E+03  0.17300000000E+03 0. -1.
<mgrwt>
<rscale>  2 0.18112973E+03</rscale>
<asrwt>0</asrwt>
<pdfrwt beam="1">  1       21 0.63747699E-02 0.18112973E+03</pdfrwt>
<pdfrwt beam="2">  1       21 0.12439735E+00 0.18112973E+03</pdfrwt>
<totfact> 0.86260074E+04</totfact>
</mgrwt>
</event>
<event>
 4    1  0.4023583E+000  0.2278178E+03  0.7546771E-02  0.1128185E+00
         21   -1    0    0  501  502  0.00000000000E+00  0.00000000000E+00  0.20968716016E+04  0.20968716016E+04  0.00000000000E+00 0.  1.
         21   -1    0    0  502  503 -0.00000000000E+00 -0.00000000000E+00 -0.35247135587E+02  0.35247135587E+02  0.00000000000E+00 0.  1.
          6    1    1    2  501    0 -0.64388998564E+02  0.13351399499E+03  0.16125426214E+04  0.16285559972E+04  0.17300000000E+03 0.  1.
         -6    1    1    2    0  503  0.64388998564E+02 -0.13351399499E+03  0.44908184457E+03  0.50356274000E+03  0.17300000000E+03 0.  1.
<mgrwt>
<rscale>  2 0.22781776E+03</rscale>
<asrwt>0</asrwt>
<pdfrwt beam="1">  1       21 0.32259553E+00 0.22781776E+03</pdfrwt>
<pdfrwt beam="2">  1       21 0.54226379E-02 0.22781776E+03</pdfrwt>
<totfact> 0.56973040E+03</totfact>
</mgrwt>
</event>
<event>
 4    1  0.4023583E+000  0.1916147E+03  0.7546771E-02  0.1157013E+00
         21   -1    0    0  501  502  0.00000000000E+00  0.00000000000E+00  0.19635250171E+03  0.19635250171E+03  0.00000000000E+00 0. -1.
         21   -1    0    0  502  503 -0.00000000000E+00 -0.00000000000E+00 -0.20569972163E+03  0.20569972163E+03  0.00000000000E+00 0. -1.
          6    1    1    2  501    0 -0.56174962993E+01 -0.82192724819E+02  0.55951807650E+02  0.19961664524E+03  0.17300000000E+03 0. -1.
         -6    1    1    2    0  503  0.56174962993E+01  0.82192724819E+02 -0.65299027567E+02  0.20243557810E+03  0.17300000000E+03 0. -1.
<mgrwt>
<rscale>  2 0.19161472E+03</rscale>
<asrwt>0</asrwt>
<pdfrwt beam="1">  1       21 0.30208077E-01 0.19161472E+03</pdfrwt>
<pdfrwt beam="2">  1       21 0.31646111E-01 0.19161472E+03</pdfrwt>
<totfact> 0.10096881E+05</totfact>
</mgrwt>
</event>
<event>
 4    1  0.4023583E+000  0.1884773E+03  0.7546771E-02  0.1159842E+00
         21   -1    0    0  503  502  0.00000000000E+00  0.00000000000E+00  0.30046193900E+03  0.30046193900E+03  0.00000000000E+00 0.  1.
         21   -1    0    0  501  503 -0.00000000000E+00 -0.00000000000E+00 -0.12908896899E+03  0.12908896899E+03  0.00000000000E+00 0.  1.
          6    1    1    2  501    0  0.11540796249E+01  0.74788754840E+02  0.23394896736E+02  0.18992369769E+03  0.17300000000E+03 0.  1.
         -6    1    1    2    0  502 -0.11540796249E+01 -0.74788754840E+02  0.14797807327E+03  0.23962721030E+03  0.17300000000E+03 0.  1.
<mgrwt>
<rscale>  2 0.18847729E+03</rscale>
<asrwt>0</asrwt>
<pdfrwt beam="1">  1       21 0.46224913E-01 0.18847729E+03</pdfrwt>
<pdfrwt beam="2">  1       21 0.19859841E-01 0.18847729E+03</pdfrwt>
<totfact> 0.10503401E+05</totfact>
</mgrwt>
</event>
<event>
 4    1  0.4023583E+000  0.2038311E+03  0.7546771E-02  0.1146546E+00
         21   -1    0    0  503  502  0.00000000000E+00  0.00000000000E+00  0.85459303039E+03  0.85459303039E+03  0.00000000000E+00 0.  1.
         21   -1    0    0  501  503 -0.00000000000E+00 -0.00000000000E+00 -0.66881116602E+02  0.66881116602E+02  0.00000000000E+00 0.  1.
          6    1    1    2  501    0  0.23145206733E+02  0.10527312561E+03  0.15308209868E+03  0.25491422186E+03  0.17300000000E+03 0.  1.
         -6    1    1    2    0  502 -0.23145206733E+02 -0.10527312561E+03  0.63462981510E+03  0.66655992513E+03  0.17300000000E+03 0.  1.
<mgrwt>
<rscale>  2 0.20383113E+03</rscale>
<asrwt>0</asrwt>
<pdfrwt beam="1">  1       21 0.13147584E+00 0.20383113E+03</pdfrwt>
<pdfrwt beam="2">  1       21 0.10289403E-01 0.20383113E+03</pdfrwt>
<totfact> 0.32197304E+04</totfact>
</mgrwt>
</event>
<event>
 4    1  0.4023583E+000  0.1965210E+03  0.7546771E-02  0.1152708E+00
         21   -1    0    0  503  502  0.00000000000E+00  0.00000000000E+00  0.57931050461E+03  0.57931050461E+03  0.00000000000E+00 0. -1.
         21   -1    0    0  501  503 -0.00000000000E+00 -0.00000000000E+00 -0.78286199537E+02  0.78286199537E+02  0.00000000000E+00 0.  1.
          6    1    1    2  501    0  0.42629987461E+02  0.82910752916E+02  0.37718616868E+03  0.42531155007E+03  0.17300000000E+03 0. -1.
         -6    1    1    2    0  502 -0.42629987461E+02 -0.82910752916E+02  0.12383813640E+03  0.23228515408E+03  0.17300000000E+03 0.  1.
<mgrwt>
<rscale>  2 0.19652101E+03</rscale>
<asrwt>0</asrwt>
<pdfrwt beam="1">  1       21 0.89124690E-01 0.19652101E+03</pdfrwt>
<pdfrwt beam="2">  1       21 0.12044031E-01 0.19652101E+03</pdfrwt>
<totfact> 0.62532778E+04</totfact>
</mgrwt>
</event>
<event>
 4    1  0.4023583E+000  0.2011270E+03  0.7546771E-02  0.1148792E+00
         21   -1    0    0  503  502  0.00000000000E+00  0.00000000000E+00  0.78494318474E+03  0.78494318474E+03  0.00000000000E+00 0.  1.
         21   -1    0    0  501  503 -0.00000000000E+00 -0.00000000000E+00 -0.51911264130E+02  0.51911264130E+02  0.00000000000E+00 0.  1.
          6    1    1    2  501    0  0.63816721875E+02  0.80315073397E+02  0.40213708395E+03  0.44962909080E+03  0.17300000000E+03 0.  1.
         -6    1    1    2    0  502 -0.63816721875E+02 -0.80315073397E+02  0.33089483667E+03  0.38722535808E+03  0.17300000000E+03 0.  1.
<mgrwt>
<rscale>  2 0.20112704E+03</rscale>
<asrwt>0</asrwt>
<pdfrwt beam="1">  1       21 0.12076048E+00 0.20112704E+03</pdfrwt>
<pdfrwt beam="2">  1       21 0.79863489E-02 0.20112704E+03</pdfrwt>
<totfact> 0.62304236E+04</totfact>
</mgrwt>
</event>
<event>
 4    1  0.4023583E+000  0.1855365E+03  0.7546771E-02  0.1162550E+00
         21   -1    0    0  501  502  0.00000000000E+00  0.00000000000E+00  0.16771161011E+03  0.16771161011E+03  0.00000000000E+00 0.  1.
         21   -1    0    0  502  503 -0.00000000000E+00 -0.00000000000E+00 -0.25694419374E+03  0.25694419374E+03  0.00000000000E+00 0.  1.
          6    1    1    2  501    0 -0.30111929847E+02 -0.59900368756E+02  0.50615978403E+02  0.19231682133E+03  0.17300000000E+03 0.  1.
         -6    1    1    2    0  503  0.30111929847E+02  0.59900368756E+02 -0.13984856203E+03  0.23233898252E+03  0.17300000000E+03 0.  1.
<mgrwt>
<rscale>  2 0.18553647E+03</rscale>
<asrwt>0</asrwt>
<pdfrwt beam="1">  1       21 0.25801786E-01 0.18553647E+03</pdfrwt>
<pdfrwt beam="2">  1       21 0.39529876E-01 0.18553647E+03</pdfrwt>
<totfact> 0.88212255E+04</totfact>
</mgrwt>
</event>
<event>
 4    1  0.4023583E+000  0.1785550E+03  0.7546771E-02  0.1169209E+00
         21   -1    0    0  501  502  0.00000000000E+00  0.00000000000E+00  0.58094466212E+03  0.58094466212E+03  0.00000000000E+00 0.  1.
         21   -1    0    0  502  503 -0.00000000000E+00 -0.00000000000E+00 -0.18399479135E+03  0.18399479135E+03  0.00000000000E+00 0.  1.
          6    1    1    2  501    0 -0.13379449847E+02 -0.42117494316E+02  0.51886815257E+03  0.54873131198E+03  0.17300000000E+03 0.  1.
         -6    1    1    2    0  503  0.13379449847E+02  0.42117494316E+02 -0.12191828179E+03  0.21620814148E+03  0.17300000000E+03 0.  1.
<mgrwt>
<rscale>  2 0.17855501E+03</rscale>
<asrwt>0</asrwt>
<pdfrwt beam="1">  1       21 0.89376101E-01 0.17855501E+03</pdfrwt>
<pdfrwt beam="2">  1       21 0.28306891E-01 0.17855501E+03</pdfrwt>
<totfact> 0.12857241E+04</totfact>
</mgrwt>
</event>
<event>
 4    1  0.4023583E+000  0.1872443E+03  0.7546771E-02  0.1160971E+00
         21   -1    0    0  503  502  0.00000000000E+00  0.00000000000E+00  0.43488009305E+03  0.43488009305E+03  0.00000000000E+00 0.  1.
         21   -1    0    0  501  503 -0.00000000000E+00 -0.00000000000E+00 -0.92568680094E+02  0.92568680094E+02  0.00000000000E+00 0.  1.
          6    1    1    2  501    0  0.69927765276E+02  0.15540870002E+02  0.76409369291E+02  0.20223452404E+03  0.17300000000E+03 0.  1.
         -6    1    1    2    0  502 -0.69927765276E+02 -0.15540870002E+02  0.26590204367E+03  0.32521424911E+03  0.17300000000E+03 0.  1.
<mgrwt>
<rscale>  2 0.18724425E+03</rscale>
<asrwt>0</asrwt>
<pdfrwt beam="1">  1       21 0.66904628E-01 0.18724425E+03</pdfrwt>
<pdfrwt beam="2">  1       21 0.14241336E-01 0.18724425E+03</pdfrwt>
<totfact> 0.88407652E+04</totfact>
</mgrwt>
</event>
<event>
 4    1  0.4023583E+000  0.1921635E+03  0.7546771E-02  0.1156524E+00
         21   -1    0    0  501  502  0.00000000000E+00  0.00000000000E+00  0.69228662310E+03  0.69228662310E+03  0.00000000000E+00 0. -1.
         21   -1    0    0  502  503 -0.00000000000E+00 -0.00000000000E+00 -0.10892544475E+03  0.10892544475E+03  0.00000000000E+00 0.  1.
          6    1    1    2  501    0 -0.15653969318E+02  0.82175178510E+02  0.57785580133E+03  0.60896973147E+03  0.17300000000E+03 0. -1.
         -6    1    1    2    0  503  0.15653969318E+02 -0.82175178510E+02  0.55053770127E+01  0.19224233637E+03  0.17300000000E+03 0.  1.
<mgrwt>
<rscale>  2 0.19216349E+03</rscale>
<asrwt>0</asrwt>
<pdfrwt beam="1">  1       21 0.10650563E+00 0.19216349E+03</pdfrwt>
<pdfrwt beam="2">  1       21 0.16757761E-01 0.19216349E+03</pdfrwt>
<totfact> 0.22622713E+04</totfact>
</mgrwt>
</event>
<event>
 4    1  0.4023583E+000  0.2123263E+03  0.7546771E-02  0.1139737E+00
         21   -1    0    0  503  502  0.00000000000E+00  0.00000000000E+00  0.27757036194E+02  0.27757036194E+02  0.00000000000E+00 0.  1.
         21   -1    0    0  501  503 -0.00000000000E+00 -0.00000000000E+00 -0.16501370306E+04  0.16501370306E+04  0.00000000000E+00 0.  1.
          6    1    1    2  501    0 -0.74733738410E+02 -0.97817755787E+02 -0.91640930114E+03  0.94068509727E+03  0.17300000000E+03 0.  1.
         -6    1    1    2    0  502  0.74733738410E+02  0.97817755787E+02 -0.70597069330E+03  0.73720896956E+03  0.17300000000E+03 0.  1.
<mgrwt>
<rscale>  2 0.21232627E+03</rscale>
<asrwt>0</asrwt>
<pdfrwt beam="1">  1       21 0.42703125E-02 0.21232627E+03</pdfrwt>
<pdfrwt beam="2">  1       21 0.25386728E+00 0.21232627E+03</pdfrwt>
<totfact> 0.21790481E+04</totfact>
</mgrwt>
</event>
<event>
 4    1  0.4023583E+000  0.2712352E+03  0.7546771E-02  0.1100575E+00
         21   -1    0    0  501  502  0.00000000000E+00  0.00000000000E+00  0.51184243097E+03  0.51184243097E+03  0.00000000000E+00 0.  1.
         21   -1    0    0  502  503 -0.00000000000E+00 -0.00000000000E+00 -0.14773357450E+03  0.14773357450E+03  0.00000000000E+00 0. -1.
          6    1    1    2  501    0 -0.14540870041E+03  0.14998608101E+03  0.23632577329E+03  0.35974766959E+03  0.17300000000E+03 0.  1.
         -6    1    1    2    0  503  0.14540870041E+03 -0.14998608101E+03  0.12778308318E+03  0.29982833588E+03  0.17300000000E+03 0. -1.
<mgrwt>
<rscale>  2 0.27123516E+03</rscale>
<asrwt>0</asrwt>
<pdfrwt beam="1">  1       21 0.78744989E-01 0.27123516E+03</pdfrwt>
<pdfrwt beam="2">  1       21 0.22728242E-01 0.27123516E+03</pdfrwt>
<totfact> 0.24863762E+04</totfact>
</mgrwt>
</event>
<event>
 4    1  0.4023583E+000  0.2372801E+03  0.7546771E-02  0.1121618E+00
         21   -1    0    0  503  502  0.00000000000E+00  0.00000000000E+00  0.60103415147E+03  0.60103415147E+03  0.00000000000E+00 0.  1.
         21   -1    0    0  501  503 -0.00000000000E+00 -0.00000000000E+00 -0.16047894212E+03  0.16047894212E+03  0.00000000000E+00 0.  1.
          6    1    1    2  501    0 -0.34739245379E+02  0.15863811955E+03 -0.25385214235E+02  0.23863419128E+03  0.17300000000E+03 0.  1.
         -6    1    1    2    0  502  0.34739245379E+02 -0.15863811955E+03  0.46594042359E+03  0.52287890231E+03  0.17300000000E+03 0.  1.
<mgrwt>
<rscale>  2 0.23728015E+03</rscale>
<asrwt>0</asrwt>
<pdfrwt beam="1">  1       21 0.92466792E-01 0.23728015E+03</pdfrwt>
<pdfrwt beam="2">  1       21 0.24689068E-01 0.23728015E+03</pdfrwt>
<totfact> 0.14896295E+04</totfact>
</mgrwt>
</event>
<event>
 4    1  0.4023583E+000  0.1772240E+03  0.7546771E-02  0.1170517E+00
         21   -1    0    0  503  502  0.00000000000E+00  0.00000000000E+00  0.58852441612E+03  0.58852441612E+03  0.00000000000E+00 0.  1.
         21   -1    0    0  501  503 -0.00000000000E+00 -0.00000000000E+00 -0.10735361511E+03  0.10735361511E+03  0.00000000000E+00 0.  1.
          6    1    1    2  501    0 -0.35433640029E+02  0.14960412167E+02 -0.61513938656E+01  0.17733075431E+03  0.17300000000E+03 0.  1.
         -6    1    1    2    0  502  0.35433640029E+02 -0.14960412167E+02  0.48732219488E+03  0.51854727692E+03  0.17300000000E+03 0.  1.
<mgrwt>
<rscale>  2 0.17722403E+03</rscale>
<asrwt>0</asrwt>
<pdfrwt beam="1">  1       21 0.90542216E-01 0.17722403E+03</pdfrwt>
<pdfrwt beam="2">  1       21 0.16515941E-01 0.17722403E+03</pdfrwt>
<totfact> 0.34371428E+04</totfact>
</mgrwt>
</event>
<event>
 4    1  0.4023583E+000  0.1884326E+03  0.7546771E-02  0.1159883E+00
         21   -1    0    0  503  502  0.00000000000E+00  0.00000000000E+00  0.15573727103E+03  0.15573727103E+03  0.00000000000E+00 0.  1.
         21   -1    0    0  501  503 -0.00000000000E+00 -0.00000000000E+00 -0.29438269523E+03  0.29438269523E+03  0.00000000000E+00 0. -1.
          6    1    1    2  501    0  0.70480683015E+02 -0.24704237436E+02 -0.17620267514E+03  0.25798102402E+03  0.17300000000E+03 0. -1.
         -6    1    1    2    0  502 -0.70480683015E+02  0.24704237436E+02  0.37557250942E+02  0.19213894224E+03  0.17300000000E+03 0.  1.
<mgrwt>
<rscale>  2 0.18843255E+03</rscale>
<asrwt>0</asrwt>
<pdfrwt beam="1">  1       21 0.23959580E-01 0.18843255E+03</pdfrwt>
<pdfrwt beam="2">  1       21 0.45289645E-01 0.18843255E+03</pdfrwt>
<totfact> 0.76943966E+04</totfact>
</mgrwt>
</event>
<event>
 4    1  0.4023583E+000  0.1825741E+03  0.7546771E-02  0.1165335E+00
         21   -1    0    0  501  502  0.00000000000E+00  0.00000000000E+00  0.87793904458E+03  0.87793904458E+03  0.00000000000E+00 0.  1.
         21   -1    0    0  502  503 -0.00000000000E+00 -0.00000000000E+00 -0.44810800253E+02  0.44810800253E+02  0.00000000000E+00 0.  1.
          6    1    1    2  501    0 -0.12708410276E+02 -0.56945462132E+02  0.59686191937E+03  0.62416138950E+03  0.17300000000E+03 0.  1.
         -6    1    1    2    0  503  0.12708410276E+02  0.56945462132E+02  0.23626632496E+03  0.29858845534E+03  0.17300000000E+03 0.  1.
<mgrwt>
<rscale>  2 0.18257407E+03</rscale>
<asrwt>0</asrwt>
<pdfrwt beam="1">  1       21 0.13506753E+00 0.18257407E+03</pdfrwt>
<pdfrwt beam="2">  1       21 0.68939699E-02 0.18257407E+03</pdfrwt>
<totfact> 0.61246987E+04</totfact>
</mgrwt>
</event>
<event>
 4    1  0.4023583E+000  0.1933676E+03  0.7546771E-02  0.1155459E+00
         21   -1    0    0  503  502  0.00000000000E+00  0.00000000000E+00  0.11382125439E+03  0.11382125439E+03  0.00000000000E+00 0. -1.
         21   -1    0    0  501  503 -0.00000000000E+00 -0.00000000000E+00 -0.55111256591E+03  0.55111256591E+03  0.00000000000E+00 0. -1.
          6    1    1    2  501    0 -0.81866588897E+02 -0.27566436327E+02 -0.42994422408E+03  0.47142664606E+03  0.17300000000E+03 0. -1.
         -6    1    1    2    0  502  0.81866588897E+02  0.27566436327E+02 -0.73470874414E+01  0.19350717424E+03  0.17300000000E+03 0. -1.
<mgrwt>
<rscale>  2 0.19336765E+03</rscale>
<asrwt>0</asrwt>
<pdfrwt beam="1">  1       21 0.17510962E-01 0.19336765E+03</pdfrwt>
<pdfrwt beam="2">  1       21 0.84786549E-01 0.19336765E+03</pdfrwt>
<totfact> 0.35590084E+04</totfact>
</mgrwt>
</event>
<event>
 4    1  0.4023583E+000  0.2248224E+03  0.7546771E-02  0.1130338E+00
         21   -1    0    0  501  502  0.00000000000E+00  0.00000000000E+00  0.16092160719E+03  0.16092160719E+03  0.00000000000E+00 0. -1.
         21   -1    0    0  502  503 -0.00000000000E+00 -0.00000000000E+00 -0.33332926888E+03  0.33332926888E+03  0.00000000000E+00 0. -1.
          6    1    1    2  501    0 -0.81864136411E+02  0.11795919979E+03 -0.26844652915E+02  0.22641940075E+03  0.17300000000E+03 0. -1.
         -6    1    1    2    0  503  0.81864136411E+02 -0.11795919979E+03 -0.14556300877E+03  0.26783147531E+03  0.17300000000E+03 0. -1.
<mgrwt>
<rscale>  2 0.22482240E+03</rscale>
<asrwt>0</asrwt>
<pdfrwt beam="1">  1       21 0.24757171E-01 0.22482240E+03</pdfrwt>
<pdfrwt beam="2">  1       21 0.51281425E-01 0.22482240E+03</pdfrwt>
<totfact> 0.54955061E+04</totfact>
</mgrwt>
</event>
<event>
 4    1  0.4023583E+000  0.2045134E+03  0.7546771E-02  0.1145986E+00
         21   -1    0    0  503  502  0.00000000000E+00  0.00000000000E+00  0.83311965881E+02  0.83311965881E+02  0.00000000000E+00 0. -1.
         21   -1    0    0  501  503 -0.00000000000E+00 -0.00000000000E+00 -0.61571308909E+03  0.61571308909E+03  0.00000000000E+00 0. -1.
          6    1    1    2  501    0 -0.82040401181E+02 -0.71875635044E+02 -0.41637882757E+03  0.46389337394E+03  0.17300000000E+03 0. -1.
         -6    1    1    2    0  502  0.82040401181E+02  0.71875635044E+02 -0.11602229564E+03  0.23513168103E+03  0.17300000000E+03 0. -1.
<mgrwt>
<rscale>  2 0.20451341E+03</rscale>
<asrwt>0</asrwt>
<pdfrwt beam="1">  1       21 0.12817226E-01 0.20451341E+03</pdfrwt>
<pdfrwt beam="2">  1       21 0.94725089E-01 0.20451341E+03</pdfrwt>
<totfact> 0.48336102E+04</totfact>
</mgrwt>
</event>
<event>
 4    1  0.4023583E+000  0.1835024E+03  0.7546771E-02  0.1164456E+00
         21   -1    0    0  503  502  0.00000000000E+00  0.00000000000E+00  0.74210935371E+03  0.74210935371E+03  0.00000000000E+00 0. -1.
         21   -1    0    0  501  503 -0.00000000000E+00 -0.00000000000E+00 -0.51854558521E+02  0.51854558521E+02  0.00000000000E+00 0. -1.
          6    1    1    2  501    0  0.51952848222E+01  0.60968232491E+02  0.20479617116E+03  0.27498106859E+03  0.17300000000E+03 0. -1.
         -6    1    1    2    0  502 -0.51952848222E+01 -0.60968232491E+02  0.48545862403E+03  0.51898284365E+03  0.17300000000E+03 0. -1.
<mgrwt>
<rscale>  2 0.18350236E+03</rscale>
<asrwt>0</asrwt>
<pdfrwt beam="1">  1       21 0.11417066E+00 0.18350236E+03</pdfrwt>
<pdfrwt beam="2">  1       21 0.79776249E-02 0.18350236E+03</pdfrwt>
<totfact> 0.72260714E+04</totfact>
</mgrwt>
</event>
<event>
 4    1  0.4023583E+000  0.1863950E+03  0.7546771E-02  0.1161754E+00
         21   -1    0    0  501  502  0.00000000000E+00  0.00000000000E+00  0.94788851711E+02  0.94788851711E+02  0.00000000000E+00 0.  1.
         21   -1    0    0  502  503 -0.00000000000E+00 -0.00000000000E+00 -0.43541900664E+03  0.43541900664E+03  0.00000000000E+00 0.  1.
          6    1    1    2  501    0  0.62160112769E+02 -0.30825762048E+02 -0.64868505400E+02  0.19736015357E+03  0.17300000000E+03 0.  1.
         -6    1    1    2    0  503 -0.62160112769E+02  0.30825762048E+02 -0.27576164952E+03  0.33284770477E+03  0.17300000000E+03 0.  1.
<mgrwt>
<rscale>  2 0.18639503E+03</rscale>
<asrwt>0</asrwt>
<pdfrwt beam="1">  1       21 0.14582900E-01 0.18639503E+03</pdfrwt>
<pdfrwt beam="2">  1       21 0.66987539E-01 0.18639503E+03</pdfrwt>
<totfact> 0.84487463E+04</totfact>
</mgrwt>
</event>
<event>
 4    1  0.4023583E+000  0.1997229E+03  0.7546771E-02  0.1149973E+00
         21   -1    0    0  503  502  0.00000000000E+00  0.00000000000E+00  0.63800496920E+02  0.63800496920E+02  0.00000000000E+00 0.  1.
         21   -1    0    0  501  503 -0.00000000000E+00 -0.00000000000E+00 -0.84797327896E+03  0.84797327896E+03  0.00000000000E+00 0.  1.
          6    1    1    2  501    0  0.95973435483E+02  0.27374032254E+02 -0.62574389432E+03  0.65684447112E+03  0.17300000000E+03 0.  1.
         -6    1    1    2    0  502 -0.95973435483E+02 -0.27374032254E+02 -0.15842888771E+03  0.25492930475E+03  0.17300000000E+03 0.  1.
<mgrwt>
<rscale>  2 0.19972290E+03</rscale>
<asrwt>0</asrwt>
<pdfrwt beam="1">  1       21 0.98154619E-02 0.19972290E+03</pdfrwt>
<pdfrwt beam="2">  1       21 0.13045742E+00 0.19972290E+03</pdfrwt>
<totfact> 0.35780059E+04</totfact>
</mgrwt>
</event>
<event>
 4    1  0.4023583E+000  0.1757470E+03  0.7546771E-02  0.1171984E+00
         21   -1    0    0  503  502  0.00000000000E+00  0.00000000000E+00  0.36320819090E+02  0.36320819090E+02  0.00000000000E+00 0. -1.
         21   -1    0    0  501  503 -0.00000000000E+00 -0.00000000000E+00 -0.98153718844E+03  0.98153718844E+03  0.00000000000E+00 0. -1.
          6    1    1    2  501    0 -0.18700213619E+02  0.24663590001E+02 -0.65863580032E+03  0.68168035627E+03  0.17300000000E+03 0. -1.
         -6    1    1    2    0  502  0.18700213619E+02 -0.24663590001E+02 -0.28658056903E+03  0.33617765126E+03  0.17300000000E+03 0. -1.
<mgrwt>
<rscale>  2 0.17574695E+03</rscale>
<asrwt>0</asrwt>
<pdfrwt beam="1">  1       21 0.55878188E-02 0.17574695E+03</pdfrwt>
<pdfrwt beam="2">  1       21 0.15100571E+00 0.17574695E+03</pdfrwt>
<totfact> 0.65987957E+04</totfact>
</mgrwt>
</event>
<event>
 4    1  0.4023583E+000  0.2191627E+03  0.7546771E-02  0.1134509E+00
         21   -1    0    0  501  502  0.00000000000E+00  0.00000000000E+00  0.47313954248E+02  0.47313954248E+02  0.00000000000E+00 0.  1.
         21   -1    0    0  502  503 -0.00000000000E+00 -0.00000000000E+00 -0.10478030966E+04  0.10478030966E+04  0.00000000000E+00 0.  1.
          6    1    1    2  501    0 -0.11132314076E+03  0.75567457125E+02 -0.40363082474E+03  0.45929307085E+03  0.17300000000E+03 0.  1.
         -6    1    1    2    0  503  0.11132314076E+03 -0.75567457125E+02 -0.59685831758E+03  0.63582397997E+03  0.17300000000E+03 0.  1.
<mgrwt>
<rscale>  2 0.21916268E+03</rscale>
<asrwt>0</asrwt>
<pdfrwt beam="1">  1       21 0.72790705E-02 0.21916268E+03</pdfrwt>
<pdfrwt beam="2">  1       21 0.16120046E+00 0.21916268E+03</pdfrwt>
<totfact> 0.34313592E+04</totfact>
</mgrwt>
</event>
<event>
 4    1  0.4023583E+000  0.1918345E+03  0.7546771E-02  0.1156817E+00
         21   -1    0    0  501  502  0.00000000000E+00  0.00000000000E+00  0.83158674112E+02  0.83158674112E+02  0.00000000000E+00 0. -1.
         21   -1    0    0  502  503 -0.00000000000E+00 -0.00000000000E+00 -0.10043699706E+04  0.10043699706E+04  0.00000000000E+00 0. -1.
          6    1    1    2  501    0  0.81534022452E+02  0.14956301742E+02 -0.53910617737E+02  0.19926575843E+03  0.17300000000E+03 0. -1.
         -6    1    1    2    0  503 -0.81534022452E+02 -0.14956301742E+02 -0.86730067878E+03  0.88826288631E+03  0.17300000000E+03 0. -1.
<mgrwt>
<rscale>  2 0.19183453E+03</rscale>
<asrwt>0</asrwt>
<pdfrwt beam="1">  1       21 0.12793642E-01 0.19183453E+03</pdfrwt>
<pdfrwt beam="2">  1       21 0.15451846E+00 0.19183453E+03</pdfrwt>
<totfact> 0.14466376E+04</totfact>
</mgrwt>
</event>
<event>
 4    1  0.4023583E+000  0.2273217E+03  0.7546771E-02  0.1128539E+00
         21   -1    0    0  503  502  0.00000000000E+00  0.00000000000E+00  0.27698961428E+03  0.27698961428E+03  0.00000000000E+00 0. -1.
         21   -1    0    0  501  503 -0.00000000000E+00 -0.00000000000E+00 -0.32304771002E+03  0.32304771002E+03  0.00000000000E+00 0.  1.
          6    1    1    2  501    0 -0.14356901558E+03  0.33676179592E+02 -0.21804130641E+03  0.31498755310E+03  0.17300000000E+03 0.  1.
         -6    1    1    2    0  502  0.14356901558E+03 -0.33676179592E+02  0.17198321067E+03  0.28504977120E+03  0.17300000000E+03 0. -1.
<mgrwt>
<rscale>  2 0.22732168E+03</rscale>
<asrwt>0</asrwt>
<pdfrwt beam="1">  1       21 0.42613787E-01 0.22732168E+03</pdfrwt>
<pdfrwt beam="2">  1       21 0.49699647E-01 0.22732168E+03</pdfrwt>
<totfact> 0.20038320E+04</totfact>
</mgrwt>
</event>
<event>
 4    1  0.4023583E+000  0.2373192E+03  0.7546771E-02  0.1121592E+00
         21   -1    0    0  503  502  0.00000000000E+00  0.00000000000E+00  0.12982964748E+04  0.12982964748E+04  0.00000000000E+00 0. -1.
         21   -1    0    0  501  503 -0.00000000000E+00 -0.00000000000E+00 -0.56210505965E+02  0.56210505965E+02  0.00000000000E+00 0. -1.
          6    1    1    2  501    0  0.15064289102E+03 -0.60812339167E+02  0.29747896410E+03  0.38054455099E+03  0.17300000000E+03 0. -1.
         -6    1    1    2    0  502 -0.15064289102E+03  0.60812339167E+02  0.94460700470E+03  0.97396242974E+03  0.17300000000E+03 0. -1.
<mgrwt>
<rscale>  2 0.23731924E+03</rscale>
<asrwt>0</asrwt>
<pdfrwt beam="1">  1       21 0.19973790E+00 0.23731924E+03</pdfrwt>
<pdfrwt beam="2">  1       21 0.86477711E-02 0.23731924E+03</pdfrwt>
<totfact> 0.13657096E+04</totfact>
</mgrwt>
</event>
<event>
 4    1  0.4023583E+000  0.1934951E+03  0.7546771E-02  0.1155346E+00
         21   -1    0    0  501  502  0.00000000000E+00  0.00000000000E+00  0.20291744862E+03  0.20291744862E+03  0.00000000000E+00 0.  1.
         21   -1    0    0  502  503 -0.00000000000E+00 -0.00000000000E+00 -0.34342986536E+03  0.34342986536E+03  0.00000000000E+00 0. -1.
          6    1    1    2  501    0 -0.60794527982E+02 -0.61768819482E+02  0.11557063736E+03  0.22538175151E+03  0.17300000000E+03 0.  1.
         -6    1    1    2    0  503  0.60794527982E+02  0.61768819482E+02 -0.25608305411E+03  0.32096556247E+03  0.17300000000E+03 0. -1.
<mgrwt>
<rscale>  2 0.19349512E+03</rscale>
<asrwt>0</asrwt>
<pdfrwt beam="1">  1       21 0.31218069E-01 0.19349512E+03</pdfrwt>
<pdfrwt beam="2">  1       21 0.52835364E-01 0.19349512E+03</pdfrwt>
<totfact> 0.33457148E+04</totfact>
</mgrwt>
</event>
<event>
 4    1  0.4023583E+000  0.2043051E+03  0.7546771E-02  0.1146157E+00
         21   -1    0    0  503  502  0.00000000000E+00  0.00000000000E+00  0.15134996008E+03  0.15134996008E+03  0.00000000000E+00 0.  1.
         21   -1    0    0  501  503 -0.00000000000E+00 -0.00000000000E+00 -0.37385777706E+03  0.37385777706E+03  0.00000000000E+00 0. -1.
          6    1    1    2  501    0 -0.28142266006E+02 -0.10497424452E+03  0.23243645711E+02  0.20562306830E+03  0.17300000000E+03 0.  1.
         -6    1    1    2    0  502  0.28142266006E+02  0.10497424452E+03 -0.24575146269E+03  0.31958466885E+03  0.17300000000E+03 0. -1.
<mgrwt>
<rscale>  2 0.20430511E+03</rscale>
<asrwt>0</asrwt>
<pdfrwt beam="1">  1       21 0.23284609E-01 0.20430511E+03</pdfrwt>
<pdfrwt beam="2">  1       21 0.57516581E-01 0.20430511E+03</pdfrwt>
<totfact> 0.48902835E+04</totfact>
</mgrwt>
</event>
<event>
 4    1  0.4023583E+000  0.3003386E+03  0.7546771E-02  0.1085071E+00
         21   -1    0    0  501  502  0.00000000000E+00  0.00000000000E+00  0.18561853073E+03  0.18561853073E+03  0.00000000000E+00 0. -1.
         21   -1    0    0  502  503 -0.00000000000E+00 -0.00000000000E+00 -0.51934005662E+03  0.51934005662E+03  0.00000000000E+00 0.  1.
          6    1    1    2  501    0  0.19482401877E+03  0.14939161125E+03 -0.77499610921E+02  0.31017646831E+03  0.17300000000E+03 0.  1.
         -6    1    1    2    0  503 -0.19482401877E+03 -0.14939161125E+03 -0.25622191497E+03  0.39478211904E+03  0.17300000000E+03 0. -1.
<mgrwt>
<rscale>  2 0.30033856E+03</rscale>
<asrwt>0</asrwt>
<pdfrwt beam="1">  1       21 0.28556697E-01 0.30033856E+03</pdfrwt>
<pdfrwt beam="2">  1       21 0.79898469E-01 0.30033856E+03</pdfrwt>
<totfact> 0.15287022E+04</totfact>
</mgrwt>
</event>
<event>
 4    1  0.4023583E+000  0.1791487E+03  0.7546771E-02  0.1168629E+00
         21   -1    0    0  501  502  0.00000000000E+00  0.00000000000E+00  0.10202534100E+03  0.10202534100E+03  0.00000000000E+00 0. -1.
         21   -1    0    0  502  503 -0.00000000000E+00 -0.00000000000E+00 -0.32475046701E+03  0.32475046701E+03  0.00000000000E+00 0. -1.
          6    1    1    2  501    0  0.11634606924E+02  0.45054292960E+02 -0.73583681732E+02  0.19367191745E+03  0.17300000000E+03 0. -1.
         -6    1    1    2    0  503 -0.11634606924E+02 -0.45054292960E+02 -0.14914144427E+03  0.23310389056E+03  0.17300000000E+03 0. -1.
<mgrwt>
<rscale>  2 0.17914869E+03</rscale>
<asrwt>0</asrwt>
<pdfrwt beam="1">  1       21 0.15696207E-01 0.17914869E+03</pdfrwt>
<pdfrwt beam="2">  1       21 0.49961610E-01 0.17914869E+03</pdfrwt>
<totfact> 0.13845184E+05</totfact>
</mgrwt>
</event>
<event>
 4    1  0.4023583E+000  0.1733982E+03  0.7546771E-02  0.1174350E+00
         21   -1    0    0  501  502  0.00000000000E+00  0.00000000000E+00  0.45784731280E+03  0.45784731280E+03  0.00000000000E+00 0. -1.
         21   -1    0    0  502  503 -0.00000000000E+00 -0.00000000000E+00 -0.13484555686E+03  0.13484555686E+03  0.00000000000E+00 0. -1.
          6    1    1    2  501    0  0.61070436670E+01  0.10032041081E+02  0.37375542355E+03  0.41201948312E+03  0.17300000000E+03 0. -1.
         -6    1    1    2    0  503 -0.61070436670E+01 -0.10032041081E+02 -0.50753667617E+02  0.18067338655E+03  0.17300000000E+03 0. -1.
<mgrwt>
<rscale>  2 0.17339821E+03</rscale>
<asrwt>0</asrwt>
<pdfrwt beam="1">  1       21 0.70438047E-01 0.17339821E+03</pdfrwt>
<pdfrwt beam="2">  1       21 0.20745470E-01 0.17339821E+03</pdfrwt>
<totfact> 0.39788043E+04</totfact>
</mgrwt>
</event>
<event>
 4    1  0.4023583E+000  0.2043877E+03  0.7546771E-02  0.1146089E+00
         21   -1    0    0  501  502  0.00000000000E+00  0.00000000000E+00  0.87052807811E+03  0.87052807811E+03  0.00000000000E+00 0.  1.
         21   -1    0    0  502  503 -0.00000000000E+00 -0.00000000000E+00 -0.20953125411E+03  0.20953125411E+03  0.00000000000E+00 0.  1.
          6    1    1    2  501    0  0.14151068310E+02 -0.10791240119E+03  0.80467323827E+03  0.83022488487E+03  0.17300000000E+03 0.  1.
         -6    1    1    2    0  503 -0.14151068310E+02  0.10791240119E+03 -0.14367641428E+03  0.24983444735E+03  0.17300000000E+03 0.  1.
<mgrwt>
<rscale>  2 0.20438772E+03</rscale>
<asrwt>0</asrwt>
<pdfrwt beam="1">  1       21 0.13392739E+00 0.20438772E+03</pdfrwt>
<pdfrwt beam="2">  1       21 0.32235578E-01 0.20438772E+03</pdfrwt>
<totfact> 0.36743284E+03</totfact>
</mgrwt>
</event>
<event>
 4    1  0.4023583E+000  0.2220334E+03  0.7546771E-02  0.1132376E+00
         21   -1    0    0  501  502  0.00000000000E+00  0.00000000000E+00  0.39376429370E+03  0.39376429370E+03  0.00000000000E+00 0. -1.
         21   -1    0    0  502  503 -0.00000000000E+00 -0.00000000000E+00 -0.14740375447E+03  0.14740375447E+03  0.00000000000E+00 0. -1.
          6    1    1    2  501    0 -0.13917045429E+03 -0.11813045497E+01  0.22820050243E+03  0.31839327904E+03  0.17300000000E+03 0. -1.
         -6    1    1    2    0  503  0.13917045429E+03  0.11813045497E+01  0.18160036804E+02  0.22277476914E+03  0.17300000000E+03 0. -1.
<mgrwt>
<rscale>  2 0.22203336E+03</rscale>
<asrwt>0</asrwt>
<pdfrwt beam="1">  1       21 0.60579122E-01 0.22203336E+03</pdfrwt>
<pdfrwt beam="2">  1       21 0.22677501E-01 0.22203336E+03</pdfrwt>
<totfact> 0.45614286E+04</totfact>
</mgrwt>
</event>
<event>
 4    1  0.4023583E+000  0.1846737E+03  0.7546771E-02  0.1163355E+00
         21   -1    0    0  503  502  0.00000000000E+00  0.00000000000E+00  0.27371278269E+02  0.27371278269E+02  0.00000000000E+00 0. -1.
         21   -1    0    0  501  503 -0.00000000000E+00 -0.00000000000E+00 -0.17294473621E+04  0.17294473621E+04  0.00000000000E+00 0. -1.
          6    1    1    2  501    0 -0.51597862091E+02 -0.38897912828E+02 -0.13154694292E+04  0.13283690023E+04  0.17300000000E+03 0. -1.
         -6    1    1    2    0  502  0.51597862091E+02  0.38897912828E+02 -0.38660665464E+03  0.42844963812E+03  0.17300000000E+03 0. -1.
<mgrwt>
<rscale>  2 0.18467373E+03</rscale>
<asrwt>0</asrwt>
<pdfrwt beam="1">  1       21 0.42109641E-02 0.18467373E+03</pdfrwt>
<pdfrwt beam="2">  1       21 0.26606894E+00 0.18467373E+03</pdfrwt>
<totfact> 0.19401908E+04</totfact>
</mgrwt>
</event>
<event>
 4    1  0.4023583E+000  0.6166368E+03  0.7546771E-02  0.9871479E-01
         21   -1    0    0  503  502  0.00000000000E+00  0.00000000000E+00  0.23407038301E+03  0.23407038301E+03  0.00000000000E+00 0.  1.
         21   -1    0    0  501  503 -0.00000000000E+00 -0.00000000000E+00 -0.16407991532E+04  0.16407991532E+04  0.00000000000E+00 0. -1.
          6    1    1    2  501    0 -0.52702524872E+03  0.26936285837E+03 -0.79687446036E+03  0.10075960837E+04  0.17300000000E+03 0.  1.
         -6    1    1    2    0  502  0.52702524872E+03 -0.26936285837E+03 -0.60985430982E+03  0.86727345253E+03  0.17300000000E+03 0. -1.
<mgrwt>
<rscale>  2 0.61663682E+03</rscale>
<asrwt>0</asrwt>
<pdfrwt beam="1">  1       21 0.36010828E-01 0.61663682E+03</pdfrwt>
<pdfrwt beam="2">  1       21 0.25243064E+00 0.61663682E+03</pdfrwt>
<totfact> 0.35732504E+02</totfact>
</mgrwt>
</event>
<event>
 4    1  0.4023583E+000  0.1793187E+03  0.7546771E-02  0.1168464E+00
         21   -1    0    0  501  502  0.00000000000E+00  0.00000000000E+00  0.47124948662E+03  0.47124948662E+03  0.00000000000E+00 0. -1.
         21   -1    0    0  502  503 -0.00000000000E+00 -0.00000000000E+00 -0.77465726138E+02  0.77465726138E+02  0.00000000000E+00 0. -1.
          6    1    1    2  501    0 -0.40104790313E+02  0.24855616167E+02  0.29160404003E+03  0.34232749236E+03  0.17300000000E+03 0. -1.
         -6    1    1    2    0  503  0.40104790313E+02 -0.24855616167E+02  0.10217972045E+03  0.20638772040E+03  0.17300000000E+03 0. -1.
<mgrwt>
<rscale>  2 0.17931870E+03</rscale>
<asrwt>0</asrwt>
<pdfrwt beam="1">  1       21 0.72499919E-01 0.17931870E+03</pdfrwt>
<pdfrwt beam="2">  1       21 0.11917804E-01 0.17931870E+03</pdfrwt>
<totfact> 0.10238379E+05</totfact>
</mgrwt>
</event>
<event>
 4    1  0.4023583E+000  0.2209969E+03  0.7546771E-02  0.1133142E+00
         21   -1    0    0  501  502  0.00000000000E+00  0.00000000000E+00  0.94300026263E+03  0.94300026263E+03  0.00000000000E+00 0. -1.
         21   -1    0    0  502  503 -0.00000000000E+00 -0.00000000000E+00 -0.56893879388E+02  0.56893879388E+02  0.00000000000E+00 0. -1.
          6    1    1    2  501    0 -0.13517604793E+03  0.25260375614E+02  0.29333787378E+03  0.36726932721E+03  0.17300000000E+03 0. -1.
         -6    1    1    2    0  503  0.13517604793E+03 -0.25260375614E+02  0.59276850946E+03  0.63262481481E+03  0.17300000000E+03 0. -1.
<mgrwt>
<rscale>  2 0.22099695E+03</rscale>
<asrwt>0</asrwt>
<pdfrwt beam="1">  1       21 0.14507695E+00 0.22099695E+03</pdfrwt>
<pdfrwt beam="2">  1       21 0.87529052E-02 0.22099695E+03</pdfrwt>
<totfact> 0.32903613E+04</totfact>
</mgrwt>
</event>
<event>
 4    1  0.4023583E+000  0.2110377E+03  0.7546771E-02  0.1140747E+00
         21   -1    0    0  501  502  0.00000000000E+00  0.00000000000E+00  0.68792879320E+03  0.68792879320E+03  0.00000000000E+00 0.  1.
         21   -1    0    0  502  503 -0.00000000000E+00 -0.00000000000E+00 -0.13685798192E+03  0.13685798192E+03  0.00000000000E+00 0.  1.
          6    1    1    2  501    0  0.11932032288E+03 -0.19249700451E+02  0.57489745630E+03  0.61240834064E+03  0.17300000000E+03 0.  1.
         -6    1    1    2    0  503 -0.11932032288E+03  0.19249700451E+02 -0.23826645027E+02  0.21237843448E+03  0.17300000000E+03 0.  1.
<mgrwt>
<rscale>  2 0.21103765E+03</rscale>
<asrwt>0</asrwt>
<pdfrwt beam="1">  1       21 0.10583520E+00 0.21103765E+03</pdfrwt>
<pdfrwt beam="2">  1       21 0.21055075E-01 0.21103765E+03</pdfrwt>
<totfact> 0.14848997E+04</totfact>
</mgrwt>
</event>
<event>
 4    1  0.4023583E+000  0.1854462E+03  0.7546771E-02  0.1162634E+00
         21   -1    0    0  503  502  0.00000000000E+00  0.00000000000E+00  0.12695993536E+03  0.12695993536E+03  0.00000000000E+00 0.  1.
         21   -1    0    0  501  503 -0.00000000000E+00 -0.00000000000E+00 -0.36223118808E+03  0.36223118808E+03  0.00000000000E+00 0. -1.
          6    1    1    2  501    0  0.14328183882E+01 -0.66777629041E+02 -0.24047116482E+03  0.30367200368E+03  0.17300000000E+03 0. -1.
         -6    1    1    2    0  502 -0.14328183882E+01  0.66777629041E+02  0.51999120993E+01  0.18551911976E+03  0.17300000000E+03 0.  1.
<mgrwt>
<rscale>  2 0.18544623E+03</rscale>
<asrwt>0</asrwt>
<pdfrwt beam="1">  1       21 0.19532298E-01 0.18544623E+03</pdfrwt>
<pdfrwt beam="2">  1       21 0.55727874E-01 0.18544623E+03</pdfrwt>
<totfact> 0.73405614E+04</totfact>
</mgrwt>
</event>
<event>
 4    1  0.4023583E+000  0.1964274E+03  0.7546771E-02  0.1152789E+00
         21   -1    0    0  503  502  0.00000000000E+00  0.00000000000E+00  0.25481348591E+03  0.25481348591E+03  0.00000000000E+00 0.  1.
         21   -1    0    0  501  503 -0.00000000000E+00 -0.00000000000E+00 -0.19739426605E+03  0.19739426605E+03  0.00000000000E+00 0.  1.
          6    1    1    2  501    0 -0.79661734382E+02 -0.48049125400E+02  0.13782873626E+03  0.23995931096E+03  0.17300000000E+03 0.  1.
         -6    1    1    2    0  502  0.79661734382E+02  0.48049125400E+02 -0.80409516406E+02  0.21224844100E+03  0.17300000000E+03 0.  1.
<mgrwt>
<rscale>  2 0.19642737E+03</rscale>
<asrwt>0</asrwt>
<pdfrwt beam="1">  1       21 0.39202075E-01 0.19642737E+03</pdfrwt>
<pdfrwt beam="2">  1       21 0.30368348E-01 0.19642737E+03</pdfrwt>
<totfact> 0.65168482E+04</totfact>
</mgrwt>
</event>
<event>
 4    1  0.4023583E+000  0.2144830E+03  0.7546771E-02  0.1138064E+00
         21   -1    0    0  501  502  0.00000000000E+00  0.00000000000E+00  0.74681203114E+02  0.74681203114E+02  0.00000000000E+00 0. -1.
         21   -1    0    0  502  503 -0.00000000000E+00 -0.00000000000E+00 -0.63825856322E+03  0.63825856322E+03  0.00000000000E+00 0.  1.
          6    1    1    2  501    0 -0.46895402701E+02 -0.11779127756E+03 -0.21520636014E+03  0.30383670171E+03  0.17300000000E+03 0. -1.
         -6    1    1    2    0  503  0.46895402701E+02  0.11779127756E+03 -0.34837099997E+03  0.40910306462E+03  0.17300000000E+03 0.  1.
<mgrwt>
<rscale>  2 0.21448302E+03</rscale>
<asrwt>0</asrwt>
<pdfrwt beam="1">  1       21 0.11489416E-01 0.21448302E+03</pdfrwt>
<pdfrwt beam="2">  1       21 0.98193623E-01 0.21448302E+03</pdfrwt>
<totfact> 0.53775369E+04</totfact>
</mgrwt>
</event>
<event>
 4    1  0.4023583E+000  0.1822794E+03  0.7546771E-02  0.1165615E+00
         21   -1    0    0  501  502  0.00000000000E+00  0.00000000000E+00  0.22690883965E+04  0.22690883965E+04  0.00000000000E+00 0.  1.
         21   -1    0    0  502  503 -0.00000000000E+00 -0.00000000000E+00 -0.18662477385E+02  0.18662477385E+02  0.00000000000E+00 0.  1.
          6    1    1    2  501    0 -0.75542086404E+01  0.56918600766E+02  0.16560852152E+04  0.16660864423E+04  0.17300000000E+03 0.  1.
         -6    1    1    2    0  503  0.75542086404E+01 -0.56918600766E+02  0.59434070396E+03  0.62166443164E+03  0.17300000000E+03 0.  1.
<mgrwt>
<rscale>  2 0.18227944E+03</rscale>
<asrwt>0</asrwt>
<pdfrwt beam="1">  1       21 0.34909030E+00 0.18227944E+03</pdfrwt>
<pdfrwt beam="2">  1       21 0.28711522E-02 0.18227944E+03</pdfrwt>
<totfact> 0.12197477E+04</totfact>
</mgrwt>
</event>
<event>
 4    1  0.4023583E+000  0.2432407E+03  0.7546771E-02  0.1117653E+00
         21   -1    0    0  503  502  0.00000000000E+00  0.00000000000E+00  0.12219620133E+03  0.12219620133E+03  0.00000000000E+00 0.  1.
         21   -1    0    0  501  503 -0.00000000000E+00 -0.00000000000E+00 -0.57560796830E+03  0.57560796830E+03  0.00000000000E+00 0.  1.
          6    1    1    2  501    0 -0.11296359976E+03  0.12835987002E+03 -0.87659781617E+02  0.25855418854E+03  0.17300000000E+03 0.  1.
         -6    1    1    2    0  502  0.11296359976E+03 -0.12835987002E+03 -0.36575198535E+03  0.43924998109E+03  0.17300000000E+03 0.  1.
<mgrwt>
<rscale>  2 0.24324069E+03</rscale>
<asrwt>0</asrwt>
<pdfrwt beam="1">  1       21 0.18799416E-01 0.24324069E+03</pdfrwt>
<pdfrwt beam="2">  1       21 0.88555070E-01 0.24324069E+03</pdfrwt>
<totfact> 0.27503145E+04</totfact>
</mgrwt>
</event>
<event>
 4    1  0.4023583E+000  0.1796482E+03  0.7546771E-02  0.1168144E+00
         21   -1    0    0  501  502  0.00000000000E+00  0.00000000000E+00  0.84470689159E+02  0.84470689159E+02  0.00000000000E+00 0.  1.
         21   -1    0    0  502  503 -0.00000000000E+00 -0.00000000000E+00 -0.39559107147E+03  0.39559107147E+03  0.00000000000E+00 0. -1.
          6    1    1    2  501    0  0.44294115053E+02 -0.19557358469E+02 -0.19994132023E+03  0.26879358332E+03  0.17300000000E+03 0.  1.
         -6    1    1    2    0  503 -0.44294115053E+02  0.19557358469E+02 -0.11117906208E+03  0.21126817731E+03  0.17300000000E+03 0.  1.
<mgrwt>
<rscale>  2 0.17964815E+03</rscale>
<asrwt>0</asrwt>
<pdfrwt beam="1">  1       21 0.12995491E-01 0.17964815E+03</pdfrwt>
<pdfrwt beam="2">  1       21 0.60860165E-01 0.17964815E+03</pdfrwt>
<totfact> 0.12840808E+05</totfact>
</mgrwt>
</event>
<event>
 4    1  0.4023583E+000  0.2355061E+03  0.7546771E-02  0.1122823E+00
         21   -1    0    0  503  502  0.00000000000E+00  0.00000000000E+00  0.13206194529E+03  0.13206194529E+03  0.00000000000E+00 0. -1.
         21   -1    0    0  501  503 -0.00000000000E+00 -0.00000000000E+00 -0.42935849290E+03  0.42935849290E+03  0.00000000000E+00 0. -1.
          6    1    1    2  501    0  0.13062733729E+03  0.92036091599E+02 -0.19013942258E+03  0.30268158752E+03  0.17300000000E+03 0. -1.
         -6    1    1    2    0  502 -0.13062733729E+03 -0.92036091599E+02 -0.10715712503E+03  0.25873885068E+03  0.17300000000E+03 0. -1.
<mgrwt>
<rscale>  2 0.23550614E+03</rscale>
<asrwt>0</asrwt>
<pdfrwt beam="1">  1       21 0.20317223E-01 0.23550614E+03</pdfrwt>
<pdfrwt beam="2">  1       21 0.66055152E-01 0.23550614E+03</pdfrwt>
<totfact> 0.46221086E+04</totfact>
</mgrwt>
</event>
<event>
 4    1  0.4023583E+000  0.2402742E+03  0.7546771E-02  0.1119610E+00
         21   -1    0    0  503  502  0.00000000000E+00  0.00000000000E+00  0.14028607668E+03  0.14028607668E+03  0.00000000000E+00 0. -1.
         21   -1    0    0  501  503 -0.00000000000E+00 -0.00000000000E+00 -0.86322319655E+03  0.86322319655E+03  0.00000000000E+00 0.  1.
          6    1    1    2  501    0  0.15924577256E+03  0.49431743795E+02 -0.72442320371E+03  0.76323043143E+03  0.17300000000E+03 0.  1.
         -6    1    1    2    0  502 -0.15924577256E+03 -0.49431743795E+02  0.14860838372E+01  0.24027884181E+03  0.17300000000E+03 0. -1.
<mgrwt>
<rscale>  2 0.24027425E+03</rscale>
<asrwt>0</asrwt>
<pdfrwt beam="1">  1       21 0.21582474E-01 0.24027425E+03</pdfrwt>
<pdfrwt beam="2">  1       21 0.13280357E+00 0.24027425E+03</pdfrwt>
<totfact> 0.79254463E+03</totfact>
</mgrwt>
</event>
<event>
 4    1  0.4023583E+000  0.2084580E+03  0.7546771E-02  0.1142793E+00
         21   -1    0    0  501  502  0.00000000000E+00  0.00000000000E+00  0.11544654752E+04  0.11544654752E+04  0.00000000000E+00 0.  1.
         21   -1    0    0  502  503 -0.00000000000E+00 -0.00000000000E+00 -0.55134670397E+02  0.55134670397E+02  0.00000000000E+00 0.  1.
          6    1    1    2  501    0  0.77723588570E+02 -0.86514720487E+02  0.89034419098E+03  0.91442196578E+03  0.17300000000E+03 0.  1.
         -6    1    1    2    0  503 -0.77723588570E+02  0.86514720487E+02  0.20898661380E+03  0.29517817980E+03  0.17300000000E+03 0.  1.
<mgrwt>
<rscale>  2 0.20845804E+03</rscale>
<asrwt>0</asrwt>
<pdfrwt beam="1">  1       21 0.17761005E+00 0.20845804E+03</pdfrwt>
<pdfrwt beam="2">  1       21 0.84822579E-02 0.20845804E+03</pdfrwt>
<totfact> 0.20244353E+04</totfact>
</mgrwt>
</event>
<event>
 4    1  0.4023583E+000  0.2404389E+03  0.7546771E-02  0.1119501E+00
         21   -1    0    0  503  502  0.00000000000E+00  0.00000000000E+00  0.23707869860E+03  0.23707869860E+03  0.00000000000E+00 0. -1.
         21   -1    0    0  501  503 -0.00000000000E+00 -0.00000000000E+00 -0.94752703478E+03  0.94752703478E+03  0.00000000000E+00 0.  1.
          6    1    1    2  501    0  0.16096172274E+03 -0.44420504131E+02 -0.86565363476E+03  0.89842477300E+03  0.17300000000E+03 0.  1.
         -6    1    1    2    0  502 -0.16096172274E+03  0.44420504131E+02  0.15520529857E+03  0.28618096037E+03  0.17300000000E+03 0. -1.
<mgrwt>
<rscale>  2 0.24043888E+03</rscale>
<asrwt>0</asrwt>
<pdfrwt beam="1">  1       21 0.36473645E-01 0.24043888E+03</pdfrwt>
<pdfrwt beam="2">  1       21 0.14577339E+00 0.24043888E+03</pdfrwt>
<totfact> 0.22416071E+03</totfact>
</mgrwt>
</event>
<event>
 4    1  0.4023583E+000  0.3182651E+03  0.7546771E-02  0.1076451E+00
         21   -1    0    0  501  502  0.00000000000E+00  0.00000000000E+00  0.29434824254E+03  0.29434824254E+03  0.00000000000E+00 0.  1.
         21   -1    0    0  502  503 -0.00000000000E+00 -0.00000000000E+00 -0.56867469203E+03  0.56867469203E+03  0.00000000000E+00 0. -1.
          6    1    1    2  501    0  0.13608803465E+03  0.22987758503E+03  0.13399101434E+03  0.34532050214E+03  0.17300000000E+03 0.  1.
         -6    1    1    2    0  503 -0.13608803465E+03 -0.22987758503E+03 -0.40831746383E+03  0.51770243243E+03  0.17300000000E+03 0. -1.
<mgrwt>
<rscale>  2 0.31826507E+03</rscale>
<asrwt>0</asrwt>
<pdfrwt beam="1">  1       21 0.45284346E-01 0.31826507E+03</pdfrwt>
<pdfrwt beam="2">  1       21 0.87488413E-01 0.31826507E+03</pdfrwt>
<totfact> 0.48537164E+03</totfact>
</mgrwt>
</event>
<event>
 4    1  0.4023583E+000  0.2522105E+03  0.7546771E-02  0.1111916E+00
         21   -1    0    0  503  502  0.00000000000E+00  0.00000000000E+00  0.59866089445E+03  0.59866089445E+03  0.00000000000E+00 0.  1.
         21   -1    0    0  501  503 -0.00000000000E+00 -0.00000000000E+00 -0.11201485649E+03  0.11201485649E+03  0.00000000000E+00 0. -1.
          6    1    1    2  501    0  0.89834680910E+02  0.16003388569E+03  0.32390672375E+03  0.41051879391E+03  0.17300000000E+03 0. -1.
         -6    1    1    2    0  502 -0.89834680910E+02 -0.16003388569E+03  0.16273931422E+03  0.30015695703E+03  0.17300000000E+03 0.  1.
<mgrwt>
<rscale>  2 0.25221046E+03</rscale>
<asrwt>0</asrwt>
<pdfrwt beam="1">  1       21 0.92101674E-01 0.25221046E+03</pdfrwt>
<pdfrwt beam="2">  1       21 0.17233055E-01 0.25221046E+03</pdfrwt>
<totfact> 0.29380757E+04</totfact>
</mgrwt>
</event>
<event>
 4    1  0.4023583E+000  0.3300112E+03  0.7546771E-02  0.1071132E+00
         21   -1    0    0  503  502  0.00000000000E+00  0.00000000000E+00  0.38356399505E+03  0.38356399505E+03  0.00000000000E+00 0.  1.
         21   -1    0    0  501  503 -0.00000000000E+00 -0.00000000000E+00 -0.36220654301E+03  0.36220654301E+03  0.00000000000E+00 0.  1.
          6    1    1    2  501    0  0.27710173377E+03  0.46829794363E+02 -0.16266091354E+03  0.36792115092E+03  0.17300000000E+03 0.  1.
         -6    1    1    2    0  502 -0.27710173377E+03 -0.46829794363E+02  0.18401836557E+03  0.37784938715E+03  0.17300000000E+03 0.  1.
<mgrwt>
<rscale>  2 0.33001121E+03</rscale>
<asrwt>0</asrwt>
<pdfrwt beam="1">  1       21 0.59009846E-01 0.33001121E+03</pdfrwt>
<pdfrwt beam="2">  1       21 0.55724083E-01 0.33001121E+03</pdfrwt>
<totfact> 0.75453212E+03</totfact>
</mgrwt>
</event>
<event>
 4    1  0.4023583E+000  0.1856313E+03  0.7546771E-02  0.1162462E+00
         21   -1    0    0  501  502  0.00000000000E+00  0.00000000000E+00  0.33652825410E+02  0.33652825410E+02  0.00000000000E+00 0.  1.
         21   -1    0    0  502  503 -0.00000000000E+00 -0.00000000000E+00 -0.10255916445E+04  0.10255916445E+04  0.00000000000E+00 0.  1.
          6    1    1    2  501    0  0.65119699746E+01 -0.66989222904E+02 -0.47480902402E+03  0.50980640544E+03  0.17300000000E+03 0. -1.
         -6    1    1    2    0  503 -0.65119699746E+01  0.66989222904E+02 -0.51712979509E+03  0.54943806449E+03  0.17300000000E+03 0. -1.
<mgrwt>
<rscale>  2 0.18563125E+03</rscale>
<asrwt>0</asrwt>
<pdfrwt beam="1">  1       21 0.51773573E-02 0.18563125E+03</pdfrwt>
<pdfrwt beam="2">  1       21 0.15778334E+00 0.18563125E+03</pdfrwt>
<totfact> 0.66506256E+04</totfact>
</mgrwt>
</event>
<event>
 4    1  0.4023583E+000  0.2227885E+03  0.7546771E-02  0.1131821E+00
         21   -1    0    0  503  502  0.00000000000E+00  0.00000000000E+00  0.37239417101E+03  0.37239417101E+03  0.00000000000E+00 0.  1.
         21   -1    0    0  501  503 -0.00000000000E+00 -0.00000000000E+00 -0.21957640721E+03  0.21957640721E+03  0.00000000000E+00 0. -1.
          6    1    1    2  501    0  0.21841238221E+02 -0.13866749419E+03 -0.10914071150E+03  0.24808548635E+03  0.17300000000E+03 0. -1.
         -6    1    1    2    0  502 -0.21841238221E+02  0.13866749419E+03  0.26195847529E+03  0.34388509187E+03  0.17300000000E+03 0.  1.
<mgrwt>
<rscale>  2 0.22278850E+03</rscale>
<asrwt>0</asrwt>
<pdfrwt beam="1">  1       21 0.57291411E-01 0.22278850E+03</pdfrwt>
<pdfrwt beam="2">  1       21 0.33780986E-01 0.22278850E+03</pdfrwt>
<totfact> 0.23742372E+04</totfact>
</mgrwt>
</event>
<event>
 4    1  0.4023583E+000  0.2667356E+03  0.7546771E-02  0.1103163E+00
         21   -1    0    0  503  502  0.00000000000E+00  0.00000000000E+00  0.44061244194E+03  0.44061244194E+03  0.00000000000E+00 0. -1.
         21   -1    0    0  501  503 -0.00000000000E+00 -0.00000000000E+00 -0.33488388791E+03  0.33488388791E+03  0.00000000000E+00 0.  1.
          6    1    1    2  501    0 -0.17237105783E+03  0.10727121556E+03 -0.22615762684E+03  0.34970725963E+03  0.17300000000E+03 0.  1.
         -6    1    1    2    0  502  0.17237105783E+03 -0.10727121556E+03  0.33188618087E+03  0.42578907021E+03  0.17300000000E+03 0. -1.
<mgrwt>
<rscale>  2 0.26673563E+03</rscale>
<asrwt>0</asrwt>
<pdfrwt beam="1">  1       21 0.67786530E-01 0.26673563E+03</pdfrwt>
<pdfrwt beam="2">  1       21 0.51520598E-01 0.26673563E+03</pdfrwt>
<totfact> 0.67858395E+03</totfact>
</mgrwt>
</event>
<event>
 4    1  0.4023583E+000  0.1935774E+03  0.7546771E-02  0.1155274E+00
         21   -1    0    0  503  502  0.00000000000E+00  0.00000000000E+00  0.55077213657E+02  0.55077213657E+02  0.00000000000E+00 0.  1.
         21   -1    0    0  501  503 -0.00000000000E+00 -0.00000000000E+00 -0.88002797057E+03  0.88002797057E+03  0.00000000000E+00 0.  1.
          6    1    1    2  501    0  0.53454075060E+02 -0.68453510104E+02 -0.63518482698E+03  0.66402709705E+03  0.17300000000E+03 0.  1.
         -6    1    1    2    0  502 -0.53454075060E+02  0.68453510104E+02 -0.18976592993E+03  0.27107808718E+03  0.17300000000E+03 0.  1.
<mgrwt>
<rscale>  2 0.19357743E+03</rscale>
<asrwt>0</asrwt>
<pdfrwt beam="1">  1       21 0.84734175E-02 0.19357743E+03</pdfrwt>
<pdfrwt beam="2">  1       21 0.13538892E+00 0.19357743E+03</pdfrwt>
<totfact> 0.42313038E+04</totfact>
</mgrwt>
</event>
<event>
 4    1  0.4023583E+000  0.2099106E+03  0.7546771E-02  0.1141637E+00
         21   -1    0    0  501  502  0.00000000000E+00  0.00000000000E+00  0.17683257296E+03  0.17683257296E+03  0.00000000000E+00 0.  1.
         21   -1    0    0  502  503 -0.00000000000E+00 -0.00000000000E+00 -0.24949200758E+03  0.24949200758E+03  0.00000000000E+00 0. -1.
          6    1    1    2  501    0  0.11831219353E+03 -0.11649136338E+02 -0.28746412081E+02  0.21186985090E+03  0.17300000000E+03 0. -1.
         -6    1    1    2    0  503 -0.11831219353E+03  0.11649136338E+02 -0.43913022532E+02  0.21445472964E+03  0.17300000000E+03 0.  1.
<mgrwt>
<rscale>  2 0.20991064E+03</rscale>
<asrwt>0</asrwt>
<pdfrwt beam="1">  1       21 0.27205012E-01 0.20991064E+03</pdfrwt>
<pdfrwt beam="2">  1       21 0.38383385E-01 0.20991064E+03</pdfrwt>
<totfact> 0.83696769E+04</totfact>
</mgrwt>
</event>
<event>
 4    1  0.4023583E+000  0.1983901E+03  0.7546771E-02  0.1151104E+00
         21   -1    0    0  501  502  0.00000000000E+00  0.00000000000E+00  0.15012496820E+04  0.15012496820E+04  0.00000000000E+00 0. -1.
         21   -1    0    0  502  503 -0.00000000000E+00 -0.00000000000E+00 -0.37309194895E+02  0.37309194895E+02  0.00000000000E+00 0. -1.
          6    1    1    2  501    0  0.87588298705E+02  0.41927739798E+02  0.11514199972E+04  0.11683863468E+04  0.17300000000E+03 0. -1.
         -6    1    1    2    0  503 -0.87588298705E+02 -0.41927739798E+02  0.31252048998E+03  0.37017253017E+03  0.17300000000E+03 0. -1.
<mgrwt>
<rscale>  2 0.19839013E+03</rscale>
<asrwt>0</asrwt>
<pdfrwt beam="1">  1       21 0.23096144E+00 0.19839013E+03</pdfrwt>
<pdfrwt beam="2">  1       21 0.57398773E-02 0.19839013E+03</pdfrwt>
<totfact> 0.18266847E+04</totfact>
</mgrwt>
</event>
<event>
 4    1  0.4023583E+000  0.1842837E+03  0.7546771E-02  0.1163721E+00
         21   -1    0    0  501  502  0.00000000000E+00  0.00000000000E+00  0.10375447810E+03  0.10375447810E+03  0.00000000000E+00 0.  1.
         21   -1    0    0  502  503 -0.00000000000E+00 -0.00000000000E+00 -0.40498710111E+03  0.40498710111E+03  0.00000000000E+00 0.  1.
          6    1    1    2  501    0  0.25653145400E+02  0.58080875374E+02 -0.39218374130E+02  0.18841059636E+03  0.17300000000E+03 0.  1.
         -6    1    1    2    0  503 -0.25653145400E+02 -0.58080875374E+02 -0.26201424888E+03  0.32033098284E+03  0.17300000000E+03 0.  1.
<mgrwt>
<rscale>  2 0.18428367E+03</rscale>
<asrwt>0</asrwt>
<pdfrwt beam="1">  1       21 0.15962228E-01 0.18428367E+03</pdfrwt>
<pdfrwt beam="2">  1       21 0.62305707E-01 0.18428367E+03</pdfrwt>
<totfact> 0.83946913E+04</totfact>
</mgrwt>
</event>
<event>
 4    1  0.4023583E+000  0.2140733E+03  0.7546771E-02  0.1138380E+00
         21   -1    0    0  503  502  0.00000000000E+00  0.00000000000E+00  0.37194588044E+02  0.37194588044E+02  0.00000000000E+00 0. -1.
         21   -1    0    0  501  503 -0.00000000000E+00 -0.00000000000E+00 -0.12326617786E+04  0.12326617786E+04  0.00000000000E+00 0. -1.
          6    1    1    2  501    0  0.12597746266E+03 -0.52970448879E+01 -0.61131153015E+03  0.64771071218E+03  0.17300000000E+03 0. -1.
         -6    1    1    2    0  502 -0.12597746266E+03  0.52970448879E+01 -0.58415566042E+03  0.62214565448E+03  0.17300000000E+03 0. -1.
<mgrwt>
<rscale>  2 0.21407330E+03</rscale>
<asrwt>0</asrwt>
<pdfrwt beam="1">  1       21 0.57222451E-02 0.21407330E+03</pdfrwt>
<pdfrwt beam="2">  1       21 0.18964025E+00 0.21407330E+03</pdfrwt>
<totfact> 0.33056122E+04</totfact>
</mgrwt>
</event>
<event>
 4    1  0.4023583E+000  0.2319940E+03  0.7546771E-02  0.1125244E+00
         21   -1    0    0  501  502  0.00000000000E+00  0.00000000000E+00  0.19782686007E+04  0.19782686007E+04  0.00000000000E+00 0. -1.
         21   -1    0    0  502  503 -0.00000000000E+00 -0.00000000000E+00 -0.42987109529E+02  0.42987109529E+02  0.00000000000E+00 0.  1.
          6    1    1    2  501    0 -0.48845865544E+02  0.14665025782E+03  0.15799739932E+04  0.15969154755E+04  0.17300000000E+03 0. -1.
         -6    1    1    2    0  503  0.48845865544E+02 -0.14665025782E+03  0.35530749798E+03  0.42434023474E+03  0.17300000000E+03 0.  1.
<mgrwt>
<rscale>  2 0.23199400E+03</rscale>
<asrwt>0</asrwt>
<pdfrwt beam="1">  1       21 0.30434894E+00 0.23199400E+03</pdfrwt>
<pdfrwt beam="2">  1       21 0.66134030E-02 0.23199400E+03</pdfrwt>
<totfact> 0.51526069E+03</totfact>
</mgrwt>
</event>
<event>
 4    1  0.4023583E+000  0.1759342E+03  0.7546771E-02  0.1171797E+00
         21   -1    0    0  503  502  0.00000000000E+00  0.00000000000E+00  0.35897183312E+03  0.35897183312E+03  0.00000000000E+00 0. -1.
         21   -1    0    0  501  503 -0.00000000000E+00 -0.00000000000E+00 -0.39841910804E+03  0.39841910804E+03  0.00000000000E+00 0. -1.
          6    1    1    2  501    0 -0.10378235037E+02 -0.30267681426E+02 -0.35494479807E+03  0.39615483082E+03  0.17300000000E+03 0. -1.
         -6    1    1    2    0  502  0.10378235037E+02  0.30267681426E+02  0.31549752315E+03  0.36123611034E+03  0.17300000000E+03 0. -1.
<mgrwt>
<rscale>  2 0.17593419E+03</rscale>
<asrwt>0</asrwt>
<pdfrwt beam="1">  1       21 0.55226436E-01 0.17593419E+03</pdfrwt>
<pdfrwt beam="2">  1       21 0.61295247E-01 0.17593419E+03</pdfrwt>
<totfact> 0.77474875E+03</totfact>
</mgrwt>
</event>
<event>
 4    1  0.4023583E+000  0.2304248E+03  0.7546771E-02  0.1126341E+00
         21   -1    0    0  503  502  0.00000000000E+00  0.00000000000E+00  0.76563251894E+03  0.76563251894E+03  0.00000000000E+00 0. -1.
         21   -1    0    0  501  503 -0.00000000000E+00 -0.00000000000E+00 -0.10238055990E+04  0.10238055990E+04  0.00000000000E+00 0.  1.
          6    1    1    2  501    0  0.14876130353E+03  0.32197145788E+02 -0.99297189276E+03  0.10193570333E+04  0.17300000000E+03 0.  1.
         -6    1    1    2    0  502 -0.14876130353E+03 -0.32197145788E+02  0.73479881272E+03  0.77008108457E+03  0.17300000000E+03 0. -1.
<mgrwt>
<rscale>  2 0.23042479E+03</rscale>
<asrwt>0</asrwt>
<pdfrwt beam="1">  1       21 0.11778962E+00 0.23042479E+03</pdfrwt>
<pdfrwt beam="2">  1       21 0.15750855E+00 0.23042479E+03</pdfrwt>
<totfact> 0.13848847E+02</totfact>
</mgrwt>
</event>
<event>
 4    1  0.4023583E+000  0.1917619E+03  0.7546771E-02  0.1156882E+00
         21   -1    0    0  501  502  0.00000000000E+00  0.00000000000E+00  0.35791851404E+02  0.35791851404E+02  0.00000000000E+00 0.  1.
         21   -1    0    0  502  503 -0.00000000000E+00 -0.00000000000E+00 -0.10452503018E+04  0.10452503018E+04  0.00000000000E+00 0.  1.
          6    1    1    2  501    0 -0.12039207703E+02  0.81845601953E+02 -0.57535973008E+03  0.60647461949E+03  0.17300000000E+03 0.  1.
         -6    1    1    2    0  503  0.12039207703E+02 -0.81845601953E+02 -0.43409872031E+03  0.47456753372E+03  0.17300000000E+03 0.  1.
<mgrwt>
<rscale>  2 0.19176195E+03</rscale>
<asrwt>0</asrwt>
<pdfrwt beam="1">  1       21 0.55064379E-02 0.19176195E+03</pdfrwt>
<pdfrwt beam="2">  1       21 0.16080776E+00 0.19176195E+03</pdfrwt>
<totfact> 0.56718133E+04</totfact>
</mgrwt>
</event>
<event>
 4    1  0.4023583E+000  0.1805841E+03  0.7546771E-02  0.1167239E+00
         21   -1    0    0  503  502  0.00000000000E+00  0.00000000000E+00  0.68329414631E+03  0.68329414631E+03  0.00000000000E+00 0.  1.
         21   -1    0    0  501  503 -0.00000000000E+00 -0.00000000000E+00 -0.52023947085E+02  0.52023947085E+02  0.00000000000E+00 0.  1.
          6    1    1    2  501    0 -0.29340071881E+02  0.42670772821E+02  0.20995493212E+03  0.27693267809E+03  0.17300000000E+03 0.  1.
         -6    1    1    2    0  502  0.29340071881E+02 -0.42670772821E+02  0.42131526710E+03  0.45838541530E+03  0.17300000000E+03 0.  1.
<mgrwt>
<rscale>  2 0.18058415E+03</rscale>
<asrwt>0</asrwt>
<pdfrwt beam="1">  1       21 0.10512217E+00 0.18058415E+03</pdfrwt>
<pdfrwt beam="2">  1       21 0.80036846E-02 0.18058415E+03</pdfrwt>
<totfact> 0.87817683E+04</totfact>
</mgrwt>
</event>
<event>
 4    1  0.4023583E+000  0.2791640E+03  0.7546771E-02  0.1096146E+00
         21   -1    0    0  503  502  0.00000000000E+00  0.00000000000E+00  0.97983087673E+02  0.97983087673E+02  0.00000000000E+00 0. -1.
         21   -1    0    0  501  503 -0.00000000000E+00 -0.00000000000E+00 -0.22003622644E+04  0.22003622644E+04  0.00000000000E+00 0.  1.
          6    1    1    2  501    0  0.21788337221E+03 -0.23029663694E+02 -0.19694705998E+04  0.19891573525E+04  0.17300000000E+03 0.  1.
         -6    1    1    2    0  502 -0.21788337221E+03  0.23029663694E+02 -0.13290857693E+03  0.30918799964E+03  0.17300000000E+03 0. -1.
<mgrwt>
<rscale>  2 0.27916398E+03</rscale>
<asrwt>0</asrwt>
<pdfrwt beam="1">  1       21 0.15074322E-01 0.27916398E+03</pdfrwt>
<pdfrwt beam="2">  1       21 0.33851725E+00 0.27916398E+03</pdfrwt>
<totfact> 0.71470187E+02</totfact>
</mgrwt>
</event>
<event>
 4    1  0.4023583E+000  0.2003332E+03  0.7546771E-02  0.1149458E+00
         21   -1    0    0  503  502  0.00000000000E+00  0.00000000000E+00  0.24468615992E+04  0.24468615992E+04  0.00000000000E+00 0. -1.
         21   -1    0    0  501  503 -0.00000000000E+00 -0.00000000000E+00 -0.26735380069E+02  0.26735380069E+02  0.00000000000E+00 0.  1.
          6    1    1    2  501    0 -0.45983365036E+01 -0.10091203863E+03  0.44114992513E+03  0.48450659508E+03  0.17300000000E+03 0.  1.
         -6    1    1    2    0  502  0.45983365036E+01  0.10091203863E+03  0.19789762940E+04  0.19890903842E+04  0.17300000000E+03 0. -1.
<mgrwt>
<rscale>  2 0.20033318E+03</rscale>
<asrwt>0</asrwt>
<pdfrwt beam="1">  1       21 0.37644007E+00 0.20033318E+03</pdfrwt>
<pdfrwt beam="2">  1       21 0.41131373E-02 0.20033318E+03</pdfrwt>
<totfact> 0.44994080E+03</totfact>
</mgrwt>
</event>
<event>
 4    1  0.4023583E+000  0.2225975E+03  0.7546771E-02  0.1131961E+00
         21   -1    0    0  503  502  0.00000000000E+00  0.00000000000E+00  0.52421404684E+03  0.52421404684E+03  0.00000000000E+00 0. -1.
         21   -1    0    0  501  503 -0.00000000000E+00 -0.00000000000E+00 -0.97444439288E+02  0.97444439288E+02  0.00000000000E+00 0. -1.
          6    1    1    2  501    0  0.13542789649E+03  0.35776312088E+02  0.15955406611E+03  0.27387435014E+03  0.17300000000E+03 0. -1.
         -6    1    1    2    0  502 -0.13542789649E+03 -0.35776312088E+02  0.26721554144E+03  0.34778413598E+03  0.17300000000E+03 0. -1.
<mgrwt>
<rscale>  2 0.22259753E+03</rscale>
<asrwt>0</asrwt>
<pdfrwt beam="1">  1       21 0.80648313E-01 0.22259753E+03</pdfrwt>
<pdfrwt beam="2">  1       21 0.14991452E-01 0.22259753E+03</pdfrwt>
<totfact> 0.52277999E+04</totfact>
</mgrwt>
</event>
<event>
 4    1  0.4023583E+000  0.2147187E+03  0.7546771E-02  0.1137883E+00
         21   -1    0    0  503  502  0.00000000000E+00  0.00000000000E+00  0.54320622137E+03  0.54320622137E+03  0.00000000000E+00 0. -1.
         21   -1    0    0  501  503 -0.00000000000E+00 -0.00000000000E+00 -0.32580435965E+03  0.32580435965E+03  0.00000000000E+00 0.  1.
          6    1    1    2  501    0  0.82357363862E+02 -0.96914392142E+02 -0.26494676171E+03  0.34102920890E+03  0.17300000000E+03 0.  1.
         -6    1    1    2    0  502 -0.82357363862E+02  0.96914392142E+02  0.48234862342E+03  0.52798137212E+03  0.17300000000E+03 0. -1.
<mgrwt>
<rscale>  2 0.21471873E+03</rscale>
<asrwt>0</asrwt>
<pdfrwt beam="1">  1       21 0.83570188E-01 0.21471873E+03</pdfrwt>
<pdfrwt beam="2">  1       21 0.50123748E-01 0.21471873E+03</pdfrwt>
<totfact> 0.46419447E+03</totfact>
</mgrwt>
</event>
<event>
 4    1  0.4023583E+000  0.2377027E+03  0.7546771E-02  0.1121333E+00
         21   -1    0    0  501  502  0.00000000000E+00  0.00000000000E+00  0.33591222422E+03  0.33591222422E+03  0.00000000000E+00 0.  1.
         21   -1    0    0  502  503 -0.00000000000E+00 -0.00000000000E+00 -0.32952902864E+03  0.32952902864E+03  0.00000000000E+00 0. -1.
          6    1    1    2  501    0  0.51126730100E+02 -0.15478904304E+03  0.23599027762E+03  0.33495373040E+03  0.17300000000E+03 0.  1.
         -6    1    1    2    0  503 -0.51126730100E+02  0.15478904304E+03 -0.22960708205E+03  0.33048752246E+03  0.17300000000E+03 0. -1.
<mgrwt>
<rscale>  2 0.23770274E+03</rscale>
<asrwt>0</asrwt>
<pdfrwt beam="1">  1       21 0.51678803E-01 0.23770274E+03</pdfrwt>
<pdfrwt beam="2">  1       21 0.50696774E-01 0.23770274E+03</pdfrwt>
<totfact> 0.12807180E+04</totfact>
</mgrwt>
</event>
<event>
 4    1  0.4023583E+000  0.2188621E+03  0.7546771E-02  0.1134734E+00
         21   -1    0    0  503  502  0.00000000000E+00  0.00000000000E+00  0.26984959678E+03  0.26984959678E+03  0.00000000000E+00 0. -1.
         21   -1    0    0  501  503 -0.00000000000E+00 -0.00000000000E+00 -0.24535424884E+03  0.24535424884E+03  0.00000000000E+00 0.  1.
          6    1    1    2  501    0 -0.95977521036E+02  0.93594634813E+02 -0.12321296451E+03  0.25116145173E+03  0.17300000000E+03 0.  1.
         -6    1    1    2    0  502  0.95977521036E+02 -0.93594634813E+02  0.14770831244E+03  0.26404239390E+03  0.17300000000E+03 0. -1.
<mgrwt>
<rscale>  2 0.21886215E+03</rscale>
<asrwt>0</asrwt>
<pdfrwt beam="1">  1       21 0.41515323E-01 0.21886215E+03</pdfrwt>
<pdfrwt beam="2">  1       21 0.37746807E-01 0.21886215E+03</pdfrwt>
<totfact> 0.37312280E+04</totfact>
</mgrwt>
</event>
<event>
 4    1  0.4023583E+000  0.3394054E+03  0.7546771E-02  0.1067049E+00
         21   -1    0    0  503  502  0.00000000000E+00  0.00000000000E+00  0.74295656162E+03  0.74295656162E+03  0.00000000000E+00 0.  1.
         21   -1    0    0  501  503 -0.00000000000E+00 -0.00000000000E+00 -0.24889206294E+03  0.24889206294E+03  0.00000000000E+00 0. -1.
          6    1    1    2  501    0 -0.29183112688E+03 -0.10081524262E+02  0.55154584723E+03  0.64761011832E+03  0.17300000000E+03 0.  1.
         -6    1    1    2    0  502  0.29183112688E+03  0.10081524262E+02 -0.57481348556E+02  0.34423850624E+03  0.17300000000E+03 0. -1.
<mgrwt>
<rscale>  2 0.33940543E+03</rscale>
<asrwt>0</asrwt>
<pdfrwt beam="1">  1       21 0.11430101E+00 0.33940543E+03</pdfrwt>
<pdfrwt beam="2">  1       21 0.38291087E-01 0.33940543E+03</pdfrwt>
<totfact> 0.35640799E+03</totfact>
</mgrwt>
</event>
<event>
 4    1  0.4023583E+000  0.3755008E+03  0.7546771E-02  0.1052609E+00
         21   -1    0    0  503  502  0.00000000000E+00  0.00000000000E+00  0.13717122479E+04  0.13717122479E+04  0.00000000000E+00 0. -1.
         21   -1    0    0  501  503 -0.00000000000E+00 -0.00000000000E+00 -0.11863883624E+03  0.11863883624E+03  0.00000000000E+00 0.  1.
          6    1    1    2  501    0  0.14625459821E+03  0.29946856583E+03  0.35419221431E+03  0.51619081171E+03  0.17300000000E+03 0.  1.
         -6    1    1    2    0  502 -0.14625459821E+03 -0.29946856583E+03  0.89888119734E+03  0.97416027242E+03  0.17300000000E+03 0.  1.
<mgrwt>
<rscale>  2 0.37550077E+03</rscale>
<asrwt>0</asrwt>
<pdfrwt beam="1">  1       21 0.21103264E+00 0.37550077E+03</pdfrwt>
<pdfrwt beam="2">  1       21 0.18252130E-01 0.37550077E+03</pdfrwt>
<totfact> 0.27437645E+03</totfact>
</mgrwt>
</event>
<event>
 4    1  0.4023583E+000  0.1778598E+03  0.7546771E-02  0.1169891E+00
         21   -1    0    0  501  502  0.00000000000E+00  0.00000000000E+00  0.53411993049E+03  0.53411993049E+03  0.00000000000E+00 0.  1.
         21   -1    0    0  502  503 -0.00000000000E+00 -0.00000000000E+00 -0.59868697972E+02  0.59868697972E+02  0.00000000000E+00 0.  1.
          6    1    1    2  501    0 -0.20215751386E+02 -0.36006084129E+02  0.26788263974E+03  0.32155127643E+03  0.17300000000E+03 0.  1.
         -6    1    1    2    0  503  0.20215751386E+02  0.36006084129E+02  0.20636859278E+03  0.27243735203E+03  0.17300000000E+03 0.  1.
<mgrwt>
<rscale>  2 0.17785982E+03</rscale>
<asrwt>0</asrwt>
<pdfrwt beam="1">  1       21 0.82172294E-01 0.17785982E+03</pdfrwt>
<pdfrwt beam="2">  1       21 0.92105693E-02 0.17785982E+03</pdfrwt>
<totfact> 0.12207266E+05</totfact>
</mgrwt>
</event>
<event>
 4    1  0.4023583E+000  0.2365725E+03  0.7546771E-02  0.1122097E+00
         21   -1    0    0  503  502  0.00000000000E+00  0.00000000000E+00  0.44506270147E+03  0.44506270147E+03  0.00000000000E+00 0.  1.
         21   -1    0    0  501  503 -0.00000000000E+00 -0.00000000000E+00 -0.14714204978E+03  0.14714204978E+03  0.00000000000E+00 0. -1.
          6    1    1    2  501    0 -0.16128843552E+03 -0.48548379389E+01  0.36058203804E+02  0.23930466553E+03  0.17300000000E+03 0.  1.
         -6    1    1    2    0  502  0.16128843552E+03  0.48548379389E+01  0.26186244788E+03  0.35290008571E+03  0.17300000000E+03 0.  1.
<mgrwt>
<rscale>  2 0.23657246E+03</rscale>
<asrwt>0</asrwt>
<pdfrwt beam="1">  1       21 0.68471184E-01 0.23657246E+03</pdfrwt>
<pdfrwt beam="2">  1       21 0.22637239E-01 0.23657246E+03</pdfrwt>
<totfact> 0.34799552E+04</totfact>
</mgrwt>
</event>
<event>
 4    1  0.4023583E+000  0.3265525E+03  0.7546771E-02  0.1072673E+00
         21   -1    0    0  501  502  0.00000000000E+00  0.00000000000E+00  0.22250347387E+03  0.22250347387E+03  0.00000000000E+00 0.  1.
         21   -1    0    0  502  503 -0.00000000000E+00 -0.00000000000E+00 -0.60033767006E+03  0.60033767006E+03  0.00000000000E+00 0.  1.
          6    1    1    2  501    0 -0.21030614284E+03 -0.18021886843E+03 -0.37368403910E+03  0.49626230497E+03  0.17300000000E+03 0.  1.
         -6    1    1    2    0  503  0.21030614284E+03  0.18021886843E+03 -0.41501570798E+01  0.32657883896E+03  0.17300000000E+03 0.  1.
<mgrwt>
<rscale>  2 0.32655247E+03</rscale>
<asrwt>0</asrwt>
<pdfrwt beam="1">  1       21 0.34231304E-01 0.32655247E+03</pdfrwt>
<pdfrwt beam="2">  1       21 0.92359641E-01 0.32655247E+03</pdfrwt>
<totfact> 0.75372531E+03</totfact>
</mgrwt>
</event>
<event>
 4    1  0.4023583E+000  0.2018301E+03  0.7546771E-02  0.1148204E+00
         21   -1    0    0  503  502  0.00000000000E+00  0.00000000000E+00  0.12025617720E+03  0.12025617720E+03  0.00000000000E+00 0.  1.
         21   -1    0    0  501  503 -0.00000000000E+00 -0.00000000000E+00 -0.34776372151E+03  0.34776372151E+03  0.00000000000E+00 0.  1.
          6    1    1    2  501    0  0.22901588809E+02 -0.10139975322E+03 -0.15145209176E+03  0.25233534993E+03  0.17300000000E+03 0.  1.
         -6    1    1    2    0  502 -0.22901588809E+02  0.10139975322E+03 -0.76055452546E+02  0.21568454879E+03  0.17300000000E+03 0.  1.
<mgrwt>
<rscale>  2 0.20183011E+03</rscale>
<asrwt>0</asrwt>
<pdfrwt beam="1">  1       21 0.18500950E-01 0.20183011E+03</pdfrwt>
<pdfrwt beam="2">  1       21 0.53502111E-01 0.20183011E+03</pdfrwt>
<totfact> 0.87889312E+04</totfact>
</mgrwt>
</event>
<event>
 4    1  0.4023583E+000  0.2936007E+03  0.7546771E-02  0.1088484E+00
         21   -1    0    0  501  502  0.00000000000E+00  0.00000000000E+00  0.32919457893E+03  0.32919457893E+03  0.00000000000E+00 0. -1.
         21   -1    0    0  502  503 -0.00000000000E+00 -0.00000000000E+00 -0.33151133046E+03  0.33151133046E+03  0.00000000000E+00 0.  1.
          6    1    1    2  501    0 -0.94618960644E+02 -0.21753077791E+03  0.15027024679E+03  0.32982197338E+03  0.17300000000E+03 0. -1.
         -6    1    1    2    0  503  0.94618960644E+02  0.21753077791E+03 -0.15258699832E+03  0.33088393601E+03  0.17300000000E+03 0.  1.
<mgrwt>
<rscale>  2 0.29360073E+03</rscale>
<asrwt>0</asrwt>
<pdfrwt beam="1">  1       21 0.50645320E-01 0.29360073E+03</pdfrwt>
<pdfrwt beam="2">  1       21 0.51001743E-01 0.29360073E+03</pdfrwt>
<totfact> 0.12838245E+04</totfact>
</mgrwt>
</event>
<event>
 4    1  0.4023583E+000  0.1846263E+03  0.7546771E-02  0.1163399E+00
         21   -1    0    0  501  502  0.00000000000E+00  0.00000000000E+00  0.58395378124E+03  0.58395378124E+03  0.00000000000E+00 0. -1.
         21   -1    0    0  502  503 -0.00000000000E+00 -0.00000000000E+00 -0.17684630323E+03  0.17684630323E+03  0.00000000000E+00 0.  1.
          6    1    1    2  501    0  0.54200675555E+02  0.34930488195E+02  0.51490719945E+03  0.54700665104E+03  0.17300000000E+03 0. -1.
         -6    1    1    2    0  503 -0.54200675555E+02 -0.34930488195E+02 -0.10779972144E+03  0.21379343343E+03  0.17300000000E+03 0.  1.
<mgrwt>
<rscale>  2 0.18462625E+03</rscale>
<asrwt>0</asrwt>
<pdfrwt beam="1">  1       21 0.89839043E-01 0.18462625E+03</pdfrwt>
<pdfrwt beam="2">  1       21 0.27207124E-01 0.18462625E+03</pdfrwt>
<totfact> 0.13657840E+04</totfact>
</mgrwt>
</event>
<event>
 4    1  0.4023583E+000  0.1850131E+03  0.7546771E-02  0.1163038E+00
         21   -1    0    0  503  502  0.00000000000E+00  0.00000000000E+00  0.92287902009E+02  0.92287902009E+02  0.00000000000E+00 0.  1.
         21   -1    0    0  501  503 -0.00000000000E+00 -0.00000000000E+00 -0.37422377244E+03  0.37422377244E+03  0.00000000000E+00 0.  1.
          6    1    1    2  501    0  0.35396171019E+02  0.55208372197E+02 -0.16294101600E+03  0.24653524693E+03  0.17300000000E+03 0.  1.
         -6    1    1    2    0  502 -0.35396171019E+02 -0.55208372197E+02 -0.11899485444E+03  0.21997642752E+03  0.17300000000E+03 0.  1.
<mgrwt>
<rscale>  2 0.18501312E+03</rscale>
<asrwt>0</asrwt>
<pdfrwt beam="1">  1       21 0.14198139E-01 0.18501312E+03</pdfrwt>
<pdfrwt beam="2">  1       21 0.57572888E-01 0.18501312E+03</pdfrwt>
<totfact> 0.12302692E+05</totfact>
</mgrwt>
</event>
<event>
 4    1  0.4023583E+000  0.2268321E+03  0.7546771E-02  0.1128890E+00
         21   -1    0    0  503  502  0.00000000000E+00  0.00000000000E+00  0.12635630284E+03  0.12635630284E+03  0.00000000000E+00 0.  1.
         21   -1    0    0  501  503 -0.00000000000E+00 -0.00000000000E+00 -0.54200550169E+03  0.54200550169E+03  0.00000000000E+00 0. -1.
          6    1    1    2  501    0 -0.81275991099E+02  0.12213930766E+03 -0.37448294944E+03  0.43782448153E+03  0.17300000000E+03 0. -1.
         -6    1    1    2    0  502  0.81275991099E+02 -0.12213930766E+03 -0.41166249409E+02  0.23053732300E+03  0.17300000000E+03 0.  1.
<mgrwt>
<rscale>  2 0.22683209E+03</rscale>
<asrwt>0</asrwt>
<pdfrwt beam="1">  1       21 0.19439431E-01 0.22683209E+03</pdfrwt>
<pdfrwt beam="2">  1       21 0.83385463E-01 0.22683209E+03</pdfrwt>
<totfact> 0.29916110E+04</totfact>
</mgrwt>
</event>
<event>
 4    1  0.4023583E+000  0.3400112E+03  0.7546771E-02  0.1066791E+00
         21   -1    0    0  503  502  0.00000000000E+00  0.00000000000E+00  0.37188069786E+03  0.37188069786E+03  0.00000000000E+00 0.  1.
         21   -1    0    0  501  503 -0.00000000000E+00 -0.00000000000E+00 -0.32792864163E+03  0.32792864163E+03  0.00000000000E+00 0. -1.
          6    1    1    2  501    0 -0.29245722409E+03  0.12141066816E+02 -0.57822574162E+02  0.34489285802E+03  0.17300000000E+03 0. -1.
         -6    1    1    2    0  502  0.29245722409E+03 -0.12141066816E+02  0.10177463039E+03  0.35491648147E+03  0.17300000000E+03 0.  1.
<mgrwt>
<rscale>  2 0.34001123E+03</rscale>
<asrwt>0</asrwt>
<pdfrwt beam="1">  1       21 0.57212415E-01 0.34001123E+03</pdfrwt>
<pdfrwt beam="2">  1       21 0.50450560E-01 0.34001123E+03</pdfrwt>
<totfact> 0.99318586E+03</totfact>
</mgrwt>
</event>
<event>
 4    1  0.4023583E+000  0.2407549E+03  0.7546771E-02  0.1119291E+00
         21   -1    0    0  503  502  0.00000000000E+00  0.00000000000E+00  0.49800358121E+03  0.49800358121E+03  0.00000000000E+00 0.  1.
         21   -1    0    0  501  503 -0.00000000000E+00 -0.00000000000E+00 -0.12561393961E+03  0.12561393961E+03  0.00000000000E+00 0.  1.
          6    1    1    2  501    0  0.16714122686E+03 -0.98867443018E+01  0.10170324520E+03  0.26135509850E+03  0.17300000000E+03 0.  1.
         -6    1    1    2    0  502 -0.16714122686E+03  0.98867443018E+01  0.27068639640E+03  0.36226242232E+03  0.17300000000E+03 0.  1.
<mgrwt>
<rscale>  2 0.24075493E+03</rscale>
<asrwt>0</asrwt>
<pdfrwt beam="1">  1       21 0.76615935E-01 0.24075493E+03</pdfrwt>
<pdfrwt beam="2">  1       21 0.19325222E-01 0.24075493E+03</pdfrwt>
<totfact> 0.36422748E+04</totfact>
</mgrwt>
</event>
<event>
 4    1  0.4023583E+000  0.2128176E+03  0.7546771E-02  0.1139354E+00
         21   -1    0    0  501  502  0.00000000000E+00  0.00000000000E+00  0.17579347682E+03  0.17579347682E+03  0.00000000000E+00 0. -1.
         21   -1    0    0  502  503 -0.00000000000E+00 -0.00000000000E+00 -0.25930362118E+03  0.25930362118E+03  0.00000000000E+00 0. -1.
          6    1    1    2  501    0  0.79745414158E+02  0.94884053522E+02 -0.59183801874E+02  0.22089372353E+03  0.17300000000E+03 0. -1.
         -6    1    1    2    0  503 -0.79745414158E+02 -0.94884053522E+02 -0.24326342490E+02  0.21420337446E+03  0.17300000000E+03 0. -1.
<mgrwt>
<rscale>  2 0.21281756E+03</rscale>
<asrwt>0</asrwt>
<pdfrwt beam="1">  1       21 0.27045150E-01 0.21281756E+03</pdfrwt>
<pdfrwt beam="2">  1       21 0.39892865E-01 0.21281756E+03</pdfrwt>
<totfact> 0.78220766E+04</totfact>
</mgrwt>
</event>
<event>
 4    1  0.4023583E+000  0.1904283E+03  0.7546771E-02  0.1158076E+00
         21   -1    0    0  501  502  0.00000000000E+00  0.00000000000E+00  0.45855591183E+03  0.45855591183E+03  0.00000000000E+00 0.  1.
         21   -1    0    0  502  503 -0.00000000000E+00 -0.00000000000E+00 -0.88768746682E+02  0.88768746682E+02  0.00000000000E+00 0.  1.
          6    1    1    2  501    0 -0.75993451847E+02  0.23641727439E+02  0.94486505925E+02  0.21258089237E+03  0.17300000000E+03 0.  1.
         -6    1    1    2    0  503  0.75993451847E+02 -0.23641727439E+02  0.27530065922E+03  0.33474376614E+03  0.17300000000E+03 0.  1.
<mgrwt>
<rscale>  2 0.19042830E+03</rscale>
<asrwt>0</asrwt>
<pdfrwt beam="1">  1       21 0.70547062E-01 0.19042830E+03</pdfrwt>
<pdfrwt beam="2">  1       21 0.13656731E-01 0.19042830E+03</pdfrwt>
<totfact> 0.84784672E+04</totfact>
</mgrwt>
</event>
<event>
 4    1  0.4023583E+000  0.2208564E+03  0.7546771E-02  0.1133246E+00
         21   -1    0    0  501  502  0.00000000000E+00  0.00000000000E+00  0.11514661658E+03  0.11514661658E+03  0.00000000000E+00 0.  1.
         21   -1    0    0  502  503 -0.00000000000E+00 -0.00000000000E+00 -0.43496194014E+03  0.43496194014E+03  0.00000000000E+00 0.  1.
          6    1    1    2  501    0  0.11374784608E+03  0.76876349034E+02 -0.11547727511E+03  0.24922388849E+03  0.17300000000E+03 0.  1.
         -6    1    1    2    0  503 -0.11374784608E+03 -0.76876349034E+02 -0.20433804845E+03  0.30088466823E+03  0.17300000000E+03 0.  1.
<mgrwt>
<rscale>  2 0.22085639E+03</rscale>
<asrwt>0</asrwt>
<pdfrwt beam="1">  1       21 0.17714864E-01 0.22085639E+03</pdfrwt>
<pdfrwt beam="2">  1       21 0.66917221E-01 0.22085639E+03</pdfrwt>
<totfact> 0.58385941E+04</totfact>
</mgrwt>
</event>
<event>
 4    1  0.4023583E+000  0.1883620E+03  0.7546771E-02  0.1159947E+00
         21   -1    0    0  501  502  0.00000000000E+00  0.00000000000E+00  0.61151492450E+03  0.61151492450E+03  0.00000000000E+00 0.  1.
         21   -1    0    0  502  503 -0.00000000000E+00 -0.00000000000E+00 -0.28119766914E+03  0.28119766914E+03  0.00000000000E+00 0.  1.
          6    1    1    2  501    0  0.71146155377E+02  0.22123851235E+02  0.56280859101E+03  0.59349283933E+03  0.17300000000E+03 0.  1.
         -6    1    1    2    0  503 -0.71146155377E+02 -0.22123851235E+02 -0.23249133565E+03  0.29921975431E+03  0.17300000000E+03 0.  1.
<mgrwt>
<rscale>  2 0.18836199E+03</rscale>
<asrwt>0</asrwt>
<pdfrwt beam="1">  1       21 0.94079219E-01 0.18836199E+03</pdfrwt>
<pdfrwt beam="2">  1       21 0.43261180E-01 0.18836199E+03</pdfrwt>
<totfact> 0.48849153E+03</totfact>
</mgrwt>
</event>
<event>
 4    1  0.4023583E+000  0.2082005E+03  0.7546771E-02  0.1142999E+00
         21   -1    0    0  503  502  0.00000000000E+00  0.00000000000E+00  0.12033026490E+03  0.12033026490E+03  0.00000000000E+00 0.  1.
         21   -1    0    0  501  503 -0.00000000000E+00 -0.00000000000E+00 -0.38277657778E+03  0.38277657778E+03  0.00000000000E+00 0.  1.
          6    1    1    2  501    0  0.29082863707E+02  0.11212785418E+03 -0.19226477417E+03  0.28339585747E+03  0.17300000000E+03 0.  1.
         -6    1    1    2    0  502 -0.29082863707E+02 -0.11212785418E+03 -0.70181538713E+02  0.21971098521E+03  0.17300000000E+03 0.  1.
<mgrwt>
<rscale>  2 0.20820055E+03</rscale>
<asrwt>0</asrwt>
<pdfrwt beam="1">  1       21 0.18512349E-01 0.20820055E+03</pdfrwt>
<pdfrwt beam="2">  1       21 0.58888703E-01 0.20820055E+03</pdfrwt>
<totfact> 0.71394825E+04</totfact>
</mgrwt>
</event>
<event>
 4    1  0.4023583E+000  0.1766037E+03  0.7546771E-02  0.1171131E+00
         21   -1    0    0  501  502  0.00000000000E+00  0.00000000000E+00  0.29797094248E+03  0.29797094248E+03  0.00000000000E+00 0. -1.
         21   -1    0    0  502  503 -0.00000000000E+00 -0.00000000000E+00 -0.23244343321E+03  0.23244343321E+03  0.00000000000E+00 0. -1.
          6    1    1    2  501    0  0.31347898365E+02 -0.16648501633E+02  0.22939183338E+03  0.28949866418E+03  0.17300000000E+03 0. -1.
         -6    1    1    2    0  503 -0.31347898365E+02  0.16648501633E+02 -0.16386432411E+03  0.24091571151E+03  0.17300000000E+03 0. -1.
<mgrwt>
<rscale>  2 0.17660369E+03</rscale>
<asrwt>0</asrwt>
<pdfrwt beam="1">  1       21 0.45841683E-01 0.17660369E+03</pdfrwt>
<pdfrwt beam="2">  1       21 0.35760528E-01 0.17660369E+03</pdfrwt>
<totfact> 0.34685119E+04</totfact>
</mgrwt>
</event>
<event>
 4    1  0.4023583E+000  0.2574700E+03  0.7546771E-02  0.1108673E+00
         21   -1    0    0  503  502  0.00000000000E+00  0.00000000000E+00  0.11552912048E+03  0.11552912048E+03  0.00000000000E+00 0.  1.
         21   -1    0    0  501  503 -0.00000000000E+00 -0.00000000000E+00 -0.11880776102E+04  0.11880776102E+04  0.00000000000E+00 0. -1.
          6    1    1    2  501    0  0.71334961620E+02  0.17684201922E+03 -0.10049538164E+04  0.10374116587E+04  0.17300000000E+03 0. -1.
         -6    1    1    2    0  502 -0.71334961620E+02 -0.17684201922E+03 -0.67594673388E+02  0.26619507205E+03  0.17300000000E+03 0.  1.
<mgrwt>
<rscale>  2 0.25746995E+03</rscale>
<asrwt>0</asrwt>
<pdfrwt beam="1">  1       21 0.17773711E-01 0.25746995E+03</pdfrwt>
<pdfrwt beam="2">  1       21 0.18278117E+00 0.25746995E+03</pdfrwt>
<totfact> 0.47565755E+03</totfact>
</mgrwt>
</event>
<event>
 4    1  0.4023583E+000  0.2221834E+03  0.7546771E-02  0.1132266E+00
         21   -1    0    0  503  502  0.00000000000E+00  0.00000000000E+00  0.10257284359E+03  0.10257284359E+03  0.00000000000E+00 0.  1.
         21   -1    0    0  501  503 -0.00000000000E+00 -0.00000000000E+00 -0.58143541600E+03  0.58143541600E+03  0.00000000000E+00 0. -1.
          6    1    1    2  501    0  0.11480982023E+02  0.13894121046E+03 -0.38138096901E+03  0.44138069332E+03  0.17300000000E+03 0. -1.
         -6    1    1    2    0  502 -0.11480982023E+02 -0.13894121046E+03 -0.97481603400E+02  0.24262756627E+03  0.17300000000E+03 0.  1.
<mgrwt>
<rscale>  2 0.22218342E+03</rscale>
<asrwt>0</asrwt>
<pdfrwt beam="1">  1       21 0.15780437E-01 0.22218342E+03</pdfrwt>
<pdfrwt beam="2">  1       21 0.89451605E-01 0.22218342E+03</pdfrwt>
<totfact> 0.37522683E+04</totfact>
</mgrwt>
</event>
<event>
 4    1  0.4023583E+000  0.2206605E+03  0.7546771E-02  0.1133392E+00
         21   -1    0    0  501  502  0.00000000000E+00  0.00000000000E+00  0.42174318892E+03  0.42174318892E+03  0.00000000000E+00 0. -1.
         21   -1    0    0  502  503 -0.00000000000E+00 -0.00000000000E+00 -0.13094545407E+03  0.13094545407E+03  0.00000000000E+00 0. -1.
          6    1    1    2  501    0 -0.55867793719E+02 -0.12506330683E+03  0.24045523975E+03  0.32635833590E+03  0.17300000000E+03 0. -1.
         -6    1    1    2    0  503  0.55867793719E+02  0.12506330683E+03  0.50342495102E+02  0.22633030708E+03  0.17300000000E+03 0. -1.
<mgrwt>
<rscale>  2 0.22066047E+03</rscale>
<asrwt>0</asrwt>
<pdfrwt beam="1">  1       21 0.64883567E-01 0.22066047E+03</pdfrwt>
<pdfrwt beam="2">  1       21 0.20145455E-01 0.22066047E+03</pdfrwt>
<totfact> 0.49161550E+04</totfact>
</mgrwt>
</event>
<event>
 4    1  0.4023583E+000  0.2092744E+03  0.7546771E-02  0.1142142E+00
         21   -1    0    0  501  502  0.00000000000E+00  0.00000000000E+00  0.61568672848E+02  0.61568672848E+02  0.00000000000E+00 0. -1.
         21   -1    0    0  502  503 -0.00000000000E+00 -0.00000000000E+00 -0.73874500861E+03  0.73874500861E+03  0.00000000000E+00 0. -1.
          6    1    1    2  501    0 -0.72578211668E+02 -0.92731810446E+02 -0.26150510468E+03  0.33493388191E+03  0.17300000000E+03 0. -1.
         -6    1    1    2    0  503  0.72578211668E+02  0.92731810446E+02 -0.41567123108E+03  0.46537979954E+03  0.17300000000E+03 0. -1.
<mgrwt>
<rscale>  2 0.20927443E+03</rscale>
<asrwt>0</asrwt>
<pdfrwt beam="1">  1       21 0.94721041E-02 0.20927443E+03</pdfrwt>
<pdfrwt beam="2">  1       21 0.11365307E+00 0.20927443E+03</pdfrwt>
<totfact> 0.53412881E+04</totfact>
</mgrwt>
</event>
<event>
 4    1  0.4023583E+000  0.1848170E+03  0.7546771E-02  0.1163221E+00
         21   -1    0    0  501  502  0.00000000000E+00  0.00000000000E+00  0.34842128926E+02  0.34842128926E+02  0.00000000000E+00 0.  1.
         21   -1    0    0  502  503 -0.00000000000E+00 -0.00000000000E+00 -0.99517004878E+03  0.99517004878E+03  0.00000000000E+00 0.  1.
          6    1    1    2  501    0 -0.23060515738E+02  0.60799138351E+02 -0.54302117979E+03  0.57361077772E+03  0.17300000000E+03 0. -1.
         -6    1    1    2    0  503  0.23060515738E+02 -0.60799138351E+02 -0.41730674006E+03  0.45640139999E+03  0.17300000000E+03 0. -1.
<mgrwt>
<rscale>  2 0.18481700E+03</rscale>
<asrwt>0</asrwt>
<pdfrwt beam="1">  1       21 0.53603287E-02 0.18481700E+03</pdfrwt>
<pdfrwt beam="2">  1       21 0.15310305E+00 0.18481700E+03</pdfrwt>
<totfact> 0.67959760E+04</totfact>
</mgrwt>
</event>
<event>
 4    1  0.4023583E+000  0.1752081E+03  0.7546771E-02  0.1172523E+00
         21   -1    0    0  501  502  0.00000000000E+00  0.00000000000E+00  0.18757962018E+04  0.18757962018E+04  0.00000000000E+00 0. -1.
         21   -1    0    0  502  503 -0.00000000000E+00 -0.00000000000E+00 -0.21288204176E+02  0.21288204176E+02  0.00000000000E+00 0. -1.
          6    1    1    2  501    0 -0.26763999699E+02  0.72492403317E+01  0.13833962395E+04  0.13944472089E+04  0.17300000000E+03 0. -1.
         -6    1    1    2    0  503  0.26763999699E+02 -0.72492403317E+01  0.47111175816E+03  0.50263719704E+03  0.17300000000E+03 0. -1.
<mgrwt>
<rscale>  2 0.17520806E+03</rscale>
<asrwt>0</asrwt>
<pdfrwt beam="1">  1       21 0.28858390E+00 0.17520806E+03</pdfrwt>
<pdfrwt beam="2">  1       21 0.32751098E-02 0.17520806E+03</pdfrwt>
<totfact> 0.22105626E+04</totfact>
</mgrwt>
</event>
<event>
 4    1  0.4023583E+000  0.2324573E+03  0.7546771E-02  0.1124922E+00
         21   -1    0    0  503  502  0.00000000000E+00  0.00000000000E+00  0.23046297210E+03  0.23046297210E+03  0.00000000000E+00 0. -1.
         21   -1    0    0  501  503 -0.00000000000E+00 -0.00000000000E+00 -0.34797641062E+03  0.34797641062E+03  0.00000000000E+00 0.  1.
          6    1    1    2  501    0 -0.88140803652E+02  0.12782254466E+03 -0.22393966906E+03  0.32277760079E+03  0.17300000000E+03 0.  1.
         -6    1    1    2    0  502  0.88140803652E+02 -0.12782254466E+03  0.10642623054E+03  0.25566178193E+03  0.17300000000E+03 0. -1.
<mgrwt>
<rscale>  2 0.23245732E+03</rscale>
<asrwt>0</asrwt>
<pdfrwt beam="1">  1       21 0.35455842E-01 0.23245732E+03</pdfrwt>
<pdfrwt beam="2">  1       21 0.53534832E-01 0.23245732E+03</pdfrwt>
<totfact> 0.24785075E+04</totfact>
</mgrwt>
</event>
<event>
 4    1  0.4023583E+000  0.1774708E+03  0.7546771E-02  0.1170274E+00
         21   -1    0    0  503  502  0.00000000000E+00  0.00000000000E+00  0.39681276677E+02  0.39681276677E+02  0.00000000000E+00 0.  1.
         21   -1    0    0  501  503 -0.00000000000E+00 -0.00000000000E+00 -0.11678950273E+04  0.11678950273E+04  0.00000000000E+00 0.  1.
          6    1    1    2  501    0  0.29625657666E+02 -0.26252651374E+02 -0.90586529902E+03  0.92308603135E+03  0.17300000000E+03 0.  1.
         -6    1    1    2    0  502 -0.29625657666E+02  0.26252651374E+02 -0.22234845164E+03  0.28449027267E+03  0.17300000000E+03 0.  1.
<mgrwt>
<rscale>  2 0.17747079E+03</rscale>
<asrwt>0</asrwt>
<pdfrwt beam="1">  1       21 0.61048118E-02 0.17747079E+03</pdfrwt>
<pdfrwt beam="2">  1       21 0.17967616E+00 0.17747079E+03</pdfrwt>
<totfact> 0.35361431E+04</totfact>
</mgrwt>
</event>
<event>
 4    1  0.4023583E+000  0.1747589E+03  0.7546771E-02  0.1172974E+00
         21   -1    0    0  501  502  0.00000000000E+00  0.00000000000E+00  0.28484401772E+03  0.28484401772E+03  0.00000000000E+00 0.  1.
         21   -1    0    0  502  503 -0.00000000000E+00 -0.00000000000E+00 -0.41861376623E+03  0.41861376623E+03  0.00000000000E+00 0.  1.
          6    1    1    2  501    0 -0.16119485838E+02  0.18757619614E+02  0.23647417643E+03  0.29404204161E+03  0.17300000000E+03 0.  1.
         -6    1    1    2    0  503  0.16119485838E+02 -0.18757619614E+02 -0.37024392494E+03  0.40941574234E+03  0.17300000000E+03 0.  1.
<mgrwt>
<rscale>  2 0.17475894E+03</rscale>
<asrwt>0</asrwt>
<pdfrwt beam="1">  1       21 0.43822157E-01 0.17475894E+03</pdfrwt>
<pdfrwt beam="2">  1       21 0.64402118E-01 0.17475894E+03</pdfrwt>
<totfact> 0.11263686E+04</totfact>
</mgrwt>
</event>
<event>
 4    1  0.4023583E+000  0.3187629E+03  0.7546771E-02  0.1076220E+00
         21   -1    0    0  501  502  0.00000000000E+00  0.00000000000E+00  0.29027368495E+03  0.29027368495E+03  0.00000000000E+00 0. -1.
         21   -1    0    0  502  503 -0.00000000000E+00 -0.00000000000E+00 -0.10469430189E+04  0.10469430189E+04  0.00000000000E+00 0.  1.
          6    1    1    2  501    0  0.26621369864E+03 -0.28478577459E+02  0.16716427431E+03  0.35993562942E+03  0.17300000000E+03 0. -1.
         -6    1    1    2    0  503 -0.26621369864E+03  0.28478577459E+02 -0.92383360825E+03  0.97728107444E+03  0.17300000000E+03 0.  1.
<mgrwt>
<rscale>  2 0.31876286E+03</rscale>
<asrwt>0</asrwt>
<pdfrwt beam="1">  1       21 0.44657489E-01 0.31876286E+03</pdfrwt>
<pdfrwt beam="2">  1       21 0.16106816E+00 0.31876286E+03</pdfrwt>
<totfact> 0.10738499E+03</totfact>
</mgrwt>
</event>
<event>
 4    1  0.4023583E+000  0.1807794E+03  0.7546771E-02  0.1167051E+00
         21   -1    0    0  501  502  0.00000000000E+00  0.00000000000E+00  0.64447171566E+02  0.64447171566E+02  0.00000000000E+00 0.  1.
         21   -1    0    0  502  503 -0.00000000000E+00 -0.00000000000E+00 -0.62506204531E+03  0.62506204531E+03  0.00000000000E+00 0.  1.
          6    1    1    2  501    0 -0.52461141468E+02  0.85220442303E-01 -0.13053939527E+03  0.22298365937E+03  0.17300000000E+03 0. -1.
         -6    1    1    2    0  503  0.52461141468E+02 -0.85220442303E-01 -0.43007547848E+03  0.46652555751E+03  0.17300000000E+03 0. -1.
<mgrwt>
<rscale>  2 0.18077936E+03</rscale>
<asrwt>0</asrwt>
<pdfrwt beam="1">  1       21 0.99149499E-02 0.18077936E+03</pdfrwt>
<pdfrwt beam="2">  1       21 0.96163388E-01 0.18077936E+03</pdfrwt>
<totfact> 0.74556591E+04</totfact>
</mgrwt>
</event>
<event>
 4    1  0.4023583E+000  0.3169833E+03  0.7546771E-02  0.1077046E+00
         21   -1    0    0  503  502  0.00000000000E+00  0.00000000000E+00  0.17180763439E+04  0.17180763439E+04  0.00000000000E+00 0. -1.
         21   -1    0    0  501  503 -0.00000000000E+00 -0.00000000000E+00 -0.94727632175E+02  0.94727632175E+02  0.00000000000E+00 0.  1.
          6    1    1    2  501    0  0.21587490266E+03  0.15474960278E+03  0.25100887438E+03  0.40433138410E+03  0.17300000000E+03 0.  1.
         -6    1    1    2    0  502 -0.21587490266E+03 -0.15474960278E+03  0.13723398373E+04  0.14084725920E+04  0.17300000000E+03 0. -1.
<mgrwt>
<rscale>  2 0.31698330E+03</rscale>
<asrwt>0</asrwt>
<pdfrwt beam="1">  1       21 0.26431941E+00 0.31698330E+03</pdfrwt>
<pdfrwt beam="2">  1       21 0.14573483E-01 0.31698330E+03</pdfrwt>
<totfact> 0.20250776E+03</totfact>
</mgrwt>
</event>
<event>
 4    1  0.4023583E+000  0.1917620E+03  0.7546771E-02  0.1156882E+00
         21   -1    0    0  501  502  0.00000000000E+00  0.00000000000E+00  0.25575379072E+04  0.25575379072E+04  0.00000000000E+00 0.  1.
         21   -1    0    0  502  503 -0.00000000000E+00 -0.00000000000E+00 -0.18987577878E+02  0.18987577878E+02  0.00000000000E+00 0.  1.
          6    1    1    2  501    0  0.74153964134E+02  0.36672104991E+02  0.19040114979E+04  0.19136437594E+04  0.17300000000E+03 0.  1.
         -6    1    1    2    0  503 -0.74153964134E+02 -0.36672104991E+02  0.63453883143E+03  0.66288172571E+03  0.17300000000E+03 0.  1.
<mgrwt>
<rscale>  2 0.19176197E+03</rscale>
<asrwt>0</asrwt>
<pdfrwt beam="1">  1       21 0.39346710E+00 0.19176197E+03</pdfrwt>
<pdfrwt beam="2">  1       21 0.29211679E-02 0.19176197E+03</pdfrwt>
<totfact> 0.63308252E+03</totfact>
</mgrwt>
</event>
<event>
 4    1  0.4023583E+000  0.1756810E+03  0.7546771E-02  0.1172050E+00
         21   -1    0    0  501  502  0.00000000000E+00  0.00000000000E+00  0.19645815484E+03  0.19645815484E+03  0.00000000000E+00 0.  1.
         21   -1    0    0  502  503 -0.00000000000E+00 -0.00000000000E+00 -0.82707160676E+03  0.82707160676E+03  0.00000000000E+00 0.  1.
          6    1    1    2  501    0  0.30402089561E+02  0.32428727606E+01  0.14529625881E+03  0.22797983704E+03  0.17300000000E+03 0.  1.
         -6    1    1    2    0  503 -0.30402089561E+02 -0.32428727606E+01 -0.77590971073E+03  0.79554992456E+03  0.17300000000E+03 0.  1.
<mgrwt>
<rscale>  2 0.17568097E+03</rscale>
<asrwt>0</asrwt>
<pdfrwt beam="1">  1       21 0.30224331E-01 0.17568097E+03</pdfrwt>
<pdfrwt beam="2">  1       21 0.12724179E+00 0.17568097E+03</pdfrwt>
<totfact> 0.48606095E+03</totfact>
</mgrwt>
</event>
<event>
 4    1  0.4023583E+000  0.2011296E+03  0.7546771E-02  0.1148789E+00
         21   -1    0    0  503  502  0.00000000000E+00  0.00000000000E+00  0.13085467086E+04  0.13085467086E+04  0.00000000000E+00 0.  1.
         21   -1    0    0  501  503 -0.00000000000E+00 -0.00000000000E+00 -0.35297453968E+02  0.35297453968E+02  0.00000000000E+00 0.  1.
          6    1    1    2  501    0 -0.79603636701E+02  0.64709817152E+02  0.39985310893E+03  0.44758865952E+03  0.17300000000E+03 0.  1.
         -6    1    1    2    0  502  0.79603636701E+02 -0.64709817152E+02  0.87339614572E+03  0.89625550306E+03  0.17300000000E+03 0.  1.
<mgrwt>
<rscale>  2 0.20112956E+03</rscale>
<asrwt>0</asrwt>
<pdfrwt beam="1">  1       21 0.20131484E+00 0.20112956E+03</pdfrwt>
<pdfrwt beam="2">  1       21 0.54303785E-02 0.20112956E+03</pdfrwt>
<totfact> 0.30601007E+04</totfact>
</mgrwt>
</event>
<event>
 4    1  0.4023583E+000  0.1781604E+03  0.7546771E-02  0.1169595E+00
         21   -1    0    0  503  502  0.00000000000E+00  0.00000000000E+00  0.58614863537E+02  0.58614863537E+02  0.00000000000E+00 0.  1.
         21   -1    0    0  501  503 -0.00000000000E+00 -0.00000000000E+00 -0.81658501945E+03  0.81658501945E+03  0.00000000000E+00 0. -1.
          6    1    1    2  501    0  0.39980548782E+02  0.14617384814E+02 -0.63296205513E+03  0.65755765941E+03  0.17300000000E+03 0. -1.
         -6    1    1    2    0  502 -0.39980548782E+02 -0.14617384814E+02 -0.12500810078E+03  0.21764222357E+03  0.17300000000E+03 0.  1.
<mgrwt>
<rscale>  2 0.17816036E+03</rscale>
<asrwt>0</asrwt>
<pdfrwt beam="1">  1       21 0.90176701E-02 0.17816036E+03</pdfrwt>
<pdfrwt beam="2">  1       21 0.12562848E+00 0.17816036E+03</pdfrwt>
<totfact> 0.46216843E+04</totfact>
</mgrwt>
</event>
<event>
 4    1  0.4023583E+000  0.1764663E+03  0.7546771E-02  0.1171267E+00
         21   -1    0    0  501  502  0.00000000000E+00  0.00000000000E+00  0.98984631732E+02  0.98984631732E+02  0.00000000000E+00 0.  1.
         21   -1    0    0  502  503 -0.00000000000E+00 -0.00000000000E+00 -0.45846301090E+03  0.45846301090E+03  0.00000000000E+00 0.  1.
          6    1    1    2  501    0  0.26672525218E+01  0.34702358292E+02 -0.23604459530E+02  0.17803802520E+03  0.17300000000E+03 0. -1.
         -6    1    1    2    0  503 -0.26672525218E+01 -0.34702358292E+02 -0.33587391963E+03  0.37940961743E+03  0.17300000000E+03 0. -1.
<mgrwt>
<rscale>  2 0.17646634E+03</rscale>
<asrwt>0</asrwt>
<pdfrwt beam="1">  1       21 0.15228405E-01 0.17646634E+03</pdfrwt>
<pdfrwt beam="2">  1       21 0.70532770E-01 0.17646634E+03</pdfrwt>
<totfact> 0.70033707E+04</totfact>
</mgrwt>
</event>
<event>
 4    1  0.4023583E+000  0.2031920E+03  0.7546771E-02  0.1147074E+00
         21   -1    0    0  501  502  0.00000000000E+00  0.00000000000E+00  0.60430625236E+03  0.60430625236E+03  0.00000000000E+00 0.  1.
         21   -1    0    0  502  503 -0.00000000000E+00 -0.00000000000E+00 -0.16163585503E+03  0.16163585503E+03  0.00000000000E+00 0. -1.
          6    1    1    2  501    0 -0.92573431063E+02 -0.52803000238E+02  0.51232097471E+03  0.55114406293E+03  0.17300000000E+03 0.  1.
         -6    1    1    2    0  503  0.92573431063E+02  0.52803000238E+02 -0.69650577380E+02  0.21479804446E+03  0.17300000000E+03 0. -1.
<mgrwt>
<rscale>  2 0.20319202E+03</rscale>
<asrwt>0</asrwt>
<pdfrwt beam="1">  1       21 0.92970192E-01 0.20319202E+03</pdfrwt>
<pdfrwt beam="2">  1       21 0.24867055E-01 0.20319202E+03</pdfrwt>
<totfact> 0.14805873E+04</totfact>
</mgrwt>
</event>
<event>
 4    1  0.4023583E+000  0.1943780E+03  0.7546771E-02  0.1154571E+00
         21   -1    0    0  501  502  0.00000000000E+00  0.00000000000E+00  0.21962668366E+03  0.21962668366E+03  0.00000000000E+00 0. -1.
         21   -1    0    0  502  503 -0.00000000000E+00 -0.00000000000E+00 -0.77208584468E+03  0.77208584468E+03  0.00000000000E+00 0. -1.
          6    1    1    2  501    0  0.88311433980E+02 -0.74083312713E+01  0.16090801726E+03  0.25233743829E+03  0.17300000000E+03 0. -1.
         -6    1    1    2    0  503 -0.88311433980E+02  0.74083312713E+01 -0.71336717827E+03  0.73937509005E+03  0.17300000000E+03 0. -1.
<mgrwt>
<rscale>  2 0.19437796E+03</rscale>
<asrwt>0</asrwt>
<pdfrwt beam="1">  1       21 0.33788720E-01 0.19437796E+03</pdfrwt>
<pdfrwt beam="2">  1       21 0.11878244E+00 0.19437796E+03</pdfrwt>
<totfact> 0.45638308E+03</totfact>
</mgrwt>
</event>
<event>
 4    1  0.4023583E+000  0.2645228E+03  0.7546771E-02  0.1104456E+00
         21   -1    0    0  503  502  0.00000000000E+00  0.00000000000E+00  0.43964309615E+03  0.43964309615E+03  0.00000000000E+00 0.  1.
         21   -1    0    0  501  503 -0.00000000000E+00 -0.00000000000E+00 -0.20289251066E+03  0.20289251066E+03  0.00000000000E+00 0. -1.
          6    1    1    2  501    0 -0.66975854596E+02  0.18856714516E+03  0.26753470110E+03  0.37622752374E+03  0.17300000000E+03 0.  1.
         -6    1    1    2    0  502  0.66975854596E+02 -0.18856714516E+03 -0.30784115613E+02  0.26630808306E+03  0.17300000000E+03 0. -1.
<mgrwt>
<rscale>  2 0.26452284E+03</rscale>
<asrwt>0</asrwt>
<pdfrwt beam="1">  1       21 0.67637399E-01 0.26452284E+03</pdfrwt>
<pdfrwt beam="2">  1       21 0.31214233E-01 0.26452284E+03</pdfrwt>
<totfact> 0.18958497E+04</totfact>
</mgrwt>
</event>
<event>
 4    1  0.4023583E+000  0.1758314E+03  0.7546771E-02  0.1171899E+00
         21   -1    0    0  503  502  0.00000000000E+00  0.00000000000E+00  0.11714481389E+03  0.11714481389E+03  0.00000000000E+00 0.  1.
         21   -1    0    0  501  503 -0.00000000000E+00 -0.00000000000E+00 -0.62305930491E+03  0.62305930491E+03  0.00000000000E+00 0.  1.
          6    1    1    2  501    0  0.21243522935E+02  0.23160474776E+02 -0.53394612088E+03  0.56215225239E+03  0.17300000000E+03 0.  1.
         -6    1    1    2    0  502 -0.21243522935E+02 -0.23160474776E+02  0.28031629861E+02  0.17805186641E+03  0.17300000000E+03 0.  1.
<mgrwt>
<rscale>  2 0.17583144E+03</rscale>
<asrwt>0</asrwt>
<pdfrwt beam="1">  1       21 0.18022279E-01 0.17583144E+03</pdfrwt>
<pdfrwt beam="2">  1       21 0.95855278E-01 0.17583144E+03</pdfrwt>
<totfact> 0.25661797E+04</totfact>
</mgrwt>
</event>
<event>
 4    1  0.4023583E+000  0.2227739E+03  0.7546771E-02  0.1131832E+00
         21   -1    0    0  503  502  0.00000000000E+00  0.00000000000E+00  0.60383411507E+02  0.60383411507E+02  0.00000000000E+00 0. -1.
         21   -1    0    0  501  503 -0.00000000000E+00 -0.00000000000E+00 -0.82914142494E+03  0.82914142494E+03  0.00000000000E+00 0. -1.
          6    1    1    2  501    0  0.13050868795E+03 -0.51639982586E+02 -0.34277047110E+03  0.40880288807E+03  0.17300000000E+03 0. -1.
         -6    1    1    2    0  502 -0.13050868795E+03  0.51639982586E+02 -0.42598754233E+03  0.48072194837E+03  0.17300000000E+03 0. -1.
<mgrwt>
<rscale>  2 0.22277389E+03</rscale>
<asrwt>0</asrwt>
<pdfrwt beam="1">  1       21 0.92897564E-02 0.22277389E+03</pdfrwt>
<pdfrwt beam="2">  1       21 0.12756021E+00 0.22277389E+03</pdfrwt>
<totfact> 0.41210575E+04</totfact>
</mgrwt>
</event>
<event>
 4    1  0.4023583E+000  0.2561035E+03  0.7546771E-02  0.1109507E+00
         21   -1    0    0  503  502  0.00000000000E+00  0.00000000000E+00  0.42617502909E+03  0.42617502909E+03  0.00000000000E+00 0.  1.
         21   -1    0    0  501  503 -0.00000000000E+00 -0.00000000000E+00 -0.16311665023E+03  0.16311665023E+03  0.00000000000E+00 0. -1.
          6    1    1    2  501    0  0.12576638986E+02 -0.18841934970E+03  0.20156171361E+03  0.32590818889E+03  0.17300000000E+03 0.  1.
         -6    1    1    2    0  502 -0.12576638986E+02  0.18841934970E+03  0.61496665252E+02  0.26338349042E+03  0.17300000000E+03 0.  1.
<mgrwt>
<rscale>  2 0.25610354E+03</rscale>
<asrwt>0</asrwt>
<pdfrwt beam="1">  1       21 0.65565389E-01 0.25610354E+03</pdfrwt>
<pdfrwt beam="2">  1       21 0.25094869E-01 0.25610354E+03</pdfrwt>
<totfact> 0.31170930E+04</totfact>
</mgrwt>
</event>
<event>
 4    1  0.4023583E+000  0.1783147E+03  0.7546771E-02  0.1169444E+00
         21   -1    0    0  501  502  0.00000000000E+00  0.00000000000E+00  0.37566631470E+03  0.37566631470E+03  0.00000000000E+00 0.  1.
         21   -1    0    0  502  503 -0.00000000000E+00 -0.00000000000E+00 -0.23149978917E+03  0.23149978917E+03  0.00000000000E+00 0.  1.
          6    1    1    2  501    0 -0.21166308175E+02  0.37671278782E+02  0.31388236967E+03  0.36099623244E+03  0.17300000000E+03 0.  1.
         -6    1    1    2    0  503  0.21166308175E+02 -0.37671278782E+02 -0.16971584415E+03  0.24616987143E+03  0.17300000000E+03 0.  1.
<mgrwt>
<rscale>  2 0.17831472E+03</rscale>
<asrwt>0</asrwt>
<pdfrwt beam="1">  1       21 0.57794818E-01 0.17831472E+03</pdfrwt>
<pdfrwt beam="2">  1       21 0.35615352E-01 0.17831472E+03</pdfrwt>
<totfact> 0.21522058E+04</totfact>
</mgrwt>
</event>
<event>
 4    1  0.4023583E+000  0.2194552E+03  0.7546771E-02  0.1134290E+00
         21   -1    0    0  501  502  0.00000000000E+00  0.00000000000E+00  0.13036036463E+03  0.13036036463E+03  0.00000000000E+00 0. -1.
         21   -1    0    0  502  503 -0.00000000000E+00 -0.00000000000E+00 -0.47850687281E+03  0.47850687281E+03  0.00000000000E+00 0. -1.
          6    1    1    2  501    0  0.13312393764E+03 -0.22574028268E+02 -0.28731184538E+02  0.22132792523E+03  0.17300000000E+03 0. -1.
         -6    1    1    2    0  503 -0.13312393764E+03  0.22574028268E+02 -0.31941532364E+03  0.38753931220E+03  0.17300000000E+03 0. -1.
<mgrwt>
<rscale>  2 0.21945517E+03</rscale>
<asrwt>0</asrwt>
<pdfrwt beam="1">  1       21 0.20055441E-01 0.21945517E+03</pdfrwt>
<pdfrwt beam="2">  1       21 0.73616441E-01 0.21945517E+03</pdfrwt>
<totfact> 0.37535850E+04</totfact>
</mgrwt>
</event>
<event>
 4    1  0.4023583E+000  0.2503321E+03  0.7546771E-02  0.1113095E+00
         21   -1    0    0  501  502  0.00000000000E+00  0.00000000000E+00  0.30072254198E+03  0.30072254198E+03  0.00000000000E+00 0.  1.
         21   -1    0    0  502  503 -0.00000000000E+00 -0.00000000000E+00 -0.27921989457E+03  0.27921989457E+03  0.00000000000E+00 0.  1.
          6    1    1    2  501    0  0.76219362695E+02  0.16409688068E+03 -0.13529956783E+03  0.28455605872E+03  0.17300000000E+03 0.  1.
         -6    1    1    2    0  503 -0.76219362695E+02 -0.16409688068E+03  0.15680221524E+03  0.29538637782E+03  0.17300000000E+03 0.  1.
<mgrwt>
<rscale>  2 0.25033213E+03</rscale>
<asrwt>0</asrwt>
<pdfrwt beam="1">  1       21 0.46265006E-01 0.25033213E+03</pdfrwt>
<pdfrwt beam="2">  1       21 0.42956907E-01 0.25033213E+03</pdfrwt>
<totfact> 0.22622938E+04</totfact>
</mgrwt>
</event>
<event>
 4    1  0.4023583E+000  0.2164520E+03  0.7546771E-02  0.1136556E+00
         21   -1    0    0  501  502  0.00000000000E+00  0.00000000000E+00  0.21352817197E+03  0.21352817197E+03  0.00000000000E+00 0.  1.
         21   -1    0    0  502  503 -0.00000000000E+00 -0.00000000000E+00 -0.31429410119E+03  0.31429410119E+03  0.00000000000E+00 0.  1.
          6    1    1    2  501    0 -0.13008002582E+03  0.12938120648E+01 -0.19538453470E+03  0.29159321574E+03  0.17300000000E+03 0.  1.
         -6    1    1    2    0  503  0.13008002582E+03 -0.12938120648E+01  0.94618605481E+02  0.23622905742E+03  0.17300000000E+03 0.  1.
<mgrwt>
<rscale>  2 0.21645204E+03</rscale>
<asrwt>0</asrwt>
<pdfrwt beam="1">  1       21 0.32850488E-01 0.21645204E+03</pdfrwt>
<pdfrwt beam="2">  1       21 0.48352938E-01 0.21645204E+03</pdfrwt>
<totfact> 0.35996521E+04</totfact>
</mgrwt>
</event>
<event>
 4    1  0.4023583E+000  0.2374224E+03  0.7546771E-02  0.1121522E+00
         21   -1    0    0  501  502  0.00000000000E+00  0.00000000000E+00  0.59965847096E+02  0.59965847096E+02  0.00000000000E+00 0. -1.
         21   -1    0    0  502  503 -0.00000000000E+00 -0.00000000000E+00 -0.20998346295E+04  0.20998346295E+04  0.00000000000E+00 0.  1.
          6    1    1    2  501    0 -0.12546503945E+03  0.10343564508E+03 -0.21736165301E+03  0.32189361130E+03  0.17300000000E+03 0. -1.
         -6    1    1    2    0  503  0.12546503945E+03 -0.10343564508E+03 -0.18225071294E+04  0.18379068653E+04  0.17300000000E+03 0.  1.
<mgrwt>
<rscale>  2 0.23742243E+03</rscale>
<asrwt>0</asrwt>
<pdfrwt beam="1">  1       21 0.92255155E-02 0.23742243E+03</pdfrwt>
<pdfrwt beam="2">  1       21 0.32305146E+00 0.23742243E+03</pdfrwt>
<totfact> 0.22285701E+03</totfact>
</mgrwt>
</event>
<event>
 4    1  0.4023583E+000  0.2286954E+03  0.7546771E-02  0.1127561E+00
         21   -1    0    0  503  502  0.00000000000E+00  0.00000000000E+00  0.48132567997E+02  0.48132567997E+02  0.00000000000E+00 0. -1.
         21   -1    0    0  501  503 -0.00000000000E+00 -0.00000000000E+00 -0.10876325291E+04  0.10876325291E+04  0.00000000000E+00 0. -1.
          6    1    1    2  501    0 -0.82225927295E+02  0.12494588850E+03 -0.53711823861E+03  0.58377870843E+03  0.17300000000E+03 0. -1.
         -6    1    1    2    0  502  0.82225927295E+02 -0.12494588850E+03 -0.50238172245E+03  0.55198638862E+03  0.17300000000E+03 0. -1.
<mgrwt>
<rscale>  2 0.22869538E+03</rscale>
<asrwt>0</asrwt>
<pdfrwt beam="1">  1       21 0.74050107E-02 0.22869538E+03</pdfrwt>
<pdfrwt beam="2">  1       21 0.16732807E+00 0.22869538E+03</pdfrwt>
<totfact> 0.29906133E+04</totfact>
</mgrwt>
</event>
<event>
 4    1  0.4023583E+000  0.1930015E+03  0.7546771E-02  0.1155782E+00
         21   -1    0    0  503  502  0.00000000000E+00  0.00000000000E+00  0.19031832525E+04  0.19031832525E+04  0.00000000000E+00 0.  1.
         21   -1    0    0  501  503 -0.00000000000E+00 -0.00000000000E+00 -0.24333999810E+02  0.24333999810E+02  0.00000000000E+00 0.  1.
          6    1    1    2  501    0  0.85388623002E+02 -0.54175145576E+01  0.51309540354E+03  0.54819381567E+03  0.17300000000E+03 0.  1.
         -6    1    1    2    0  502 -0.85388623002E+02  0.54175145576E+01  0.13657538491E+04  0.13793234366E+04  0.17300000000E+03 0.  1.
<mgrwt>
<rscale>  2 0.19300147E+03</rscale>
<asrwt>0</asrwt>
<pdfrwt beam="1">  1       21 0.29279731E+00 0.19300147E+03</pdfrwt>
<pdfrwt beam="2">  1       21 0.37436938E-02 0.19300147E+03</pdfrwt>
<totfact> 0.16434507E+04</totfact>
</mgrwt>
</event>
<event>
 4    1  0.4023583E+000  0.3727512E+03  0.7546771E-02  0.1053646E+00
         21   -1    0    0  503  502  0.00000000000E+00  0.00000000000E+00  0.23462976097E+04  0.23462976097E+04  0.00000000000E+00 0. -1.
         21   -1    0    0  501  503 -0.00000000000E+00 -0.00000000000E+00 -0.72019191040E+02  0.72019191040E+02  0.00000000000E+00 0. -1.
          6    1    1    2  501    0  0.27173659170E+03 -0.18754646420E+03  0.62736087021E+03  0.72974318289E+03  0.17300000000E+03 0. -1.
         -6    1    1    2    0  502 -0.27173659170E+03  0.18754646420E+03  0.16469175485E+04  0.16885736179E+04  0.17300000000E+03 0. -1.
<mgrwt>
<rscale>  2 0.37275119E+03</rscale>
<asrwt>0</asrwt>
<pdfrwt beam="1">  1       21 0.36096881E+00 0.37275119E+03</pdfrwt>
<pdfrwt beam="2">  1       21 0.11079877E-01 0.37275119E+03</pdfrwt>
<totfact> 0.84589325E+02</totfact>
</mgrwt>
</event>
<event>
 4    1  0.4023583E+000  0.2251604E+03  0.7546771E-02  0.1130093E+00
         21   -1    0    0  503  502  0.00000000000E+00  0.00000000000E+00  0.15857580748E+03  0.15857580748E+03  0.00000000000E+00 0. -1.
         21   -1    0    0  501  503 -0.00000000000E+00 -0.00000000000E+00 -0.16509561329E+04  0.16509561329E+04  0.00000000000E+00 0. -1.
          6    1    1    2  501    0 -0.59003935443E+02 -0.13147905815E+03 -0.15586441325E+04  0.15748233993E+04  0.17300000000E+03 0. -1.
         -6    1    1    2    0  502  0.59003935443E+02  0.13147905815E+03  0.66263807087E+02  0.23470854109E+03  0.17300000000E+03 0. -1.
<mgrwt>
<rscale>  2 0.22516040E+03</rscale>
<asrwt>0</asrwt>
<pdfrwt beam="1">  1       21 0.24396277E-01 0.22516040E+03</pdfrwt>
<pdfrwt beam="2">  1       21 0.25399326E+00 0.22516040E+03</pdfrwt>
<totfact> 0.96242547E+02</totfact>
</mgrwt>
</event>
<event>
 4    1  0.4023583E+000  0.2143089E+03  0.7546771E-02  0.1138199E+00
         21   -1    0    0  501  502  0.00000000000E+00  0.00000000000E+00  0.37240403333E+03  0.37240403333E+03  0.00000000000E+00 0. -1.
         21   -1    0    0  502  503 -0.00000000000E+00 -0.00000000000E+00 -0.23704120526E+03  0.23704120526E+03  0.00000000000E+00 0. -1.
          6    1    1    2  501    0  0.55359932887E+02 -0.11373031588E+03  0.27873651325E+03  0.35159970242E+03  0.17300000000E+03 0. -1.
         -6    1    1    2    0  503 -0.55359932887E+02  0.11373031588E+03 -0.14337368519E+03  0.25784553617E+03  0.17300000000E+03 0. -1.
<mgrwt>
<rscale>  2 0.21430891E+03</rscale>
<asrwt>0</asrwt>
<pdfrwt beam="1">  1       21 0.57292928E-01 0.21430891E+03</pdfrwt>
<pdfrwt beam="2">  1       21 0.36467878E-01 0.21430891E+03</pdfrwt>
<totfact> 0.20478751E+04</totfact>
</mgrwt>
</event>
<event>
 4    1  0.4023583E+000  0.1945207E+03  0.7546771E-02  0.1154446E+00
         21   -1    0    0  503  502  0.00000000000E+00  0.00000000000E+00  0.48268389693E+02  0.48268389693E+02  0.00000000000E+00 0. -1.
         21   -1    0    0  501  503 -0.00000000000E+00 -0.00000000000E+00 -0.78508243323E+03  0.78508243323E+03  0.00000000000E+00 0. -1.
          6    1    1    2  501    0 -0.58564360435E+02  0.66929238437E+02 -0.35233816722E+03  0.40246800040E+03  0.17300000000E+03 0. -1.
         -6    1    1    2    0  502  0.58564360435E+02 -0.66929238437E+02 -0.38447587632E+03  0.43088282252E+03  0.17300000000E+03 0. -1.
<mgrwt>
<rscale>  2 0.19452071E+03</rscale>
<asrwt>0</asrwt>
<pdfrwt beam="1">  1       21 0.74259060E-02 0.19452071E+03</pdfrwt>
<pdfrwt beam="2">  1       21 0.12078192E+00 0.19452071E+03</pdfrwt>
<totfact> 0.70907806E+04</totfact>
</mgrwt>
</event>
<event>
 4    1  0.4023583E+000  0.1734719E+03  0.7546771E-02  0.1174275E+00
         21   -1    0    0  501  502  0.00000000000E+00  0.00000000000E+00  0.95977222897E+02  0.95977222897E+02  0.00000000000E+00 0.  1.
         21   -1    0    0  502  503 -0.00000000000E+00 -0.00000000000E+00 -0.32348009048E+03  0.32348009048E+03  0.00000000000E+00 0.  1.
          6    1    1    2  501    0 -0.12109676332E+02  0.41038942667E+01 -0.76982801685E+02  0.18978629551E+03  0.17300000000E+03 0. -1.
         -6    1    1    2    0  503  0.12109676332E+02 -0.41038942667E+01 -0.15052006590E+03  0.22967101787E+03  0.17300000000E+03 0. -1.
<mgrwt>
<rscale>  2 0.17347186E+03</rscale>
<asrwt>0</asrwt>
<pdfrwt beam="1">  1       21 0.14765727E-01 0.17347186E+03</pdfrwt>
<pdfrwt beam="2">  1       21 0.49766168E-01 0.17347186E+03</pdfrwt>
<totfact> 0.15629953E+05</totfact>
</mgrwt>
</event>
<event>
 4    1  0.4023583E+000  0.2030858E+03  0.7546771E-02  0.1147161E+00
         21   -1    0    0  503  502  0.00000000000E+00  0.00000000000E+00  0.60335842884E+02  0.60335842884E+02  0.00000000000E+00 0.  1.
         21   -1    0    0  501  503 -0.00000000000E+00 -0.00000000000E+00 -0.10658662409E+04  0.10658662409E+04  0.00000000000E+00 0. -1.
          6    1    1    2  501    0 -0.26049723427E+02  0.10313230690E+03 -0.84000137514E+03  0.86420262153E+03  0.17300000000E+03 0. -1.
         -6    1    1    2    0  502  0.26049723427E+02 -0.10313230690E+03 -0.16552902292E+03  0.26199946230E+03  0.17300000000E+03 0.  1.
<mgrwt>
<rscale>  2 0.20308585E+03</rscale>
<asrwt>0</asrwt>
<pdfrwt beam="1">  1       21 0.92824385E-02 0.20308585E+03</pdfrwt>
<pdfrwt beam="2">  1       21 0.16397940E+00 0.20308585E+03</pdfrwt>
<totfact> 0.21633552E+04</totfact>
</mgrwt>
</event>
<event>
 4    1  0.4023583E+000  0.3110408E+03  0.7546771E-02  0.1079848E+00
         21   -1    0    0  501  502  0.00000000000E+00  0.00000000000E+00  0.30187133355E+03  0.30187133355E+03  0.00000000000E+00 0. -1.
         21   -1    0    0  502  503 -0.00000000000E+00 -0.00000000000E+00 -0.35729520692E+03  0.35729520692E+03  0.00000000000E+00 0.  1.
          6    1    1    2  501    0  0.24399701630E+03 -0.85339654942E+02  0.78070337468E+02  0.32068891197E+03  0.17300000000E+03 0. -1.
         -6    1    1    2    0  503 -0.24399701630E+03  0.85339654942E+02 -0.13349421085E+03  0.33847762850E+03  0.17300000000E+03 0.  1.
<mgrwt>
<rscale>  2 0.31104083E+03</rscale>
<asrwt>0</asrwt>
<pdfrwt beam="1">  1       21 0.46441744E-01 0.31104083E+03</pdfrwt>
<pdfrwt beam="2">  1       21 0.54968493E-01 0.31104083E+03</pdfrwt>
<totfact> 0.13033877E+04</totfact>
</mgrwt>
</event>
<event>
 4    1  0.4023583E+000  0.2063295E+03  0.7546771E-02  0.1144506E+00
         21   -1    0    0  501  502  0.00000000000E+00  0.00000000000E+00  0.19182567083E+03  0.19182567083E+03  0.00000000000E+00 0. -1.
         21   -1    0    0  502  503 -0.00000000000E+00 -0.00000000000E+00 -0.22841400628E+03  0.22841400628E+03  0.00000000000E+00 0. -1.
          6    1    1    2  501    0  0.24450131027E+02 -0.10974989320E+03  0.17108129974E+02  0.20703752335E+03  0.17300000000E+03 0. -1.
         -6    1    1    2    0  503 -0.24450131027E+02  0.10974989320E+03 -0.53696465419E+02  0.21320215375E+03  0.17300000000E+03 0. -1.
<mgrwt>
<rscale>  2 0.20632946E+03</rscale>
<asrwt>0</asrwt>
<pdfrwt beam="1">  1       21 0.29511642E-01 0.20632946E+03</pdfrwt>
<pdfrwt beam="2">  1       21 0.35140616E-01 0.20632946E+03</pdfrwt>
<totfact> 0.85401991E+04</totfact>
</mgrwt>
</event>
<event>
 4    1  0.4023583E+000  0.2341053E+03  0.7546771E-02  0.1123783E+00
         21   -1    0    0  501  502  0.00000000000E+00  0.00000000000E+00  0.21546233624E+03  0.21546233624E+03  0.00000000000E+00 0.  1.
         21   -1    0    0  502  503 -0.00000000000E+00 -0.00000000000E+00 -0.26165242271E+03  0.26165242271E+03  0.00000000000E+00 0. -1.
          6    1    1    2  501    0  0.66125131091E+01  0.15758356294E+03  0.16727066573E+02  0.23470215039E+03  0.17300000000E+03 0.  1.
         -6    1    1    2    0  503 -0.66125131091E+01 -0.15758356294E+03 -0.62917153044E+02  0.24241260856E+03  0.17300000000E+03 0. -1.
<mgrwt>
<rscale>  2 0.23410533E+03</rscale>
<asrwt>0</asrwt>
<pdfrwt beam="1">  1       21 0.33148052E-01 0.23410533E+03</pdfrwt>
<pdfrwt beam="2">  1       21 0.40254219E-01 0.23410533E+03</pdfrwt>
<totfact> 0.51134913E+04</totfact>
</mgrwt>
</event>
<event>
 4    1  0.4023583E+000  0.1829334E+03  0.7546771E-02  0.1164994E+00
         21   -1    0    0  503  502  0.00000000000E+00  0.00000000000E+00  0.87007228094E+02  0.87007228094E+02  0.00000000000E+00 0. -1.
         21   -1    0    0  501  503 -0.00000000000E+00 -0.00000000000E+00 -0.48740884871E+03  0.48740884871E+03  0.00000000000E+00 0. -1.
          6    1    1    2  501    0  0.59282038625E+02  0.46103906157E+01 -0.33209492544E+03  0.37914595515E+03  0.17300000000E+03 0. -1.
         -6    1    1    2    0  502 -0.59282038625E+02 -0.46103906157E+01 -0.68306695179E+02  0.19527012166E+03  0.17300000000E+03 0. -1.
<mgrwt>
<rscale>  2 0.18293336E+03</rscale>
<asrwt>0</asrwt>
<pdfrwt beam="1">  1       21 0.13385727E-01 0.18293336E+03</pdfrwt>
<pdfrwt beam="2">  1       21 0.74985978E-01 0.18293336E+03</pdfrwt>
<totfact> 0.77015728E+04</totfact>
</mgrwt>
</event>
<event>
 4    1  0.4023583E+000  0.1738796E+03  0.7546771E-02  0.1173861E+00
         21   -1    0    0  503  502  0.00000000000E+00  0.00000000000E+00  0.58298995560E+02  0.58298995560E+02  0.00000000000E+00 0. -1.
         21   -1    0    0  501  503 -0.00000000000E+00 -0.00000000000E+00 -0.52288432471E+03  0.52288432471E+03  0.00000000000E+00 0. -1.
          6    1    1    2  501    0  0.17074907140E+02  0.36843384578E+01 -0.20600278114E+03  0.26957609805E+03  0.17300000000E+03 0. -1.
         -6    1    1    2    0  502 -0.17074907140E+02 -0.36843384578E+01 -0.25858254801E+03  0.31160722222E+03  0.17300000000E+03 0. -1.
<mgrwt>
<rscale>  2 0.17387963E+03</rscale>
<asrwt>0</asrwt>
<pdfrwt beam="1">  1       21 0.89690760E-02 0.17387963E+03</pdfrwt>
<pdfrwt beam="2">  1       21 0.80443744E-01 0.17387963E+03</pdfrwt>
<totfact> 0.13438920E+05</totfact>
</mgrwt>
</event>
<event>
 4    1  0.4023583E+000  0.1844395E+03  0.7546771E-02  0.1163574E+00
         21   -1    0    0  503  502  0.00000000000E+00  0.00000000000E+00  0.39731735675E+03  0.39731735675E+03  0.00000000000E+00 0.  1.
         21   -1    0    0  501  503 -0.00000000000E+00 -0.00000000000E+00 -0.88036030403E+02  0.88036030403E+02  0.00000000000E+00 0.  1.
          6    1    1    2  501    0  0.62686330082E+02  0.12623174220E+02  0.11443033642E+03  0.21705350124E+03  0.17300000000E+03 0.  1.
         -6    1    1    2    0  502 -0.62686330082E+02 -0.12623174220E+02  0.19485098993E+03  0.26829988591E+03  0.17300000000E+03 0.  1.
<mgrwt>
<rscale>  2 0.18443948E+03</rscale>
<asrwt>0</asrwt>
<pdfrwt beam="1">  1       21 0.61125746E-01 0.18443948E+03</pdfrwt>
<pdfrwt beam="2">  1       21 0.13544005E-01 0.18443948E+03</pdfrwt>
<totfact> 0.11788124E+05</totfact>
</mgrwt>
</event>
<event>
 4    1  0.4023583E+000  0.2187051E+03  0.7546771E-02  0.1134852E+00
         21   -1    0    0  503  502  0.00000000000E+00  0.00000000000E+00  0.39729796876E+03  0.39729796876E+03  0.00000000000E+00 0. -1.
         21   -1    0    0  501  503 -0.00000000000E+00 -0.00000000000E+00 -0.12430811930E+03  0.12430811930E+03  0.00000000000E+00 0. -1.
          6    1    1    2  501    0  0.13377048187E+03  0.28951505724E+01  0.90210879566E+02  0.23657964094E+03  0.17300000000E+03 0. -1.
         -6    1    1    2    0  502 -0.13377048187E+03 -0.28951505724E+01  0.18277896989E+03  0.28502644711E+03  0.17300000000E+03 0. -1.
<mgrwt>
<rscale>  2 0.21870511E+03</rscale>
<asrwt>0</asrwt>
<pdfrwt beam="1">  1       21 0.61122764E-01 0.21870511E+03</pdfrwt>
<pdfrwt beam="2">  1       21 0.19124326E-01 0.21870511E+03</pdfrwt>
<totfact> 0.61742362E+04</totfact>
</mgrwt>
</event>
<event>
 4    1  0.4023583E+000  0.2081779E+03  0.7546771E-02  0.1143017E+00
         21   -1    0    0  501  502  0.00000000000E+00  0.00000000000E+00  0.24795464647E+03  0.24795464647E+03  0.00000000000E+00 0.  1.
         21   -1    0    0  502  503 -0.00000000000E+00 -0.00000000000E+00 -0.47131313983E+03  0.47131313983E+03  0.00000000000E+00 0.  1.
          6    1    1    2  501    0 -0.26673867175E+02 -0.11268336551E+03  0.17358077718E+03  0.27105040539E+03  0.17300000000E+03 0.  1.
         -6    1    1    2    0  503  0.26673867175E+02  0.11268336551E+03 -0.39693927054E+03  0.44821738091E+03  0.17300000000E+03 0.  1.
<mgrwt>
<rscale>  2 0.20817790E+03</rscale>
<asrwt>0</asrwt>
<pdfrwt beam="1">  1       21 0.38146869E-01 0.20817790E+03</pdfrwt>
<pdfrwt beam="2">  1       21 0.72509714E-01 0.20817790E+03</pdfrwt>
<totfact> 0.11241328E+04</totfact>
</mgrwt>
</event>
<event>
 4    1  0.4023583E+000  0.3547595E+03  0.7546771E-02  0.1060678E+00
         21   -1    0    0  501  502  0.00000000000E+00  0.00000000000E+00  0.13292333018E+03  0.13292333018E+03  0.00000000000E+00 0. -1.
         21   -1    0    0  502  503 -0.00000000000E+00 -0.00000000000E+00 -0.10529356884E+04  0.10529356884E+04  0.00000000000E+00 0. -1.
          6    1    1    2  501    0  0.30491709204E+03 -0.54321693627E+02 -0.64823877653E+03  0.73896399832E+03  0.17300000000E+03 0. -1.
         -6    1    1    2    0  503 -0.30491709204E+03  0.54321693627E+02 -0.27177358164E+03  0.44689502022E+03  0.17300000000E+03 0. -1.
<mgrwt>
<rscale>  2 0.35475947E+03</rscale>
<asrwt>0</asrwt>
<pdfrwt beam="1">  1       21 0.20449743E-01 0.35475947E+03</pdfrwt>
<pdfrwt beam="2">  1       21 0.16199011E+00 0.35475947E+03</pdfrwt>
<totfact> 0.48641540E+03</totfact>
</mgrwt>
</event>
<event>
 4    1  0.4023583E+000  0.2211338E+03  0.7546771E-02  0.1133041E+00
         21   -1    0    0  501  502  0.00000000000E+00  0.00000000000E+00  0.12584790927E+03  0.12584790927E+03  0.00000000000E+00 0. -1.
         21   -1    0    0  502  503 -0.00000000000E+00 -0.00000000000E+00 -0.63279549020E+03  0.63279549020E+03  0.00000000000E+00 0. -1.
          6    1    1    2  501    0 -0.31085070889E+01 -0.13770067746E+03 -0.17819358412E+02  0.22185055539E+03  0.17300000000E+03 0. -1.
         -6    1    1    2    0  503  0.31085070889E+01  0.13770067746E+03 -0.48912822252E+03  0.53679284408E+03  0.17300000000E+03 0. -1.
<mgrwt>
<rscale>  2 0.22113376E+03</rscale>
<asrwt>0</asrwt>
<pdfrwt beam="1">  1       21 0.19361217E-01 0.22113376E+03</pdfrwt>
<pdfrwt beam="2">  1       21 0.97353152E-01 0.22113376E+03</pdfrwt>
<totfact> 0.21090239E+04</totfact>
</mgrwt>
</event>
<event>
 4    1  0.4023583E+000  0.2062107E+03  0.7546771E-02  0.1144602E+00
         21   -1    0    0  503  502  0.00000000000E+00  0.00000000000E+00  0.43166725732E+03  0.43166725732E+03  0.00000000000E+00 0.  1.
         21   -1    0    0  501  503 -0.00000000000E+00 -0.00000000000E+00 -0.18587219120E+03  0.18587219120E+03  0.00000000000E+00 0.  1.
          6    1    1    2  501    0 -0.76511148540E+02 -0.82096899067E+02 -0.88788986768E+02  0.22451356498E+03  0.17300000000E+03 0.  1.
         -6    1    1    2    0  502  0.76511148540E+02  0.82096899067E+02  0.33458405289E+03  0.39302588354E+03  0.17300000000E+03 0.  1.
<mgrwt>
<rscale>  2 0.20621071E+03</rscale>
<asrwt>0</asrwt>
<pdfrwt beam="1">  1       21 0.66410347E-01 0.20621071E+03</pdfrwt>
<pdfrwt beam="2">  1       21 0.28595722E-01 0.20621071E+03</pdfrwt>
<totfact> 0.24137422E+04</totfact>
</mgrwt>
</event>
<event>
 4    1  0.4023583E+000  0.1865664E+03  0.7546771E-02  0.1161595E+00
         21   -1    0    0  503  502  0.00000000000E+00  0.00000000000E+00  0.12884871477E+03  0.12884871477E+03  0.00000000000E+00 0.  1.
         21   -1    0    0  501  503 -0.00000000000E+00 -0.00000000000E+00 -0.34305145962E+03  0.34305145962E+03  0.00000000000E+00 0. -1.
          6    1    1    2  501    0  0.45834088370E+02  0.52699720734E+02 -0.21587967466E+03  0.28532623110E+03  0.17300000000E+03 0. -1.
         -6    1    1    2    0  502 -0.45834088370E+02 -0.52699720734E+02  0.16769298013E+01  0.18657394329E+03  0.17300000000E+03 0.  1.
<mgrwt>
<rscale>  2 0.18656641E+03</rscale>
<asrwt>0</asrwt>
<pdfrwt beam="1">  1       21 0.19822879E-01 0.18656641E+03</pdfrwt>
<pdfrwt beam="2">  1       21 0.52777148E-01 0.18656641E+03</pdfrwt>
<totfact> 0.80058676E+04</totfact>
</mgrwt>
</event>
<event>
 4    1  0.4023583E+000  0.2107002E+03  0.7546771E-02  0.1141013E+00
         21   -1    0    0  501  502  0.00000000000E+00  0.00000000000E+00  0.12473571893E+04  0.12473571893E+04  0.00000000000E+00 0.  1.
         21   -1    0    0  502  503 -0.00000000000E+00 -0.00000000000E+00 -0.36403383708E+02  0.36403383708E+02  0.00000000000E+00 0.  1.
          6    1    1    2  501    0  0.10779664518E+03 -0.53342809073E+02  0.50958344228E+03  0.55142529561E+03  0.17300000000E+03 0.  1.
         -6    1    1    2    0  503 -0.10779664518E+03  0.53342809073E+02  0.70137036334E+03  0.73233527742E+03  0.17300000000E+03 0.  1.
<mgrwt>
<rscale>  2 0.21070019E+03</rscale>
<asrwt>0</asrwt>
<pdfrwt beam="1">  1       21 0.19190107E+00 0.21070019E+03</pdfrwt>
<pdfrwt beam="2">  1       21 0.56005215E-02 0.21070019E+03</pdfrwt>
<totfact> 0.33207991E+04</totfact>
</mgrwt>
</event>
<event>
 4    1  0.4023583E+000  0.2225240E+03  0.7546771E-02  0.1132015E+00
         21   -1    0    0  503  502  0.00000000000E+00  0.00000000000E+00  0.14061461380E+03  0.14061461380E+03  0.00000000000E+00 0.  1.
         21   -1    0    0  501  503 -0.00000000000E+00 -0.00000000000E+00 -0.36515736938E+03  0.36515736938E+03  0.00000000000E+00 0.  1.
          6    1    1    2  501    0 -0.63700136089E+02 -0.12462039069E+03 -0.16000641893E+03  0.27407846178E+03  0.17300000000E+03 0.  1.
         -6    1    1    2    0  502  0.63700136089E+02  0.12462039069E+03 -0.64536336658E+02  0.23169352141E+03  0.17300000000E+03 0.  1.
<mgrwt>
<rscale>  2 0.22252404E+03</rscale>
<asrwt>0</asrwt>
<pdfrwt beam="1">  1       21 0.21633018E-01 0.22252404E+03</pdfrwt>
<pdfrwt beam="2">  1       21 0.56178056E-01 0.22252404E+03</pdfrwt>
<totfact> 0.58616244E+04</totfact>
</mgrwt>
</event>
<event>
 4    1  0.4023583E+000  0.2627646E+03  0.7546771E-02  0.1105493E+00
         21   -1    0    0  501  502  0.00000000000E+00  0.00000000000E+00  0.23602451078E+04  0.23602451078E+04  0.00000000000E+00 0.  1.
         21   -1    0    0  502  503 -0.00000000000E+00 -0.00000000000E+00 -0.52580977020E+02  0.52580977020E+02  0.00000000000E+00 0. -1.
          6    1    1    2  501    0  0.19044687826E+03  0.53350146880E+02  0.19573883233E+04  0.19749466574E+04  0.17300000000E+03 0.  1.
         -6    1    1    2    0  503 -0.19044687826E+03 -0.53350146880E+02  0.35027580754E+03  0.43787942742E+03  0.17300000000E+03 0. -1.
<mgrwt>
<rscale>  2 0.26276463E+03</rscale>
<asrwt>0</asrwt>
<pdfrwt beam="1">  1       21 0.36311455E+00 0.26276463E+03</pdfrwt>
<pdfrwt beam="2">  1       21 0.80893829E-02 0.26276463E+03</pdfrwt>
<totfact> 0.15796376E+03</totfact>
</mgrwt>
</event>
<event>
 4    1  0.4023583E+000  0.2134359E+03  0.7546771E-02  0.1138874E+00
         21   -1    0    0  503  502  0.00000000000E+00  0.00000000000E+00  0.45795039615E+02  0.45795039615E+02  0.00000000000E+00 0.  1.
         21   -1    0    0  501  503 -0.00000000000E+00 -0.00000000000E+00 -0.10656555956E+04  0.10656555956E+04  0.00000000000E+00 0. -1.
          6    1    1    2  501    0 -0.93764414201E+02 -0.82668833364E+02 -0.65327209132E+03  0.68725492118E+03  0.17300000000E+03 0.  1.
         -6    1    1    2    0  502  0.93764414201E+02  0.82668833364E+02 -0.36658846462E+03  0.42419571399E+03  0.17300000000E+03 0. -1.
<mgrwt>
<rscale>  2 0.21343594E+03</rscale>
<asrwt>0</asrwt>
<pdfrwt beam="1">  1       21 0.70453913E-02 0.21343594E+03</pdfrwt>
<pdfrwt beam="2">  1       21 0.16394700E+00 0.21343594E+03</pdfrwt>
<totfact> 0.34794881E+04</totfact>
</mgrwt>
</event>
<event>
 4    1  0.4023583E+000  0.2645149E+03  0.7546771E-02  0.1104461E+00
         21   -1    0    0  501  502  0.00000000000E+00  0.00000000000E+00  0.14107906948E+03  0.14107906948E+03  0.00000000000E+00 0.  1.
         21   -1    0    0  502  503 -0.00000000000E+00 -0.00000000000E+00 -0.69418763678E+03  0.69418763678E+03  0.00000000000E+00 0.  1.
          6    1    1    2  501    0 -0.16537898763E+03  0.11264507943E+03 -0.53376935814E+02  0.26984666154E+03  0.17300000000E+03 0.  1.
         -6    1    1    2    0  503  0.16537898763E+03 -0.11264507943E+03 -0.49973163148E+03  0.56542004472E+03  0.17300000000E+03 0.  1.
<mgrwt>
<rscale>  2 0.26451488E+03</rscale>
<asrwt>0</asrwt>
<pdfrwt beam="1">  1       21 0.21704472E-01 0.26451488E+03</pdfrwt>
<pdfrwt beam="2">  1       21 0.10679810E+00 0.26451488E+03</pdfrwt>
<totfact> 0.13308395E+04</totfact>
</mgrwt>
</event>
<event>
 4    1  0.4023583E+000  0.2407555E+03  0.7546771E-02  0.1119291E+00
         21   -1    0    0  501  502  0.00000000000E+00  0.00000000000E+00  0.11210698057E+04  0.11210698057E+04  0.00000000000E+00 0.  1.
         21   -1    0    0  502  503 -0.00000000000E+00 -0.00000000000E+00 -0.51749246266E+02  0.51749246266E+02  0.00000000000E+00 0.  1.
          6    1    1    2  501    0  0.16287193549E+03  0.38819151219E+02  0.55210207450E+03  0.60231212386E+03  0.17300000000E+03 0.  1.
         -6    1    1    2    0  503 -0.16287193549E+03 -0.38819151219E+02  0.51721848495E+03  0.57050692813E+03  0.17300000000E+03 0.  1.
<mgrwt>
<rscale>  2 0.24075546E+03</rscale>
<asrwt>0</asrwt>
<pdfrwt beam="1">  1       21 0.17247226E+00 0.24075546E+03</pdfrwt>
<pdfrwt beam="2">  1       21 0.79614234E-02 0.24075546E+03</pdfrwt>
<totfact> 0.24065988E+04</totfact>
</mgrwt>
</event>
<event>
 4    1  0.4023583E+000  0.2095832E+03  0.7546771E-02  0.1141897E+00
         21   -1    0    0  501  502  0.00000000000E+00  0.00000000000E+00  0.12469628795E+04  0.12469628795E+04  0.00000000000E+00 0.  1.
         21   -1    0    0  502  503 -0.00000000000E+00 -0.00000000000E+00 -0.50116302017E+02  0.50116302017E+02  0.00000000000E+00 0.  1.
          6    1    1    2  501    0  0.23087763096E+01 -0.11828258534E+03  0.95193481507E+03  0.97473329305E+03  0.17300000000E+03 0.  1.
         -6    1    1    2    0  503 -0.23087763096E+01  0.11828258534E+03  0.24491176242E+03  0.32234588848E+03  0.17300000000E+03 0.  1.
<mgrwt>
<rscale>  2 0.20958316E+03</rscale>
<asrwt>0</asrwt>
<pdfrwt beam="1">  1       21 0.19184042E+00 0.20958316E+03</pdfrwt>
<pdfrwt beam="2">  1       21 0.77102013E-02 0.20958316E+03</pdfrwt>
<totfact> 0.19168199E+04</totfact>
</mgrwt>
</event>
<event>
 4    1  0.4023583E+000  0.1858455E+03  0.7546771E-02  0.1162263E+00
         21   -1    0    0  503  502  0.00000000000E+00  0.00000000000E+00  0.32761880180E+03  0.32761880180E+03  0.00000000000E+00 0. -1.
         21   -1    0    0  501  503 -0.00000000000E+00 -0.00000000000E+00 -0.11490506190E+03  0.11490506190E+03  0.00000000000E+00 0.  1.
          6    1    1    2  501    0  0.60401885447E+02 -0.31002655208E+02  0.42796146719E+02  0.19070936676E+03  0.17300000000E+03 0.  1.
         -6    1    1    2    0  502 -0.60401885447E+02  0.31002655208E+02  0.16991759318E+03  0.25181449694E+03  0.17300000000E+03 0. -1.
<mgrwt>
<rscale>  2 0.18584551E+03</rscale>
<asrwt>0</asrwt>
<pdfrwt beam="1">  1       21 0.50402892E-01 0.18584551E+03</pdfrwt>
<pdfrwt beam="2">  1       21 0.17677702E-01 0.18584551E+03</pdfrwt>
<totfact> 0.10904624E+05</totfact>
</mgrwt>
</event>
<event>
 4    1  0.4023583E+000  0.2341306E+03  0.7546771E-02  0.1123766E+00
         21   -1    0    0  501  502  0.00000000000E+00  0.00000000000E+00  0.27559060415E+03  0.27559060415E+03  0.00000000000E+00 0. -1.
         21   -1    0    0  502  503 -0.00000000000E+00 -0.00000000000E+00 -0.25682558619E+03  0.25682558619E+03  0.00000000000E+00 0.  1.
          6    1    1    2  501    0 -0.39080281987E+02  0.15284261871E+03  0.13580021440E+03  0.27066368941E+03  0.17300000000E+03 0. -1.
         -6    1    1    2    0  503  0.39080281987E+02 -0.15284261871E+03 -0.11703519644E+03  0.26175250093E+03  0.17300000000E+03 0.  1.
<mgrwt>
<rscale>  2 0.23413059E+03</rscale>
<asrwt>0</asrwt>
<pdfrwt beam="1">  1       21 0.42398555E-01 0.23413059E+03</pdfrwt>
<pdfrwt beam="2">  1       21 0.39511629E-01 0.23413059E+03</pdfrwt>
<totfact> 0.32359193E+04</totfact>
</mgrwt>
</event>
<event>
 4    1  0.4023583E+000  0.1924747E+03  0.7546771E-02  0.1156248E+00
         21   -1    0    0  503  502  0.00000000000E+00  0.00000000000E+00  0.44571706059E+02  0.44571706059E+02  0.00000000000E+00 0.  1.
         21   -1    0    0  501  503 -0.00000000000E+00 -0.00000000000E+00 -0.10341063213E+04  0.10341063213E+04  0.00000000000E+00 0.  1.
          6    1    1    2  501    0  0.69752903149E+02  0.47455789693E+02 -0.73369287373E+03  0.75851944763E+03  0.17300000000E+03 0.  1.
         -6    1    1    2    0  502 -0.69752903149E+02 -0.47455789693E+02 -0.25584174151E+03  0.32015857972E+03  0.17300000000E+03 0.  1.
<mgrwt>
<rscale>  2 0.19247472E+03</rscale>
<asrwt>0</asrwt>
<pdfrwt beam="1">  1       21 0.68571858E-02 0.19247472E+03</pdfrwt>
<pdfrwt beam="2">  1       21 0.15909327E+00 0.19247472E+03</pdfrwt>
<totfact> 0.40066636E+04</totfact>
</mgrwt>
</event>
<event>
 4    1  0.4023583E+000  0.1963965E+03  0.7546771E-02  0.1152815E+00
         21   -1    0    0  501  502  0.00000000000E+00  0.00000000000E+00  0.98984255933E+02  0.98984255933E+02  0.00000000000E+00 0.  1.
         21   -1    0    0  502  503 -0.00000000000E+00 -0.00000000000E+00 -0.73875310276E+03  0.73875310276E+03  0.00000000000E+00 0. -1.
          6    1    1    2  501    0 -0.86847850593E+02 -0.33166714031E+02 -0.31952232172E+02  0.19897870543E+03  0.17300000000E+03 0.  1.
         -6    1    1    2    0  503  0.86847850593E+02  0.33166714031E+02 -0.60781661466E+03  0.63875865327E+03  0.17300000000E+03 0. -1.
<mgrwt>
<rscale>  2 0.19639649E+03</rscale>
<asrwt>0</asrwt>
<pdfrwt beam="1">  1       21 0.15228347E-01 0.19639649E+03</pdfrwt>
<pdfrwt beam="2">  1       21 0.11365432E+00 0.19639649E+03</pdfrwt>
<totfact> 0.22971475E+04</totfact>
</mgrwt>
</event>
<event>
 4    1  0.4023583E+000  0.2101329E+03  0.7546771E-02  0.1141461E+00
         21   -1    0    0  503  502  0.00000000000E+00  0.00000000000E+00  0.14642054359E+04  0.14642054359E+04  0.00000000000E+00 0.  1.
         21   -1    0    0  501  503 -0.00000000000E+00 -0.00000000000E+00 -0.67768453452E+02  0.67768453452E+02  0.00000000000E+00 0.  1.
          6    1    1    2  501    0 -0.11466341203E+03  0.32850181435E+02  0.12757026719E+03  0.24582515239E+03  0.17300000000E+03 0.  1.
         -6    1    1    2    0  502  0.11466341203E+03 -0.32850181435E+02  0.12688667152E+04  0.12861487369E+04  0.17300000000E+03 0.  1.
<mgrwt>
<rscale>  2 0.21013289E+03</rscale>
<asrwt>0</asrwt>
<pdfrwt beam="1">  1       21 0.22526235E+00 0.21013289E+03</pdfrwt>
<pdfrwt beam="2">  1       21 0.10425917E-01 0.21013289E+03</pdfrwt>
<totfact> 0.69297244E+03</totfact>
</mgrwt>
</event>
<event>
 4    1  0.4023583E+000  0.2053539E+03  0.7546771E-02  0.1145299E+00
         21   -1    0    0  503  502  0.00000000000E+00  0.00000000000E+00  0.37542480669E+02  0.37542480669E+02  0.00000000000E+00 0. -1.
         21   -1    0    0  501  503 -0.00000000000E+00 -0.00000000000E+00 -0.17120165963E+04  0.17120165963E+04  0.00000000000E+00 0.  1.
          6    1    1    2  501    0  0.20021164551E+02 -0.10881340715E+03 -0.13502285800E+04  0.13657552573E+04  0.17300000000E+03 0.  1.
         -6    1    1    2    0  502 -0.20021164551E+02  0.10881340715E+03 -0.32424553556E+03  0.38380381960E+03  0.17300000000E+03 0. -1.
<mgrwt>
<rscale>  2 0.20535385E+03</rscale>
<asrwt>0</asrwt>
<pdfrwt beam="1">  1       21 0.57757663E-02 0.20535385E+03</pdfrwt>
<pdfrwt beam="2">  1       21 0.26338717E+00 0.20535385E+03</pdfrwt>
<totfact> 0.11545953E+04</totfact>
</mgrwt>
</event>
<event>
 4    1  0.4023583E+000  0.4400425E+03  0.7546771E-02  0.1030734E+00
         21   -1    0    0  501  502  0.00000000000E+00  0.00000000000E+00  0.80587424457E+03  0.80587424457E+03  0.00000000000E+00 0.  1.
         21   -1    0    0  502  503 -0.00000000000E+00 -0.00000000000E+00 -0.24038614109E+03  0.24038614109E+03  0.00000000000E+00 0. -1.
          6    1    1    2  501    0 -0.12716662199E+03  0.38410554468E+03  0.27187793632E+03  0.51725721982E+03  0.17300000000E+03 0.  1.
         -6    1    1    2    0  503  0.12716662199E+03 -0.38410554468E+03  0.29361016717E+03  0.52900316584E+03  0.17300000000E+03 0. -1.
<mgrwt>
<rscale>  2 0.44004252E+03</rscale>
<asrwt>0</asrwt>
<pdfrwt beam="1">  1       21 0.12398065E+00 0.44004252E+03</pdfrwt>
<pdfrwt beam="2">  1       21 0.36982484E-01 0.44004252E+03</pdfrwt>
<totfact> 0.29868795E+03</totfact>
</mgrwt>
</event>
<event>
 4    1  0.4023583E+000  0.2795536E+03  0.7546771E-02  0.1095933E+00
         21   -1    0    0  501  502  0.00000000000E+00  0.00000000000E+00  0.29363864243E+03  0.29363864243E+03  0.00000000000E+00 0.  1.
         21   -1    0    0  502  503 -0.00000000000E+00 -0.00000000000E+00 -0.26700080787E+03  0.26700080787E+03  0.00000000000E+00 0. -1.
          6    1    1    2  501    0  0.10635191540E+03 -0.19212105907E+03 -0.25585071692E+01  0.27956533620E+03  0.17300000000E+03 0. -1.
         -6    1    1    2    0  503 -0.10635191540E+03  0.19212105907E+03  0.29196341729E+02  0.28107411410E+03  0.17300000000E+03 0.  1.
<mgrwt>
<rscale>  2 0.27955363E+03</rscale>
<asrwt>0</asrwt>
<pdfrwt beam="1">  1       21 0.45175176E-01 0.27955363E+03</pdfrwt>
<pdfrwt beam="2">  1       21 0.41077047E-01 0.27955363E+03</pdfrwt>
<totfact> 0.25722702E+04</totfact>
</mgrwt>
</event>
<event>
 4    1  0.4023583E+000  0.2021838E+03  0.7546771E-02  0.1147909E+00
         21   -1    0    0  503  502  0.00000000000E+00  0.00000000000E+00  0.33754978444E+03  0.33754978444E+03  0.00000000000E+00 0.  1.
         21   -1    0    0  501  503 -0.00000000000E+00 -0.00000000000E+00 -0.16966937182E+03  0.16966937182E+03  0.00000000000E+00 0.  1.
          6    1    1    2  501    0 -0.98646956043E+02  0.34900961367E+02 -0.51744736709E+02  0.20870030383E+03  0.17300000000E+03 0.  1.
         -6    1    1    2    0  502  0.98646956043E+02 -0.34900961367E+02  0.21962514933E+03  0.29851885244E+03  0.17300000000E+03 0.  1.
<mgrwt>
<rscale>  2 0.20218382E+03</rscale>
<asrwt>0</asrwt>
<pdfrwt beam="1">  1       21 0.51930736E-01 0.20218382E+03</pdfrwt>
<pdfrwt beam="2">  1       21 0.26102980E-01 0.20218382E+03</pdfrwt>
<totfact> 0.48862009E+04</totfact>
</mgrwt>
</event>
<event>
 4    1  0.4023583E+000  0.1749035E+03  0.7546771E-02  0.1172829E+00
         21   -1    0    0  501  502  0.00000000000E+00  0.00000000000E+00  0.30683095124E+03  0.30683095124E+03  0.00000000000E+00 0. -1.
         21   -1    0    0  502  503 -0.00000000000E+00 -0.00000000000E+00 -0.16404290488E+03  0.16404290488E+03  0.00000000000E+00 0. -1.
          6    1    1    2  501    0  0.20217152796E+02  0.15921356423E+02  0.21884384154E+03  0.28014969184E+03  0.17300000000E+03 0. -1.
         -6    1    1    2    0  503 -0.20217152796E+02 -0.15921356423E+02 -0.76055795178E+02  0.19072416427E+03  0.17300000000E+03 0. -1.
<mgrwt>
<rscale>  2 0.17490347E+03</rscale>
<asrwt>0</asrwt>
<pdfrwt beam="1">  1       21 0.47204762E-01 0.17490347E+03</pdfrwt>
<pdfrwt beam="2">  1       21 0.25237370E-01 0.17490347E+03</pdfrwt>
<totfact> 0.64377257E+04</totfact>
</mgrwt>
</event>
<event>
 4    1  0.4023583E+000  0.2062567E+03  0.7546771E-02  0.1144565E+00
         21   -1    0    0  501  502  0.00000000000E+00  0.00000000000E+00  0.18472087363E+03  0.18472087363E+03  0.00000000000E+00 0. -1.
         21   -1    0    0  502  503 -0.00000000000E+00 -0.00000000000E+00 -0.24091676053E+03  0.24091676053E+03  0.00000000000E+00 0. -1.
          6    1    1    2  501    0  0.20775748172E+01 -0.11228754128E+03 -0.72767030296E+02  0.21871636643E+03  0.17300000000E+03 0. -1.
         -6    1    1    2    0  503 -0.20775748172E+01  0.11228754128E+03  0.16571143393E+02  0.20692126773E+03  0.17300000000E+03 0. -1.
<mgrwt>
<rscale>  2 0.20625666E+03</rscale>
<asrwt>0</asrwt>
<pdfrwt beam="1">  1       21 0.28418596E-01 0.20625666E+03</pdfrwt>
<pdfrwt beam="2">  1       21 0.37064117E-01 0.20625666E+03</pdfrwt>
<totfact> 0.82634454E+04</totfact>
</mgrwt>
</event>
<event>
 4    1  0.4023583E+000  0.2173956E+03  0.7546771E-02  0.1135840E+00
         21   -1    0    0  501  502  0.00000000000E+00  0.00000000000E+00  0.51951315889E+03  0.51951315889E+03  0.00000000000E+00 0.  1.
         21   -1    0    0  502  503 -0.00000000000E+00 -0.00000000000E+00 -0.25133281922E+03  0.25133281922E+03  0.00000000000E+00 0.  1.
          6    1    1    2  501    0 -0.96274245507E+02 -0.89794911952E+02  0.44195701020E+03  0.49253107052E+03  0.17300000000E+03 0.  1.
         -6    1    1    2    0  503  0.96274245507E+02  0.89794911952E+02 -0.17377667053E+03  0.27831490758E+03  0.17300000000E+03 0.  1.
<mgrwt>
<rscale>  2 0.21739562E+03</rscale>
<asrwt>0</asrwt>
<pdfrwt beam="1">  1       21 0.79925101E-01 0.21739562E+03</pdfrwt>
<pdfrwt beam="2">  1       21 0.38666588E-01 0.21739562E+03</pdfrwt>
<totfact> 0.87383433E+03</totfact>
</mgrwt>
</event>
<event>
 4    1  0.4023583E+000  0.2942792E+03  0.7546771E-02  0.1088136E+00
         21   -1    0    0  501  502  0.00000000000E+00  0.00000000000E+00  0.17550624926E+03  0.17550624926E+03  0.00000000000E+00 0. -1.
         21   -1    0    0  502  503 -0.00000000000E+00 -0.00000000000E+00 -0.58692596853E+03  0.58692596853E+03  0.00000000000E+00 0. -1.
          6    1    1    2  501    0 -0.12932641807E+03 -0.19986482910E+03 -0.53559472060E+02  0.29911350583E+03  0.17300000000E+03 0. -1.
         -6    1    1    2    0  503  0.12932641807E+03  0.19986482910E+03 -0.35786024721E+03  0.46331871196E+03  0.17300000000E+03 0. -1.
<mgrwt>
<rscale>  2 0.29427924E+03</rscale>
<asrwt>0</asrwt>
<pdfrwt beam="1">  1       21 0.27000961E-01 0.29427924E+03</pdfrwt>
<pdfrwt beam="2">  1       21 0.90296305E-01 0.29427924E+03</pdfrwt>
<totfact> 0.12881252E+04</totfact>
</mgrwt>
</event>
<event>
 4    1  0.4023583E+000  0.2293648E+03  0.7546771E-02  0.1127088E+00
         21   -1    0    0  503  502  0.00000000000E+00  0.00000000000E+00  0.26274076961E+02  0.26274076961E+02  0.00000000000E+00 0. -1.
         21   -1    0    0  501  503 -0.00000000000E+00 -0.00000000000E+00 -0.22197776852E+04  0.22197776852E+04  0.00000000000E+00 0. -1.
          6    1    1    2  501    0  0.98047679428E+02 -0.11430591258E+03 -0.14482777567E+04  0.14663276065E+04  0.17300000000E+03 0. -1.
         -6    1    1    2    0  502 -0.98047679428E+02  0.11430591258E+03 -0.74522585159E+03  0.77972415569E+03  0.17300000000E+03 0. -1.
<mgrwt>
<rscale>  2 0.22936475E+03</rscale>
<asrwt>0</asrwt>
<pdfrwt beam="1">  1       21 0.40421643E-02 0.22936475E+03</pdfrwt>
<pdfrwt beam="2">  1       21 0.34150438E+00 0.22936475E+03</pdfrwt>
<totfact> 0.72483432E+03</totfact>
</mgrwt>
</event>
<event>
 4    1  0.4023583E+000  0.3007089E+03  0.7546771E-02  0.1084887E+00
         21   -1    0    0  501  502  0.00000000000E+00  0.00000000000E+00  0.64069684301E+03  0.64069684301E+03  0.00000000000E+00 0.  1.
         21   -1    0    0  502  503 -0.00000000000E+00 -0.00000000000E+00 -0.39437325854E+03  0.39437325854E+03  0.00000000000E+00 0.  1.
          6    1    1    2  501    0  0.66719012342E+02 -0.23673911006E+03  0.53787631819E+03  0.61622785276E+03  0.17300000000E+03 0.  1.
         -6    1    1    2    0  503 -0.66719012342E+02  0.23673911006E+03 -0.29155273371E+03  0.41884224880E+03  0.17300000000E+03 0.  1.
<mgrwt>
<rscale>  2 0.30070888E+03</rscale>
<asrwt>0</asrwt>
<pdfrwt beam="1">  1       21 0.98568745E-01 0.30070888E+03</pdfrwt>
<pdfrwt beam="2">  1       21 0.60672809E-01 0.30070888E+03</pdfrwt>
<totfact> 0.19850804E+03</totfact>
</mgrwt>
</event>
<event>
 4    1  0.4023583E+000  0.1967320E+03  0.7546771E-02  0.1152526E+00
         21   -1    0    0  503  502  0.00000000000E+00  0.00000000000E+00  0.39033787972E+03  0.39033787972E+03  0.00000000000E+00 0.  1.
         21   -1    0    0  501  503 -0.00000000000E+00 -0.00000000000E+00 -0.31489775406E+03  0.31489775406E+03  0.00000000000E+00 0.  1.
          6    1    1    2  501    0 -0.92058341723E+02  0.17312651631E+02 -0.25414951763E+03  0.32139608507E+03  0.17300000000E+03 0.  1.
         -6    1    1    2    0  502  0.92058341723E+02 -0.17312651631E+02  0.32958964329E+03  0.38383954871E+03  0.17300000000E+03 0.  1.
<mgrwt>
<rscale>  2 0.19673197E+03</rscale>
<asrwt>0</asrwt>
<pdfrwt beam="1">  1       21 0.60051981E-01 0.19673197E+03</pdfrwt>
<pdfrwt beam="2">  1       21 0.48445808E-01 0.19673197E+03</pdfrwt>
<totfact> 0.10495169E+04</totfact>
</mgrwt>
</event>
<event>
 4    1  0.4023583E+000  0.1882688E+03  0.7546771E-02  0.1160032E+00
         21   -1    0    0  501  502  0.00000000000E+00  0.00000000000E+00  0.32347346738E+03  0.32347346738E+03  0.00000000000E+00 0. -1.
         21   -1    0    0  502  503 -0.00000000000E+00 -0.00000000000E+00 -0.22506778351E+03  0.22506778351E+03  0.00000000000E+00 0. -1.
          6    1    1    2  501    0 -0.63531045648E+02 -0.38470205370E+02  0.24567313127E+03  0.30951645819E+03  0.17300000000E+03 0. -1.
         -6    1    1    2    0  503  0.63531045648E+02  0.38470205370E+02 -0.14726744741E+03  0.23902479271E+03  0.17300000000E+03 0. -1.
<mgrwt>
<rscale>  2 0.18826882E+03</rscale>
<asrwt>0</asrwt>
<pdfrwt beam="1">  1       21 0.49765149E-01 0.18826882E+03</pdfrwt>
<pdfrwt beam="2">  1       21 0.34625813E-01 0.18826882E+03</pdfrwt>
<totfact> 0.31006479E+04</totfact>
</mgrwt>
</event>
<event>
 4    1  0.4023583E+000  0.1841272E+03  0.7546771E-02  0.1163867E+00
         21   -1    0    0  501  502  0.00000000000E+00  0.00000000000E+00  0.14621706069E+03  0.14621706069E+03  0.00000000000E+00 0.  1.
         21   -1    0    0  502  503 -0.00000000000E+00 -0.00000000000E+00 -0.30870009029E+03  0.30870009029E+03  0.00000000000E+00 0.  1.
          6    1    1    2  501    0  0.58702875022E+02  0.22973755960E+02  0.32236003922E+02  0.18692774258E+03  0.17300000000E+03 0.  1.
         -6    1    1    2    0  503 -0.58702875022E+02 -0.22973755960E+02 -0.19471903352E+03  0.26798940840E+03  0.17300000000E+03 0.  1.
<mgrwt>
<rscale>  2 0.18412719E+03</rscale>
<asrwt>0</asrwt>
<pdfrwt beam="1">  1       21 0.22494933E-01 0.18412719E+03</pdfrwt>
<pdfrwt beam="2">  1       21 0.47492321E-01 0.18412719E+03</pdfrwt>
<totfact> 0.78758796E+04</totfact>
</mgrwt>
</event>
<event>
 4    1  0.4023583E+000  0.2330509E+03  0.7546771E-02  0.1124511E+00
         21   -1    0    0  503  502  0.00000000000E+00  0.00000000000E+00  0.19667600787E+04  0.19667600787E+04  0.00000000000E+00 0.  1.
         21   -1    0    0  501  503 -0.00000000000E+00 -0.00000000000E+00 -0.31613874312E+02  0.31613874312E+02  0.00000000000E+00 0.  1.
          6    1    1    2  501    0  0.35928942338E+02  0.15196322828E+03  0.61222064040E+03  0.65507772377E+03  0.17300000000E+03 0.  1.
         -6    1    1    2    0  502 -0.35928942338E+02 -0.15196322828E+03  0.13229255640E+04  0.13432962292E+04  0.17300000000E+03 0.  1.
<mgrwt>
<rscale>  2 0.23305088E+03</rscale>
<asrwt>0</asrwt>
<pdfrwt beam="1">  1       21 0.30257838E+00 0.23305088E+03</pdfrwt>
<pdfrwt beam="2">  1       21 0.48636745E-02 0.23305088E+03</pdfrwt>
<totfact> 0.89253604E+03</totfact>
</mgrwt>
</event>
<event>
 4    1  0.4023583E+000  0.2375475E+03  0.7546771E-02  0.1121437E+00
         21   -1    0    0  503  502  0.00000000000E+00  0.00000000000E+00  0.48074111929E+02  0.48074111929E+02  0.00000000000E+00 0. -1.
         21   -1    0    0  501  503 -0.00000000000E+00 -0.00000000000E+00 -0.11776370319E+04  0.11776370319E+04  0.00000000000E+00 0.  1.
          6    1    1    2  501    0 -0.15099182436E+03  0.60838311890E+02 -0.52974582870E+03  0.58056823392E+03  0.17300000000E+03 0. -1.
         -6    1    1    2    0  502  0.15099182436E+03 -0.60838311890E+02 -0.59981709124E+03  0.64514290987E+03  0.17300000000E+03 0.  1.
<mgrwt>
<rscale>  2 0.23754753E+03</rscale>
<asrwt>0</asrwt>
<pdfrwt beam="1">  1       21 0.73960169E-02 0.23754753E+03</pdfrwt>
<pdfrwt beam="2">  1       21 0.18117493E+00 0.23754753E+03</pdfrwt>
<totfact> 0.23855965E+04</totfact>
</mgrwt>
</event>
<event>
 4    1  0.4023583E+000  0.2053673E+03  0.7546771E-02  0.1145288E+00
         21   -1    0    0  501  502  0.00000000000E+00  0.00000000000E+00  0.34637481924E+03  0.34637481924E+03  0.00000000000E+00 0.  1.
         21   -1    0    0  502  503 -0.00000000000E+00 -0.00000000000E+00 -0.14963311638E+03  0.14963311638E+03  0.00000000000E+00 0.  1.
          6    1    1    2  501    0 -0.89160948862E+02 -0.65551914317E+02  0.20540247400E+03  0.29045809439E+03  0.17300000000E+03 0.  1.
         -6    1    1    2    0  503  0.89160948862E+02  0.65551914317E+02 -0.86607711289E+01  0.20554984123E+03  0.17300000000E+03 0.  1.
<mgrwt>
<rscale>  2 0.20536730E+03</rscale>
<asrwt>0</asrwt>
<pdfrwt beam="1">  1       21 0.53288434E-01 0.20536730E+03</pdfrwt>
<pdfrwt beam="2">  1       21 0.23020480E-01 0.20536730E+03</pdfrwt>
<totfact> 0.58729300E+04</totfact>
</mgrwt>
</event>
<event>
 4    1  0.4023583E+000  0.2671680E+03  0.7546771E-02  0.1102911E+00
         21   -1    0    0  503  502  0.00000000000E+00  0.00000000000E+00  0.12155686526E+03  0.12155686526E+03  0.00000000000E+00 0. -1.
         21   -1    0    0  501  503 -0.00000000000E+00 -0.00000000000E+00 -0.65496593968E+03  0.65496593968E+03  0.00000000000E+00 0.  1.
          6    1    1    2  501    0  0.16211874135E+03  0.12315535785E+03 -0.14182064314E+03  0.30247615325E+03  0.17300000000E+03 0. -1.
         -6    1    1    2    0  502 -0.16211874135E+03 -0.12315535785E+03 -0.39158843128E+03  0.47404665169E+03  0.17300000000E+03 0.  1.
<mgrwt>
<rscale>  2 0.26716798E+03</rscale>
<asrwt>0</asrwt>
<pdfrwt beam="1">  1       21 0.18701056E-01 0.26716798E+03</pdfrwt>
<pdfrwt beam="2">  1       21 0.10076399E+00 0.26716798E+03</pdfrwt>
<totfact> 0.20252707E+04</totfact>
</mgrwt>
</event>
<event>
 4    1  0.4023583E+000  0.1903823E+03  0.7546771E-02  0.1158117E+00
         21   -1    0    0  501  502  0.00000000000E+00  0.00000000000E+00  0.21851532741E+03  0.21851532741E+03  0.00000000000E+00 0.  1.
         21   -1    0    0  502  503 -0.00000000000E+00 -0.00000000000E+00 -0.66327532430E+03  0.66327532430E+03  0.00000000000E+00 0.  1.
          6    1    1    2  501    0  0.14636529499E+02 -0.78116430372E+02  0.15942644656E+03  0.24831873983E+03  0.17300000000E+03 0.  1.
         -6    1    1    2    0  503 -0.14636529499E+02  0.78116430372E+02 -0.60418644345E+03  0.63347191188E+03  0.17300000000E+03 0.  1.
<mgrwt>
<rscale>  2 0.19038226E+03</rscale>
<asrwt>0</asrwt>
<pdfrwt beam="1">  1       21 0.33617743E-01 0.19038226E+03</pdfrwt>
<pdfrwt beam="2">  1       21 0.10204236E+00 0.19038226E+03</pdfrwt>
<totfact> 0.66796170E+03</totfact>
</mgrwt>
</event>
<event>
 4    1  0.4023583E+000  0.2035037E+03  0.7546771E-02  0.1146816E+00
         21   -1    0    0  503  502  0.00000000000E+00  0.00000000000E+00  0.64767316300E+02  0.64767316300E+02  0.00000000000E+00 0. -1.
         21   -1    0    0  501  503 -0.00000000000E+00 -0.00000000000E+00 -0.73191510688E+03  0.73191510688E+03  0.00000000000E+00 0.  1.
          6    1    1    2  501    0  0.27550007968E+02  0.10356522056E+03 -0.47517790378E+03  0.51692146221E+03  0.17300000000E+03 0.  1.
         -6    1    1    2    0  502 -0.27550007968E+02 -0.10356522056E+03 -0.19196988680E+03  0.27976096097E+03  0.17300000000E+03 0. -1.
<mgrwt>
<rscale>  2 0.20350370E+03</rscale>
<asrwt>0</asrwt>
<pdfrwt beam="1">  1       21 0.99642023E-02 0.20350370E+03</pdfrwt>
<pdfrwt beam="2">  1       21 0.11260233E+00 0.20350370E+03</pdfrwt>
<totfact> 0.50107684E+04</totfact>
</mgrwt>
</event>
<event>
 4    1  0.4023583E+000  0.1956197E+03  0.7546771E-02  0.1153488E+00
         21   -1    0    0  501  502  0.00000000000E+00  0.00000000000E+00  0.45475675199E+02  0.45475675199E+02  0.00000000000E+00 0. -1.
         21   -1    0    0  502  503 -0.00000000000E+00 -0.00000000000E+00 -0.11187622484E+04  0.11187622484E+04  0.00000000000E+00 0. -1.
          6    1    1    2  501    0  0.95702495692E+01  0.90810105162E+02 -0.24684184455E+03  0.31495707818E+03  0.17300000000E+03 0. -1.
         -6    1    1    2    0  503 -0.95702495692E+01 -0.90810105162E+02 -0.82644472864E+03  0.84928084541E+03  0.17300000000E+03 0. -1.
<mgrwt>
<rscale>  2 0.19561969E+03</rscale>
<asrwt>0</asrwt>
<pdfrwt beam="1">  1       21 0.69962585E-02 0.19561969E+03</pdfrwt>
<pdfrwt beam="2">  1       21 0.17211725E+00 0.19561969E+03</pdfrwt>
<totfact> 0.31162390E+04</totfact>
</mgrwt>
</event>
<event>
 4    1  0.4023583E+000  0.1991016E+03  0.7546771E-02  0.1150499E+00
         21   -1    0    0  501  502  0.00000000000E+00  0.00000000000E+00  0.15361587005E+03  0.15361587005E+03  0.00000000000E+00 0. -1.
         21   -1    0    0  502  503 -0.00000000000E+00 -0.00000000000E+00 -0.27647513757E+03  0.27647513757E+03  0.00000000000E+00 0. -1.
          6    1    1    2  501    0  0.22736233665E+01 -0.98525499129E+02 -0.59234861617E+01  0.19918968605E+03  0.17300000000E+03 0. -1.
         -6    1    1    2    0  503 -0.22736233665E+01  0.98525499129E+02 -0.11693578136E+03  0.23090132157E+03  0.17300000000E+03 0. -1.
<mgrwt>
<rscale>  2 0.19910159E+03</rscale>
<asrwt>0</asrwt>
<pdfrwt beam="1">  1       21 0.23633211E-01 0.19910159E+03</pdfrwt>
<pdfrwt beam="2">  1       21 0.42534636E-01 0.19910159E+03</pdfrwt>
<totfact> 0.89401628E+04</totfact>
</mgrwt>
</event>
<event>
 4    1  0.4023583E+000  0.2092554E+03  0.7546771E-02  0.1142157E+00
         21   -1    0    0  503  502  0.00000000000E+00  0.00000000000E+00  0.10742914162E+04  0.10742914162E+04  0.00000000000E+00 0. -1.
         21   -1    0    0  501  503 -0.00000000000E+00 -0.00000000000E+00 -0.41639610640E+02  0.41639610640E+02  0.00000000000E+00 0. -1.
          6    1    1    2  501    0 -0.96035535304E+02  0.68088112562E+02  0.43521693328E+03  0.48290950926E+03  0.17300000000E+03 0. -1.
         -6    1    1    2    0  502  0.96035535304E+02 -0.68088112562E+02  0.59743487228E+03  0.63302151759E+03  0.17300000000E+03 0. -1.
<mgrwt>
<rscale>  2 0.20925538E+03</rscale>
<asrwt>0</asrwt>
<pdfrwt beam="1">  1       21 0.16527558E+00 0.20925538E+03</pdfrwt>
<pdfrwt beam="2">  1       21 0.64060948E-02 0.20925538E+03</pdfrwt>
<totfact> 0.40211631E+04</totfact>
</mgrwt>
</event>
<event>
 4    1  0.4023583E+000  0.1747430E+03  0.7546771E-02  0.1172990E+00
         21   -1    0    0  503  502  0.00000000000E+00  0.00000000000E+00  0.90425167074E+02  0.90425167074E+02  0.00000000000E+00 0. -1.
         21   -1    0    0  501  503 -0.00000000000E+00 -0.00000000000E+00 -0.35374699448E+03  0.35374699448E+03  0.00000000000E+00 0. -1.
          6    1    1    2  501    0 -0.15757420209E+02  0.18916127365E+02 -0.84335916106E+02  0.19403005672E+03  0.17300000000E+03 0. -1.
         -6    1    1    2    0  502  0.15757420209E+02 -0.18916127365E+02 -0.17898591131E+03  0.25014210484E+03  0.17300000000E+03 0. -1.
<mgrwt>
<rscale>  2 0.17474300E+03</rscale>
<asrwt>0</asrwt>
<pdfrwt beam="1">  1       21 0.13911564E-01 0.17474300E+03</pdfrwt>
<pdfrwt beam="2">  1       21 0.54422615E-01 0.17474300E+03</pdfrwt>
<totfact> 0.14432214E+05</totfact>
</mgrwt>
</event>
<event>
 4    1  0.4023583E+000  0.1819620E+03  0.7546771E-02  0.1165918E+00
         21   -1    0    0  503  502  0.00000000000E+00  0.00000000000E+00  0.10958225391E+04  0.10958225391E+04  0.00000000000E+00 0.  1.
         21   -1    0    0  501  503 -0.00000000000E+00 -0.00000000000E+00 -0.31327618229E+02  0.31327618229E+02  0.00000000000E+00 0.  1.
          6    1    1    2  501    0 -0.51999387190E+02  0.21845630128E+02  0.42603369582E+03  0.46326545068E+03  0.17300000000E+03 0.  1.
         -6    1    1    2    0  502  0.51999387190E+02 -0.21845630128E+02  0.63846122507E+03  0.66388470666E+03  0.17300000000E+03 0.  1.
<mgrwt>
<rscale>  2 0.18196200E+03</rscale>
<asrwt>0</asrwt>
<pdfrwt beam="1">  1       21 0.16858805E+00 0.18196200E+03</pdfrwt>
<pdfrwt beam="2">  1       21 0.48196344E-02 0.18196200E+03</pdfrwt>
<totfact> 0.62877050E+04</totfact>
</mgrwt>
</event>
<event>
 4    1  0.4023583E+000  0.3663966E+03  0.7546771E-02  0.1056079E+00
         21   -1    0    0  503  502  0.00000000000E+00  0.00000000000E+00  0.10587536168E+04  0.10587536168E+04  0.00000000000E+00 0. -1.
         21   -1    0    0  501  503 -0.00000000000E+00 -0.00000000000E+00 -0.16615859911E+03  0.16615859911E+03  0.00000000000E+00 0.  1.
          6    1    1    2  501    0  0.27358287602E+03 -0.17166782436E+03  0.14820452673E+03  0.39523539027E+03  0.17300000000E+03 0. -1.
         -6    1    1    2    0  502 -0.27358287602E+03  0.17166782436E+03  0.74439049100E+03  0.82967682567E+03  0.17300000000E+03 0.  1.
<mgrwt>
<rscale>  2 0.36639655E+03</rscale>
<asrwt>0</asrwt>
<pdfrwt beam="1">  1       21 0.16288517E+00 0.36639655E+03</pdfrwt>
<pdfrwt beam="2">  1       21 0.25562862E-01 0.36639655E+03</pdfrwt>
<totfact> 0.31041278E+03</totfact>
</mgrwt>
</event>
<event>
 4    1  0.4023583E+000  0.1922254E+03  0.7546771E-02  0.1156469E+00
         21   -1    0    0  503  502  0.00000000000E+00  0.00000000000E+00  0.16087075174E+03  0.16087075174E+03  0.00000000000E+00 0. -1.
         21   -1    0    0  501  503 -0.00000000000E+00 -0.00000000000E+00 -0.24527309378E+03  0.24527309378E+03  0.00000000000E+00 0. -1.
          6    1    1    2  501    0  0.13525517267E+02 -0.82696203252E+02 -0.93385210490E+02  0.21370867832E+03  0.17300000000E+03 0. -1.
         -6    1    1    2    0  502 -0.13525517267E+02  0.82696203252E+02  0.89828684510E+01  0.19243516720E+03  0.17300000000E+03 0. -1.
<mgrwt>
<rscale>  2 0.19222539E+03</rscale>
<asrwt>0</asrwt>
<pdfrwt beam="1">  1       21 0.24749346E-01 0.19222539E+03</pdfrwt>
<pdfrwt beam="2">  1       21 0.37734322E-01 0.19222539E+03</pdfrwt>
<totfact> 0.10460614E+05</totfact>
</mgrwt>
</event>
<event>
 4    1  0.4023583E+000  0.2359135E+03  0.7546771E-02  0.1122545E+00
         21   -1    0    0  501  502  0.00000000000E+00  0.00000000000E+00  0.61761984476E+02  0.61761984476E+02  0.00000000000E+00 0. -1.
         21   -1    0    0  502  503 -0.00000000000E+00 -0.00000000000E+00 -0.10263022383E+04  0.10263022383E+04  0.00000000000E+00 0. -1.
          6    1    1    2  501    0  0.11194711064E+03  0.11486513999E+03 -0.29227050640E+03  0.37560245590E+03  0.17300000000E+03 0. -1.
         -6    1    1    2    0  503 -0.11194711064E+03 -0.11486513999E+03 -0.67226974744E+03  0.71246176690E+03  0.17300000000E+03 0. -1.
<mgrwt>
<rscale>  2 0.23591345E+03</rscale>
<asrwt>0</asrwt>
<pdfrwt beam="1">  1       21 0.95018439E-02 0.23591345E+03</pdfrwt>
<pdfrwt beam="2">  1       21 0.15789265E+00 0.23591345E+03</pdfrwt>
<totfact> 0.22539451E+04</totfact>
</mgrwt>
</event>
<event>
 4    1  0.4023583E+000  0.3171701E+03  0.7546771E-02  0.1076959E+00
         21   -1    0    0  501  502  0.00000000000E+00  0.00000000000E+00  0.15981228294E+04  0.15981228294E+04  0.00000000000E+00 0. -1.
         21   -1    0    0  502  503 -0.00000000000E+00 -0.00000000000E+00 -0.67044376091E+02  0.67044376091E+02  0.00000000000E+00 0.  1.
          6    1    1    2  501    0  0.55641567954E+02 -0.25994591830E+03  0.97136764427E+03  0.10218375433E+04  0.17300000000E+03 0. -1.
         -6    1    1    2    0  503 -0.55641567954E+02  0.25994591830E+03  0.55971080903E+03  0.64332966220E+03  0.17300000000E+03 0.  1.
<mgrwt>
<rscale>  2 0.31717009E+03</rscale>
<asrwt>0</asrwt>
<pdfrwt beam="1">  1       21 0.24586502E+00 0.31717009E+03</pdfrwt>
<pdfrwt beam="2">  1       21 0.10314521E-01 0.31717009E+03</pdfrwt>
<totfact> 0.48917917E+03</totfact>
</mgrwt>
</event>
<event>
 4    1  0.4023583E+000  0.3581669E+03  0.7546771E-02  0.1059312E+00
         21   -1    0    0  503  502  0.00000000000E+00  0.00000000000E+00  0.40615748410E+03  0.40615748410E+03  0.00000000000E+00 0.  1.
         21   -1    0    0  501  503 -0.00000000000E+00 -0.00000000000E+00 -0.32416591421E+03  0.32416591421E+03  0.00000000000E+00 0. -1.
          6    1    1    2  501    0 -0.15084654986E+03 -0.27495432028E+03 -0.17501932385E+02  0.35859430765E+03  0.17300000000E+03 0. -1.
         -6    1    1    2    0  502  0.15084654986E+03  0.27495432028E+03  0.99493502277E+02  0.37172909065E+03  0.17300000000E+03 0.  1.
<mgrwt>
<rscale>  2 0.35816694E+03</rscale>
<asrwt>0</asrwt>
<pdfrwt beam="1">  1       21 0.62485767E-01 0.35816694E+03</pdfrwt>
<pdfrwt beam="2">  1       21 0.49871679E-01 0.35816694E+03</pdfrwt>
<totfact> 0.83403735E+03</totfact>
</mgrwt>
</event>
<event>
 4    1  0.4023583E+000  0.2007872E+03  0.7546771E-02  0.1149077E+00
         21   -1    0    0  503  502  0.00000000000E+00  0.00000000000E+00  0.10480660636E+03  0.10480660636E+03  0.00000000000E+00 0.  1.
         21   -1    0    0  501  503 -0.00000000000E+00 -0.00000000000E+00 -0.43073711802E+03  0.43073711802E+03  0.00000000000E+00 0.  1.
          6    1    1    2  501    0  0.74087867082E+02 -0.69982180624E+02 -0.25053903314E+03  0.32106903429E+03  0.17300000000E+03 0.  1.
         -6    1    1    2    0  502 -0.74087867082E+02  0.69982180624E+02 -0.75391478517E+02  0.21447469008E+03  0.17300000000E+03 0.  1.
<mgrwt>
<rscale>  2 0.20078724E+03</rscale>
<asrwt>0</asrwt>
<pdfrwt beam="1">  1       21 0.16124093E-01 0.20078724E+03</pdfrwt>
<pdfrwt beam="2">  1       21 0.66267249E-01 0.20078724E+03</pdfrwt>
<totfact> 0.71575753E+04</totfact>
</mgrwt>
</event>
<event>
 4    1  0.4023583E+000  0.3180175E+03  0.7546771E-02  0.1076565E+00
         21   -1    0    0  501  502  0.00000000000E+00  0.00000000000E+00  0.74805655290E+02  0.74805655290E+02  0.00000000000E+00 0.  1.
         21   -1    0    0  502  503 -0.00000000000E+00 -0.00000000000E+00 -0.17662971718E+04  0.17662971718E+04  0.00000000000E+00 0. -1.
          6    1    1    2  501    0 -0.51080715394E+02 -0.26191004099E+03 -0.39989745459E+03  0.51093354093E+03  0.17300000000E+03 0.  1.
         -6    1    1    2    0  503  0.51080715394E+02  0.26191004099E+03 -0.12915940619E+04  0.13301692862E+04  0.17300000000E+03 0. -1.
<mgrwt>
<rscale>  2 0.31801747E+03</rscale>
<asrwt>0</asrwt>
<pdfrwt beam="1">  1       21 0.11508563E-01 0.31801747E+03</pdfrwt>
<pdfrwt beam="2">  1       21 0.27173802E+00 0.31801747E+03</pdfrwt>
<totfact> 0.28090978E+03</totfact>
</mgrwt>
</event>
<event>
 4    1  0.4023583E+000  0.2017749E+03  0.7546771E-02  0.1148250E+00
         21   -1    0    0  501  502  0.00000000000E+00  0.00000000000E+00  0.30794232748E+03  0.30794232748E+03  0.00000000000E+00 0.  1.
         21   -1    0    0  502  503 -0.00000000000E+00 -0.00000000000E+00 -0.13438893506E+03  0.13438893506E+03  0.00000000000E+00 0.  1.
          6    1    1    2  501    0  0.29003179779E+02 -0.99714152459E+02  0.11493747033E+03  0.23221481160E+03  0.17300000000E+03 0.  1.
         -6    1    1    2    0  503 -0.29003179779E+02  0.99714152459E+02  0.58615922087E+02  0.21011645095E+03  0.17300000000E+03 0.  1.
<mgrwt>
<rscale>  2 0.20177487E+03</rscale>
<asrwt>0</asrwt>
<pdfrwt beam="1">  1       21 0.47375743E-01 0.20177487E+03</pdfrwt>
<pdfrwt beam="2">  1       21 0.20675221E-01 0.20177487E+03</pdfrwt>
<totfact> 0.92103146E+04</totfact>
</mgrwt>
</event>
<event>
 4    1  0.4023583E+000  0.2453177E+03  0.7546771E-02  0.1116300E+00
         21   -1    0    0  501  502  0.00000000000E+00  0.00000000000E+00  0.42247672206E+03  0.42247672206E+03  0.00000000000E+00 0. -1.
         21   -1    0    0  502  503 -0.00000000000E+00 -0.00000000000E+00 -0.90031308612E+03  0.90031308612E+03  0.00000000000E+00 0. -1.
          6    1    1    2  501    0  0.15097894858E+03  0.86354798791E+02  0.36790215647E+03  0.44219089874E+03  0.17300000000E+03 0. -1.
         -6    1    1    2    0  503 -0.15097894858E+03 -0.86354798791E+02 -0.84573852053E+03  0.88059890944E+03  0.17300000000E+03 0. -1.
<mgrwt>
<rscale>  2 0.24531774E+03</rscale>
<asrwt>0</asrwt>
<pdfrwt beam="1">  1       21 0.64996419E-01 0.24531774E+03</pdfrwt>
<pdfrwt beam="2">  1       21 0.13850971E+00 0.24531774E+03</pdfrwt>
<totfact> 0.76215603E+02</totfact>
</mgrwt>
</event>
<event>
 4    1  0.4023583E+000  0.2076182E+03  0.7546771E-02  0.1143466E+00
         21   -1    0    0  503  502  0.00000000000E+00  0.00000000000E+00  0.38024750480E+03  0.38024750480E+03  0.00000000000E+00 0.  1.
         21   -1    0    0  501  503 -0.00000000000E+00 -0.00000000000E+00 -0.12118041689E+03  0.12118041689E+03  0.00000000000E+00 0.  1.
          6    1    1    2  501    0 -0.11147881161E+03 -0.27363896489E+02  0.65847495271E+02  0.21781001102E+03  0.17300000000E+03 0.  1.
         -6    1    1    2    0  502  0.11147881161E+03  0.27363896489E+02  0.19321959265E+03  0.28361791067E+03  0.17300000000E+03 0.  1.
<mgrwt>
<rscale>  2 0.20761818E+03</rscale>
<asrwt>0</asrwt>
<pdfrwt beam="1">  1       21 0.58499615E-01 0.20761818E+03</pdfrwt>
<pdfrwt beam="2">  1       21 0.18643141E-01 0.20761818E+03</pdfrwt>
<totfact> 0.71493951E+04</totfact>
</mgrwt>
</event>
<event>
 4    1  0.4023583E+000  0.2257549E+03  0.7546771E-02  0.1129664E+00
         21   -1    0    0  503  502  0.00000000000E+00  0.00000000000E+00  0.12982484016E+03  0.12982484016E+03  0.00000000000E+00 0. -1.
         21   -1    0    0  501  503 -0.00000000000E+00 -0.00000000000E+00 -0.41137095661E+03  0.41137095661E+03  0.00000000000E+00 0.  1.
          6    1    1    2  501    0  0.13978744169E+03 -0.38674683092E+02 -0.82922909841E+02  0.24050253417E+03  0.17300000000E+03 0. -1.
         -6    1    1    2    0  502 -0.13978744169E+03  0.38674683092E+02 -0.19862320662E+03  0.30069326260E+03  0.17300000000E+03 0. -1.
<mgrwt>
<rscale>  2 0.22575487E+03</rscale>
<asrwt>0</asrwt>
<pdfrwt beam="1">  1       21 0.19973052E-01 0.22575487E+03</pdfrwt>
<pdfrwt beam="2">  1       21 0.63287840E-01 0.22575487E+03</pdfrwt>
<totfact> 0.52627040E+04</totfact>
</mgrwt>
</event>
<event>
 4    1  0.4023583E+000  0.1864638E+03  0.7546771E-02  0.1161690E+00
         21   -1    0    0  501  502  0.00000000000E+00  0.00000000000E+00  0.62048195736E+02  0.62048195736E+02  0.00000000000E+00 0. -1.
         21   -1    0    0  502  503 -0.00000000000E+00 -0.00000000000E+00 -0.14772744698E+04  0.14772744698E+04  0.00000000000E+00 0.  1.
          6    1    1    2  501    0  0.67346242472E+02 -0.17441879961E+02 -0.10124587898E+03  0.21217790545E+03  0.17300000000E+03 0. -1.
         -6    1    1    2    0  503 -0.67346242472E+02  0.17441879961E+02 -0.13139803950E+04  0.13271447600E+04  0.17300000000E+03 0.  1.
<mgrwt>
<rscale>  2 0.18646376E+03</rscale>
<asrwt>0</asrwt>
<pdfrwt beam="1">  1       21 0.95458765E-02 0.18646376E+03</pdfrwt>
<pdfrwt beam="2">  1       21 0.22727299E+00 0.18646376E+03</pdfrwt>
<totfact> 0.80473453E+03</totfact>
</mgrwt>
</event>
<event>
 4    1  0.4023583E+000  0.2110112E+03  0.7546771E-02  0.1140768E+00
         21   -1    0    0  501  502  0.00000000000E+00  0.00000000000E+00  0.14958961587E+03  0.14958961587E+03  0.00000000000E+00 0. -1.
         21   -1    0    0  502  503 -0.00000000000E+00 -0.00000000000E+00 -0.48477467007E+03  0.48477467007E+03  0.00000000000E+00 0.  1.
          6    1    1    2  501    0 -0.51333997914E+01 -0.12070778512E+03  0.29468801779E+02  0.21305898587E+03  0.17300000000E+03 0. -1.
         -6    1    1    2    0  503  0.51333997914E+01  0.12070778512E+03 -0.36465385598E+03  0.42130530007E+03  0.17300000000E+03 0.  1.
<mgrwt>
<rscale>  2 0.21101119E+03</rscale>
<asrwt>0</asrwt>
<pdfrwt beam="1">  1       21 0.23013788E-01 0.21101119E+03</pdfrwt>
<pdfrwt beam="2">  1       21 0.74580717E-01 0.21101119E+03</pdfrwt>
<totfact> 0.28250553E+04</totfact>
</mgrwt>
</event>
<event>
 4    1  0.4023583E+000  0.2642922E+03  0.7546771E-02  0.1104591E+00
         21   -1    0    0  503  502  0.00000000000E+00  0.00000000000E+00  0.38077691396E+03  0.38077691396E+03  0.00000000000E+00 0. -1.
         21   -1    0    0  501  503 -0.00000000000E+00 -0.00000000000E+00 -0.51624173514E+03  0.51624173514E+03  0.00000000000E+00 0.  1.
          6    1    1    2  501    0 -0.78732327494E+02 -0.18363708378E+03 -0.42784359787E+03  0.50289213771E+03  0.17300000000E+03 0.  1.
         -6    1    1    2    0  502  0.78732327494E+02  0.18363708378E+03  0.29237877669E+03  0.39412651140E+03  0.17300000000E+03 0. -1.
<mgrwt>
<rscale>  2 0.26429218E+03</rscale>
<asrwt>0</asrwt>
<pdfrwt beam="1">  1       21 0.58581064E-01 0.26429218E+03</pdfrwt>
<pdfrwt beam="2">  1       21 0.79421805E-01 0.26429218E+03</pdfrwt>
<totfact> 0.36221624E+03</totfact>
</mgrwt>
</event>
<event>
 4    1  0.4023583E+000  0.1791628E+03  0.7546771E-02  0.1168616E+00
         21   -1    0    0  501  502  0.00000000000E+00  0.00000000000E+00  0.85377027563E+03  0.85377027563E+03  0.00000000000E+00 0. -1.
         21   -1    0    0  502  503 -0.00000000000E+00 -0.00000000000E+00 -0.39609627380E+02  0.39609627380E+02  0.00000000000E+00 0. -1.
          6    1    1    2  501    0  0.31323024015E+02 -0.34484471361E+02  0.50776738157E+03  0.53844872029E+03  0.17300000000E+03 0. -1.
         -6    1    1    2    0  503 -0.31323024015E+02  0.34484471361E+02  0.30639326668E+03  0.35493118272E+03  0.17300000000E+03 0. -1.
<mgrwt>
<rscale>  2 0.17916280E+03</rscale>
<asrwt>0</asrwt>
<pdfrwt beam="1">  1       21 0.13134926E+00 0.17916280E+03</pdfrwt>
<pdfrwt beam="2">  1       21 0.60937895E-02 0.17916280E+03</pdfrwt>
<totfact> 0.81379371E+04</totfact>
</mgrwt>
</event>
<event>
 4    1  0.4023583E+000  0.1989473E+03  0.7546771E-02  0.1150630E+00
         21   -1    0    0  501  502  0.00000000000E+00  0.00000000000E+00  0.71245953498E+03  0.71245953498E+03  0.00000000000E+00 0.  1.
         21   -1    0    0  502  503 -0.00000000000E+00 -0.00000000000E+00 -0.90707894825E+02  0.90707894825E+02  0.00000000000E+00 0.  1.
          6    1    1    2  501    0 -0.84390369764E+02 -0.50292177978E+02  0.56087566975E+03  0.59511474069E+03  0.17300000000E+03 0.  1.
         -6    1    1    2    0  503  0.84390369764E+02  0.50292177978E+02  0.60875970409E+02  0.20805268911E+03  0.17300000000E+03 0.  1.
<mgrwt>
<rscale>  2 0.19894732E+03</rscale>
<asrwt>0</asrwt>
<pdfrwt beam="1">  1       21 0.10960916E+00 0.19894732E+03</pdfrwt>
<pdfrwt beam="2">  1       21 0.13955061E-01 0.19894732E+03</pdfrwt>
<totfact> 0.29353653E+04</totfact>
</mgrwt>
</event>
<event>
 4    1  0.4023583E+000  0.1936466E+03  0.7546771E-02  0.1155213E+00
         21   -1    0    0  503  502  0.00000000000E+00  0.00000000000E+00  0.26133649826E+03  0.26133649826E+03  0.00000000000E+00 0. -1.
         21   -1    0    0  501  503 -0.00000000000E+00 -0.00000000000E+00 -0.28516806709E+03  0.28516806709E+03  0.00000000000E+00 0. -1.
          6    1    1    2  501    0 -0.80336744802E+02 -0.33407070057E+02 -0.20451988960E+03  0.28165122073E+03  0.17300000000E+03 0. -1.
         -6    1    1    2    0  502  0.80336744802E+02  0.33407070057E+02  0.18068832077E+03  0.26485334462E+03  0.17300000000E+03 0. -1.
<mgrwt>
<rscale>  2 0.19364665E+03</rscale>
<asrwt>0</asrwt>
<pdfrwt beam="1">  1       21 0.40205615E-01 0.19364665E+03</pdfrwt>
<pdfrwt beam="2">  1       21 0.43872011E-01 0.19364665E+03</pdfrwt>
<totfact> 0.29743808E+04</totfact>
</mgrwt>
</event>
<event>
 4    1  0.4023583E+000  0.2121249E+03  0.7546771E-02  0.1139894E+00
         21   -1    0    0  501  502  0.00000000000E+00  0.00000000000E+00  0.10561881098E+03  0.10561881098E+03  0.00000000000E+00 0.  1.
         21   -1    0    0  502  503 -0.00000000000E+00 -0.00000000000E+00 -0.49832583500E+03  0.49832583500E+03  0.00000000000E+00 0.  1.
          6    1    1    2  501    0 -0.99640600269E+01 -0.12234651818E+03 -0.81336464386E+02  0.22718400789E+03  0.17300000000E+03 0.  1.
         -6    1    1    2    0  503  0.99640600269E+01  0.12234651818E+03 -0.31137055963E+03  0.37676063808E+03  0.17300000000E+03 0.  1.
<mgrwt>
<rscale>  2 0.21212485E+03</rscale>
<asrwt>0</asrwt>
<pdfrwt beam="1">  1       21 0.16249048E-01 0.21212485E+03</pdfrwt>
<pdfrwt beam="2">  1       21 0.76665511E-01 0.21212485E+03</pdfrwt>
<totfact> 0.50820562E+04</totfact>
</mgrwt>
</event>
<event>
 4    1  0.4023583E+000  0.1958439E+03  0.7546771E-02  0.1153294E+00
         21   -1    0    0  503  502  0.00000000000E+00  0.00000000000E+00  0.50620870438E+03  0.50620870438E+03  0.00000000000E+00 0.  1.
         21   -1    0    0  501  503 -0.00000000000E+00 -0.00000000000E+00 -0.97705054508E+02  0.97705054508E+02  0.00000000000E+00 0. -1.
          6    1    1    2  501    0 -0.16656106415E+02 -0.90268568450E+02  0.61175633103E+02  0.20517626182E+03  0.17300000000E+03 0. -1.
         -6    1    1    2    0  502  0.16656106415E+02  0.90268568450E+02  0.34732801677E+03  0.39873749706E+03  0.17300000000E+03 0.  1.
<mgrwt>
<rscale>  2 0.19584392E+03</rscale>
<asrwt>0</asrwt>
<pdfrwt beam="1">  1       21 0.77878261E-01 0.19584392E+03</pdfrwt>
<pdfrwt beam="2">  1       21 0.15031547E-01 0.19584392E+03</pdfrwt>
<totfact> 0.57018124E+04</totfact>
</mgrwt>
</event>
<event>
 4    1  0.4023583E+000  0.1750302E+03  0.7546771E-02  0.1172701E+00
         21   -1    0    0  503  502  0.00000000000E+00  0.00000000000E+00  0.33362972589E+03  0.33362972589E+03  0.00000000000E+00 0. -1.
         21   -1    0    0  501  503 -0.00000000000E+00 -0.00000000000E+00 -0.93384253893E+02  0.93384253893E+02  0.00000000000E+00 0. -1.
          6    1    1    2  501    0 -0.17855364118E+02 -0.19691804838E+02  0.14771075319E+03  0.22902848691E+03  0.17300000000E+03 0. -1.
         -6    1    1    2    0  502  0.17855364118E+02  0.19691804838E+02  0.92534718804E+02  0.19798549288E+03  0.17300000000E+03 0. -1.
<mgrwt>
<rscale>  2 0.17503023E+03</rscale>
<asrwt>0</asrwt>
<pdfrwt beam="1">  1       21 0.51327650E-01 0.17503023E+03</pdfrwt>
<pdfrwt beam="2">  1       21 0.14366808E-01 0.17503023E+03</pdfrwt>
<totfact> 0.15393460E+05</totfact>
</mgrwt>
</event>
<event>
 4    1  0.4023583E+000  0.1973962E+03  0.7546771E-02  0.1151955E+00
         21   -1    0    0  503  502  0.00000000000E+00  0.00000000000E+00  0.27036593736E+03  0.27036593736E+03  0.00000000000E+00 0. -1.
         21   -1    0    0  501  503 -0.00000000000E+00 -0.00000000000E+00 -0.20442733382E+03  0.20442733382E+03  0.00000000000E+00 0. -1.
          6    1    1    2  501    0 -0.72087793275E+02  0.61964632574E+02 -0.95970932244E+02  0.21948960218E+03  0.17300000000E+03 0. -1.
         -6    1    1    2    0  502  0.72087793275E+02 -0.61964632574E+02  0.16190953578E+03  0.25530366900E+03  0.17300000000E+03 0. -1.
<mgrwt>
<rscale>  2 0.19739621E+03</rscale>
<asrwt>0</asrwt>
<pdfrwt beam="1">  1       21 0.41594759E-01 0.19739621E+03</pdfrwt>
<pdfrwt beam="2">  1       21 0.31450359E-01 0.19739621E+03</pdfrwt>
<totfact> 0.53951656E+04</totfact>
</mgrwt>
</event>
<event>
 4    1  0.4023583E+000  0.1784493E+03  0.7546771E-02  0.1169312E+00
         21   -1    0    0  501  502  0.00000000000E+00  0.00000000000E+00  0.16339709582E+03  0.16339709582E+03  0.00000000000E+00 0.  1.
         21   -1    0    0  502  503 -0.00000000000E+00 -0.00000000000E+00 -0.29426010810E+03  0.29426010810E+03  0.00000000000E+00 0.  1.
          6    1    1    2  501    0  0.30164638044E+02  0.31705838497E+02  0.67545463210E+02  0.19080501876E+03  0.17300000000E+03 0.  1.
         -6    1    1    2    0  503 -0.30164638044E+02 -0.31705838497E+02 -0.19840847549E+03  0.26685218517E+03  0.17300000000E+03 0.  1.
<mgrwt>
<rscale>  2 0.17844934E+03</rscale>
<asrwt>0</asrwt>
<pdfrwt beam="1">  1       21 0.25138015E-01 0.17844934E+03</pdfrwt>
<pdfrwt beam="2">  1       21 0.45270786E-01 0.17844934E+03</pdfrwt>
<totfact> 0.70579442E+04</totfact>
</mgrwt>
</event>
<event>
 4    1  0.4023583E+000  0.2313579E+03  0.7546771E-02  0.1125688E+00
         21   -1    0    0  501  502  0.00000000000E+00  0.00000000000E+00  0.25817682856E+03  0.25817682856E+03  0.00000000000E+00 0.  1.
         21   -1    0    0  502  503 -0.00000000000E+00 -0.00000000000E+00 -0.22071397875E+03  0.22071397875E+03  0.00000000000E+00 0.  1.
          6    1    1    2  501    0  0.51856097855E+02  0.14459751902E+03  0.77706182542E+02  0.24405890313E+03  0.17300000000E+03 0.  1.
         -6    1    1    2    0  503 -0.51856097855E+02 -0.14459751902E+03 -0.40243332723E+02  0.23483190418E+03  0.17300000000E+03 0.  1.
<mgrwt>
<rscale>  2 0.23135794E+03</rscale>
<asrwt>0</asrwt>
<pdfrwt beam="1">  1       21 0.39719512E-01 0.23135794E+03</pdfrwt>
<pdfrwt beam="2">  1       21 0.33955997E-01 0.23135794E+03</pdfrwt>
<totfact> 0.50148997E+04</totfact>
</mgrwt>
</event>
<event>
 4    1  0.4023583E+000  0.1769567E+03  0.7546771E-02  0.1170781E+00
         21   -1    0    0  501  502  0.00000000000E+00  0.00000000000E+00  0.42777035602E+03  0.42777035602E+03  0.00000000000E+00 0.  1.
         21   -1    0    0  502  503 -0.00000000000E+00 -0.00000000000E+00 -0.13311050380E+03  0.13311050380E+03  0.00000000000E+00 0.  1.
          6    1    1    2  501    0  0.37071633082E+02  0.32207596974E+01  0.33546874444E+03  0.37927952458E+03  0.17300000000E+03 0.  1.
         -6    1    1    2    0  503 -0.37071633082E+02 -0.32207596974E+01 -0.40808892223E+02  0.18160133523E+03  0.17300000000E+03 0.  1.
<mgrwt>
<rscale>  2 0.17695672E+03</rscale>
<asrwt>0</asrwt>
<pdfrwt beam="1">  1       21 0.65810823E-01 0.17695672E+03</pdfrwt>
<pdfrwt beam="2">  1       21 0.20478539E-01 0.17695672E+03</pdfrwt>
<totfact> 0.47210426E+04</totfact>
</mgrwt>
</event>
<event>
 4    1  0.4023583E+000  0.2997963E+03  0.7546771E-02  0.1085342E+00
         21   -1    0    0  503  502  0.00000000000E+00  0.00000000000E+00  0.65173686640E+03  0.65173686640E+03  0.00000000000E+00 0. -1.
         21   -1    0    0  501  503 -0.00000000000E+00 -0.00000000000E+00 -0.23577862854E+03  0.23577862854E+03  0.00000000000E+00 0.  1.
          6    1    1    2  501    0 -0.43210112512E+02 -0.24100149742E+03 -0.77928915620E+02  0.30975918303E+03  0.17300000000E+03 0.  1.
         -6    1    1    2    0  502  0.43210112512E+02  0.24100149742E+03  0.49388715348E+03  0.57775631191E+03  0.17300000000E+03 0. -1.
<mgrwt>
<rscale>  2 0.29979632E+03</rscale>
<asrwt>0</asrwt>
<pdfrwt beam="1">  1       21 0.10026721E+00 0.29979632E+03</pdfrwt>
<pdfrwt beam="2">  1       21 0.36273635E-01 0.29979632E+03</pdfrwt>
<totfact> 0.55871269E+03</totfact>
</mgrwt>
</event>
<event>
 4    1  0.4023583E+000  0.2803107E+03  0.7546771E-02  0.1095519E+00
         21   -1    0    0  503  502  0.00000000000E+00  0.00000000000E+00  0.12427015676E+03  0.12427015676E+03  0.00000000000E+00 0. -1.
         21   -1    0    0  501  503 -0.00000000000E+00 -0.00000000000E+00 -0.70687390024E+03  0.70687390024E+03  0.00000000000E+00 0.  1.
          6    1    1    2  501    0  0.19277503153E+03 -0.10715814937E+03 -0.42629578210E+03  0.51019817286E+03  0.17300000000E+03 0. -1.
         -6    1    1    2    0  502 -0.19277503153E+03  0.10715814937E+03 -0.15630796138E+03  0.32094588414E+03  0.17300000000E+03 0. -1.
<mgrwt>
<rscale>  2 0.28031069E+03</rscale>
<asrwt>0</asrwt>
<pdfrwt beam="1">  1       21 0.19118486E-01 0.28031069E+03</pdfrwt>
<pdfrwt beam="2">  1       21 0.10874983E+00 0.28031069E+03</pdfrwt>
<totfact> 0.16051981E+04</totfact>
</mgrwt>
</event>
<event>
 4    1  0.4023583E+000  0.2458205E+03  0.7546771E-02  0.1115975E+00
         21   -1    0    0  503  502  0.00000000000E+00  0.00000000000E+00  0.48739035379E+03  0.48739035379E+03  0.00000000000E+00 0. -1.
         21   -1    0    0  501  503 -0.00000000000E+00 -0.00000000000E+00 -0.12722677359E+03  0.12722677359E+03  0.00000000000E+00 0. -1.
          6    1    1    2  501    0  0.17030182866E+03 -0.38678103683E+02  0.22915753894E+03  0.33606678831E+03  0.17300000000E+03 0. -1.
         -6    1    1    2    0  502 -0.17030182866E+03  0.38678103683E+02  0.13100604126E+03  0.27855033907E+03  0.17300000000E+03 0. -1.
<mgrwt>
<rscale>  2 0.24582048E+03</rscale>
<asrwt>0</asrwt>
<pdfrwt beam="1">  1       21 0.74983130E-01 0.24582048E+03</pdfrwt>
<pdfrwt beam="2">  1       21 0.19573350E-01 0.24582048E+03</pdfrwt>
<totfact> 0.37246460E+04</totfact>
</mgrwt>
</event>
<event>
 4    1  0.4023583E+000  0.2315138E+03  0.7546771E-02  0.1125579E+00
         21   -1    0    0  501  502  0.00000000000E+00  0.00000000000E+00  0.41773732604E+03  0.41773732604E+03  0.00000000000E+00 0. -1.
         21   -1    0    0  502  503 -0.00000000000E+00 -0.00000000000E+00 -0.16977711427E+03  0.16977711427E+03  0.00000000000E+00 0. -1.
          6    1    1    2  501    0 -0.12760242594E+03  0.85949281816E+02  0.26916323504E+03  0.35503169612E+03  0.17300000000E+03 0. -1.
         -6    1    1    2    0  503  0.12760242594E+03 -0.85949281816E+02 -0.21203023278E+02  0.23248274419E+03  0.17300000000E+03 0. -1.
<mgrwt>
<rscale>  2 0.23151384E+03</rscale>
<asrwt>0</asrwt>
<pdfrwt beam="1">  1       21 0.64267281E-01 0.23151384E+03</pdfrwt>
<pdfrwt beam="2">  1       21 0.26119556E-01 0.23151384E+03</pdfrwt>
<totfact> 0.30489578E+04</totfact>
</mgrwt>
</event>
<event>
 4    1  0.4023583E+000  0.2140857E+03  0.7546771E-02  0.1138371E+00
         21   -1    0    0  503  502  0.00000000000E+00  0.00000000000E+00  0.52030186197E+03  0.52030186197E+03  0.00000000000E+00 0. -1.
         21   -1    0    0  501  503 -0.00000000000E+00 -0.00000000000E+00 -0.27420536361E+03  0.27420536361E+03  0.00000000000E+00 0. -1.
          6    1    1    2  501    0 -0.10381482762E+03  0.71597407132E+02 -0.20423405861E+03  0.29587878910E+03  0.17300000000E+03 0. -1.
         -6    1    1    2    0  502  0.10381482762E+03 -0.71597407132E+02  0.45033055696E+03  0.49862843649E+03  0.17300000000E+03 0. -1.
<mgrwt>
<rscale>  2 0.21408575E+03</rscale>
<asrwt>0</asrwt>
<pdfrwt beam="1">  1       21 0.80046441E-01 0.21408575E+03</pdfrwt>
<pdfrwt beam="2">  1       21 0.42185440E-01 0.21408575E+03</pdfrwt>
<totfact> 0.73141924E+03</totfact>
</mgrwt>
</event>
<event>
 4    1  0.4023583E+000  0.1953687E+03  0.7546771E-02  0.1153706E+00
         21   -1    0    0  501  502  0.00000000000E+00  0.00000000000E+00  0.68218914381E+03  0.68218914381E+03  0.00000000000E+00 0. -1.
         21   -1    0    0  502  503 -0.00000000000E+00 -0.00000000000E+00 -0.10467475104E+03  0.10467475104E+03  0.00000000000E+00 0. -1.
          6    1    1    2  501    0  0.33347863249E+02  0.84426669643E+02  0.55718065255E+03  0.59043985477E+03  0.17300000000E+03 0. -1.
         -6    1    1    2    0  503 -0.33347863249E+02 -0.84426669643E+02  0.20333740225E+02  0.19642404008E+03  0.17300000000E+03 0. -1.
<mgrwt>
<rscale>  2 0.19536873E+03</rscale>
<asrwt>0</asrwt>
<pdfrwt beam="1">  1       21 0.10495217E+00 0.19536873E+03</pdfrwt>
<pdfrwt beam="2">  1       21 0.16103808E-01 0.19536873E+03</pdfrwt>
<totfact> 0.25162572E+04</totfact>
</mgrwt>
</event>
<event>
 4    1  0.4023583E+000  0.1844184E+03  0.7546771E-02  0.1163594E+00
         21   -1    0    0  501  502  0.00000000000E+00  0.00000000000E+00  0.31286587431E+03  0.31286587431E+03  0.00000000000E+00 0. -1.
         21   -1    0    0  502  503 -0.00000000000E+00 -0.00000000000E+00 -0.11831637259E+03  0.11831637259E+03  0.00000000000E+00 0.  1.
          6    1    1    2  501    0  0.30806356453E+02  0.55965443912E+02  0.15872102471E+03  0.24331569246E+03  0.17300000000E+03 0. -1.
         -6    1    1    2    0  503 -0.30806356453E+02 -0.55965443912E+02  0.35828477007E+02  0.18786655443E+03  0.17300000000E+03 0.  1.
<mgrwt>
<rscale>  2 0.18441844E+03</rscale>
<asrwt>0</asrwt>
<pdfrwt beam="1">  1       21 0.48133211E-01 0.18441844E+03</pdfrwt>
<pdfrwt beam="2">  1       21 0.18202519E-01 0.18441844E+03</pdfrwt>
<totfact> 0.11375294E+05</totfact>
</mgrwt>
</event>
<event>
 4    1  0.4023583E+000  0.1821257E+03  0.7546771E-02  0.1165762E+00
         21   -1    0    0  501  502  0.00000000000E+00  0.00000000000E+00  0.23188704650E+03  0.23188704650E+03  0.00000000000E+00 0.  1.
         21   -1    0    0  502  503 -0.00000000000E+00 -0.00000000000E+00 -0.15265129435E+03  0.15265129435E+03  0.00000000000E+00 0.  1.
          6    1    1    2  501    0 -0.82769259493E+01 -0.56322797297E+02  0.87855710154E+02  0.20220878024E+03  0.17300000000E+03 0.  1.
         -6    1    1    2    0  503  0.82769259493E+01  0.56322797297E+02 -0.86199580024E+01  0.18232956062E+03  0.17300000000E+03 0.  1.
<mgrwt>
<rscale>  2 0.18212568E+03</rscale>
<asrwt>0</asrwt>
<pdfrwt beam="1">  1       21 0.35674930E-01 0.18212568E+03</pdfrwt>
<pdfrwt beam="2">  1       21 0.23484814E-01 0.18212568E+03</pdfrwt>
<totfact> 0.12971873E+05</totfact>
</mgrwt>
</event>
<event>
 4    1  0.4023583E+000  0.2332321E+03  0.7546771E-02  0.1124385E+00
         21   -1    0    0  503  502  0.00000000000E+00  0.00000000000E+00  0.11392253129E+03  0.11392253129E+03  0.00000000000E+00 0.  1.
         21   -1    0    0  501  503 -0.00000000000E+00 -0.00000000000E+00 -0.67019130311E+03  0.67019130311E+03  0.00000000000E+00 0. -1.
          6    1    1    2  501    0  0.10074655465E+03  0.11965929000E+03 -0.48836145955E+03  0.54119694117E+03  0.17300000000E+03 0. -1.
         -6    1    1    2    0  502 -0.10074655465E+03 -0.11965929000E+03 -0.67907312274E+02  0.24291689323E+03  0.17300000000E+03 0.  1.
<mgrwt>
<rscale>  2 0.23323210E+03</rscale>
<asrwt>0</asrwt>
<pdfrwt beam="1">  1       21 0.17526544E-01 0.23323210E+03</pdfrwt>
<pdfrwt beam="2">  1       21 0.10310635E+00 0.23323210E+03</pdfrwt>
<totfact> 0.21986503E+04</totfact>
</mgrwt>
</event>
<event>
 4    1  0.4023583E+000  0.1772436E+03  0.7546771E-02  0.1170498E+00
         21   -1    0    0  503  502  0.00000000000E+00  0.00000000000E+00  0.10717419828E+03  0.10717419828E+03  0.00000000000E+00 0.  1.
         21   -1    0    0  501  503 -0.00000000000E+00 -0.00000000000E+00 -0.29619444759E+03  0.29619444759E+03  0.00000000000E+00 0.  1.
          6    1    1    2  501    0  0.22081839897E+02  0.31602179422E+02 -0.11504540155E+03  0.21130724033E+03  0.17300000000E+03 0.  1.
         -6    1    1    2    0  502 -0.22081839897E+02 -0.31602179422E+02 -0.73974847758E+02  0.19206140554E+03  0.17300000000E+03 0.  1.
<mgrwt>
<rscale>  2 0.17724363E+03</rscale>
<asrwt>0</asrwt>
<pdfrwt beam="1">  1       21 0.16488338E-01 0.17724363E+03</pdfrwt>
<pdfrwt beam="2">  1       21 0.45568376E-01 0.17724363E+03</pdfrwt>
<totfact> 0.15314735E+05</totfact>
</mgrwt>
</event>
<event>
 4    1  0.4023583E+000  0.2376091E+03  0.7546771E-02  0.1121396E+00
         21   -1    0    0  503  502  0.00000000000E+00  0.00000000000E+00  0.15229253391E+04  0.15229253391E+04  0.00000000000E+00 0. -1.
         21   -1    0    0  501  503 -0.00000000000E+00 -0.00000000000E+00 -0.57471809386E+02  0.57471809386E+02  0.00000000000E+00 0.  1.
          6    1    1    2  501    0  0.10092507364E+03  0.12784063728E+03  0.26194418169E+03  0.35365640578E+03  0.17300000000E+03 0.  1.
         -6    1    1    2    0  502 -0.10092507364E+03 -0.12784063728E+03  0.12035093480E+04  0.12267407427E+04  0.17300000000E+03 0. -1.
<mgrwt>
<rscale>  2 0.23760913E+03</rscale>
<asrwt>0</asrwt>
<pdfrwt beam="1">  1       21 0.23429618E+00 0.23760913E+03</pdfrwt>
<pdfrwt beam="2">  1       21 0.88418180E-02 0.23760913E+03</pdfrwt>
<totfact> 0.79852547E+03</totfact>
</mgrwt>
</event>
<event>
 4    1  0.4023583E+000  0.2144632E+03  0.7546771E-02  0.1138080E+00
         21   -1    0    0  503  502  0.00000000000E+00  0.00000000000E+00  0.34636721013E+02  0.34636721013E+02  0.00000000000E+00 0. -1.
         21   -1    0    0  501  503 -0.00000000000E+00 -0.00000000000E+00 -0.16829684041E+04  0.16829684041E+04  0.00000000000E+00 0. -1.
          6    1    1    2  501    0  0.10077144446E+03 -0.76880184198E+02 -0.12186279343E+04  0.12373554417E+04  0.17300000000E+03 0. -1.
         -6    1    1    2    0  502 -0.10077144446E+03  0.76880184198E+02 -0.42970374879E+03  0.48024968346E+03  0.17300000000E+03 0. -1.
<mgrwt>
<rscale>  2 0.21446316E+03</rscale>
<asrwt>0</asrwt>
<pdfrwt beam="1">  1       21 0.53287283E-02 0.21446316E+03</pdfrwt>
<pdfrwt beam="2">  1       21 0.25891812E+00 0.21446316E+03</pdfrwt>
<totfact> 0.13956049E+04</totfact>
</mgrwt>
</event>
<event>
 4    1  0.4023583E+000  0.1870977E+03  0.7546771E-02  0.1161105E+00
         21   -1    0    0  503  502  0.00000000000E+00  0.00000000000E+00  0.92535218884E+03  0.92535218884E+03  0.00000000000E+00 0. -1.
         21   -1    0    0  501  503 -0.00000000000E+00 -0.00000000000E+00 -0.57971673944E+02  0.57971673944E+02  0.00000000000E+00 0. -1.
          6    1    1    2  501    0 -0.39117439476E+02  0.59551536050E+02  0.14388088336E+03  0.23602387191E+03  0.17300000000E+03 0. -1.
         -6    1    1    2    0  502  0.39117439476E+02 -0.59551536050E+02  0.72349963154E+03  0.74729999087E+03  0.17300000000E+03 0. -1.
<mgrwt>
<rscale>  2 0.18709773E+03</rscale>
<asrwt>0</asrwt>
<pdfrwt beam="1">  1       21 0.14236186E+00 0.18709773E+03</pdfrwt>
<pdfrwt beam="2">  1       21 0.89187197E-02 0.18709773E+03</pdfrwt>
<totfact> 0.34120401E+04</totfact>
</mgrwt>
</event>
<event>
 4    1  0.4023583E+000  0.1902783E+03  0.7546771E-02  0.1158211E+00
         21   -1    0    0  501  502  0.00000000000E+00  0.00000000000E+00  0.11321516926E+03  0.11321516926E+03  0.00000000000E+00 0. -1.
         21   -1    0    0  502  503 -0.00000000000E+00 -0.00000000000E+00 -0.32213831567E+03  0.32213831567E+03  0.00000000000E+00 0. -1.
          6    1    1    2  501    0  0.25634721243E+02 -0.74964527507E+02 -0.85902189405E+02  0.20877022168E+03  0.17300000000E+03 0. -1.
         -6    1    1    2    0  503 -0.25634721243E+02  0.74964527507E+02 -0.12302095700E+03  0.22658326324E+03  0.17300000000E+03 0. -1.
<mgrwt>
<rscale>  2 0.19027827E+03</rscale>
<asrwt>0</asrwt>
<pdfrwt beam="1">  1       21 0.17417719E-01 0.19027827E+03</pdfrwt>
<pdfrwt beam="2">  1       21 0.49559740E-01 0.19027827E+03</pdfrwt>
<totfact> 0.11589292E+05</totfact>
</mgrwt>
</event>
<event>
 4    1  0.4023583E+000  0.1979419E+03  0.7546771E-02  0.1151487E+00
         21   -1    0    0  501  502  0.00000000000E+00  0.00000000000E+00  0.27725429710E+03  0.27725429710E+03  0.00000000000E+00 0. -1.
         21   -1    0    0  502  503 -0.00000000000E+00 -0.00000000000E+00 -0.10454607254E+04  0.10454607254E+04  0.00000000000E+00 0. -1.
          6    1    1    2  501    0  0.53801108468E+01  0.96036694158E+02  0.23093337303E+03  0.30415656330E+03  0.17300000000E+03 0. -1.
         -6    1    1    2    0  503 -0.53801108468E+01 -0.96036694158E+02 -0.99913980132E+03  0.10185584592E+04  0.17300000000E+03 0. -1.
<mgrwt>
<rscale>  2 0.19794189E+03</rscale>
<asrwt>0</asrwt>
<pdfrwt beam="1">  1       21 0.42654507E-01 0.19794189E+03</pdfrwt>
<pdfrwt beam="2">  1       21 0.16084011E+00 0.19794189E+03</pdfrwt>
<totfact> 0.13049764E+03</totfact>
</mgrwt>
</event>
<event>
 4    1  0.4023583E+000  0.1863354E+03  0.7546771E-02  0.1161809E+00
         21   -1    0    0  503  502  0.00000000000E+00  0.00000000000E+00  0.14577558254E+03  0.14577558254E+03  0.00000000000E+00 0. -1.
         21   -1    0    0  501  503 -0.00000000000E+00 -0.00000000000E+00 -0.24940816028E+03  0.24940816028E+03  0.00000000000E+00 0. -1.
          6    1    1    2  501    0 -0.64904704439E+02 -0.24067674240E+02 -0.98923547513E+01  0.18659778210E+03  0.17300000000E+03 0. -1.
         -6    1    1    2    0  502  0.64904704439E+02  0.24067674240E+02 -0.93740222991E+02  0.20858596072E+03  0.17300000000E+03 0. -1.
<mgrwt>
<rscale>  2 0.18633538E+03</rscale>
<asrwt>0</asrwt>
<pdfrwt beam="1">  1       21 0.22427013E-01 0.18633538E+03</pdfrwt>
<pdfrwt beam="2">  1       21 0.38370486E-01 0.18633538E+03</pdfrwt>
<totfact> 0.12219725E+05</totfact>
</mgrwt>
</event>
<event>
 4    1  0.4023583E+000  0.1770175E+03  0.7546771E-02  0.1170721E+00
         21   -1    0    0  501  502  0.00000000000E+00  0.00000000000E+00  0.66977674214E+03  0.66977674214E+03  0.00000000000E+00 0. -1.
         21   -1    0    0  502  503 -0.00000000000E+00 -0.00000000000E+00 -0.47880075371E+02  0.47880075371E+02  0.00000000000E+00 0. -1.
          6    1    1    2  501    0 -0.12372357611E+02  0.35399614329E+02  0.25667089905E+03  0.31179345463E+03  0.17300000000E+03 0. -1.
         -6    1    1    2    0  503  0.12372357611E+02 -0.35399614329E+02  0.36522576772E+03  0.40586336289E+03  0.17300000000E+03 0. -1.
<mgrwt>
<rscale>  2 0.17701754E+03</rscale>
<asrwt>0</asrwt>
<pdfrwt beam="1">  1       21 0.10304257E+00 0.17701754E+03</pdfrwt>
<pdfrwt beam="2">  1       21 0.73661660E-02 0.17701754E+03</pdfrwt>
<totfact> 0.10653448E+05</totfact>
</mgrwt>
</event>
<event>
 4    1  0.4023583E+000  0.1930227E+03  0.7546771E-02  0.1155763E+00
         21   -1    0    0  501  502  0.00000000000E+00  0.00000000000E+00  0.18155702551E+03  0.18155702551E+03  0.00000000000E+00 0. -1.
         21   -1    0    0  502  503 -0.00000000000E+00 -0.00000000000E+00 -0.24144715178E+03  0.24144715178E+03  0.00000000000E+00 0. -1.
          6    1    1    2  501    0  0.76987056909E+02 -0.37439839043E+02  0.51989361771E+02  0.19990158133E+03  0.17300000000E+03 0. -1.
         -6    1    1    2    0  503 -0.76987056909E+02  0.37439839043E+02 -0.11187948804E+03  0.22310259596E+03  0.17300000000E+03 0. -1.
<mgrwt>
<rscale>  2 0.19302266E+03</rscale>
<asrwt>0</asrwt>
<pdfrwt beam="1">  1       21 0.27931850E-01 0.19302266E+03</pdfrwt>
<pdfrwt beam="2">  1       21 0.37145716E-01 0.19302266E+03</pdfrwt>
<totfact> 0.85555369E+04</totfact>
</mgrwt>
</event>
<event>
 4    1  0.4023583E+000  0.3062729E+03  0.7546771E-02  0.1082146E+00
         21   -1    0    0  501  502  0.00000000000E+00  0.00000000000E+00  0.49282344690E+03  0.49282344690E+03  0.00000000000E+00 0. -1.
         21   -1    0    0  502  503 -0.00000000000E+00 -0.00000000000E+00 -0.19479531047E+03  0.19479531047E+03  0.00000000000E+00 0.  1.
          6    1    1    2  501    0  0.24190251020E+03 -0.73193395359E+02  0.20102063192E+03  0.36635009488E+03  0.17300000000E+03 0.  1.
         -6    1    1    2    0  503 -0.24190251020E+03  0.73193395359E+02  0.97007504511E+02  0.32126866249E+03  0.17300000000E+03 0. -1.
<mgrwt>
<rscale>  2 0.30627291E+03</rscale>
<asrwt>0</asrwt>
<pdfrwt beam="1">  1       21 0.75818991E-01 0.30627291E+03</pdfrwt>
<pdfrwt beam="2">  1       21 0.29968510E-01 0.30627291E+03</pdfrwt>
<totfact> 0.15626939E+04</totfact>
</mgrwt>
</event>
<event>
 4    1  0.4023583E+000  0.2261337E+03  0.7546771E-02  0.1129391E+00
         21   -1    0    0  501  502  0.00000000000E+00  0.00000000000E+00  0.35605593165E+03  0.35605593165E+03  0.00000000000E+00 0.  1.
         21   -1    0    0  502  503 -0.00000000000E+00 -0.00000000000E+00 -0.14596332687E+03  0.14596332687E+03  0.00000000000E+00 0. -1.
          6    1    1    2  501    0  0.79082836556E+02 -0.12228389228E+03  0.13685639770E+03  0.26432199859E+03  0.17300000000E+03 0. -1.
         -6    1    1    2    0  503 -0.79082836556E+02  0.12228389228E+03  0.73236207085E+02  0.23769725993E+03  0.17300000000E+03 0. -1.
<mgrwt>
<rscale>  2 0.22613369E+03</rscale>
<asrwt>0</asrwt>
<pdfrwt beam="1">  1       21 0.54777835E-01 0.22613369E+03</pdfrwt>
<pdfrwt beam="2">  1       21 0.22455897E-01 0.22613369E+03</pdfrwt>
<totfact> 0.57542009E+04</totfact>
</mgrwt>
</event>
<event>
 4    1  0.4023583E+000  0.1931737E+03  0.7546771E-02  0.1155630E+00
         21   -1    0    0  503  502  0.00000000000E+00  0.00000000000E+00  0.19320747848E+02  0.19320747848E+02  0.00000000000E+00 0.  1.
         21   -1    0    0  501  503 -0.00000000000E+00 -0.00000000000E+00 -0.27751192577E+04  0.27751192577E+04  0.00000000000E+00 0. -1.
          6    1    1    2  501    0  0.11362525466E+02 -0.85193676344E+02 -0.21483116386E+04  0.21569791297E+04  0.17300000000E+03 0.  1.
         -6    1    1    2    0  502 -0.11362525466E+02  0.85193676344E+02 -0.60748687123E+03  0.63746087581E+03  0.17300000000E+03 0.  1.
<mgrwt>
<rscale>  2 0.19317368E+03</rscale>
<asrwt>0</asrwt>
<pdfrwt beam="1">  1       21 0.29724220E-02 0.19317368E+03</pdfrwt>
<pdfrwt beam="2">  1       21 0.42694154E+00 0.19317368E+03</pdfrwt>
<totfact> 0.37775328E+03</totfact>
</mgrwt>
</event>
<event>
 4    1  0.4023583E+000  0.2153096E+03  0.7546771E-02  0.1137429E+00
         21   -1    0    0  501  502  0.00000000000E+00  0.00000000000E+00  0.24714276185E+04  0.24714276185E+04  0.00000000000E+00 0. -1.
         21   -1    0    0  502  503 -0.00000000000E+00 -0.00000000000E+00 -0.42616261996E+02  0.42616261996E+02  0.00000000000E+00 0. -1.
          6    1    1    2  501    0 -0.51347596979E+02  0.11744204598E+03  0.21549464729E+04  0.21656759940E+04  0.17300000000E+03 0. -1.
         -6    1    1    2    0  503  0.51347596979E+02 -0.11744204598E+03  0.27386488361E+03  0.34836788651E+03  0.17300000000E+03 0. -1.
<mgrwt>
<rscale>  2 0.21530957E+03</rscale>
<asrwt>0</asrwt>
<pdfrwt beam="1">  1       21 0.38021952E+00 0.21530957E+03</pdfrwt>
<pdfrwt beam="2">  1       21 0.65563499E-02 0.21530957E+03</pdfrwt>
<totfact> 0.18927989E+03</totfact>
</mgrwt>
</event>
<event>
 4    1  0.4023583E+000  0.2090104E+03  0.7546771E-02  0.1142352E+00
         21   -1    0    0  501  502  0.00000000000E+00  0.00000000000E+00  0.28114058454E+03  0.28114058454E+03  0.00000000000E+00 0.  1.
         21   -1    0    0  502  503 -0.00000000000E+00 -0.00000000000E+00 -0.39567079116E+03  0.39567079116E+03  0.00000000000E+00 0. -1.
          6    1    1    2  501    0 -0.82112611823E+02  0.83748727977E+02  0.20644923105E+03  0.29377987586E+03  0.17300000000E+03 0.  1.
         -6    1    1    2    0  503  0.82112611823E+02 -0.83748727977E+02 -0.32097943768E+03  0.38303149984E+03  0.17300000000E+03 0. -1.
<mgrwt>
<rscale>  2 0.20901036E+03</rscale>
<asrwt>0</asrwt>
<pdfrwt beam="1">  1       21 0.43252398E-01 0.20901036E+03</pdfrwt>
<pdfrwt beam="2">  1       21 0.60872429E-01 0.20901036E+03</pdfrwt>
<totfact> 0.12772561E+04</totfact>
</mgrwt>
</event>
<event>
 4    1  0.4023583E+000  0.2373591E+03  0.7546771E-02  0.1121565E+00
         21   -1    0    0  503  502  0.00000000000E+00  0.00000000000E+00  0.10097616090E+04  0.10097616090E+04  0.00000000000E+00 0. -1.
         21   -1    0    0  501  503 -0.00000000000E+00 -0.00000000000E+00 -0.56882684682E+02  0.56882684682E+02  0.00000000000E+00 0.  1.
          6    1    1    2  501    0 -0.13515627824E+03  0.90239214605E+02  0.55019813096E+03  0.59921391732E+03  0.17300000000E+03 0. -1.
         -6    1    1    2    0  502  0.13515627824E+03 -0.90239214605E+02  0.40268079332E+03  0.46743037632E+03  0.17300000000E+03 0.  1.
<mgrwt>
<rscale>  2 0.23735909E+03</rscale>
<asrwt>0</asrwt>
<pdfrwt beam="1">  1       21 0.15534793E+00 0.23735909E+03</pdfrwt>
<pdfrwt beam="2">  1       21 0.87511830E-02 0.23735909E+03</pdfrwt>
<totfact> 0.27208364E+04</totfact>
</mgrwt>
</event>
<event>
 4    1  0.4023583E+000  0.1862070E+03  0.7546771E-02  0.1161928E+00
         21   -1    0    0  501  502  0.00000000000E+00  0.00000000000E+00  0.18176877914E+03  0.18176877914E+03  0.00000000000E+00 0.  1.
         21   -1    0    0  502  503 -0.00000000000E+00 -0.00000000000E+00 -0.22159782492E+03  0.22159782492E+03  0.00000000000E+00 0.  1.
          6    1    1    2  501    0  0.10888671410E+02  0.68010825799E+02  0.55329957270E+02  0.19425354504E+03  0.17300000000E+03 0.  1.
         -6    1    1    2    0  503 -0.10888671410E+02 -0.68010825799E+02 -0.95159003043E+02  0.20911305902E+03  0.17300000000E+03 0.  1.
<mgrwt>
<rscale>  2 0.18620697E+03</rscale>
<asrwt>0</asrwt>
<pdfrwt beam="1">  1       21 0.27964427E-01 0.18620697E+03</pdfrwt>
<pdfrwt beam="2">  1       21 0.34091973E-01 0.18620697E+03</pdfrwt>
<totfact> 0.10149522E+05</totfact>
</mgrwt>
</event>
<event>
 4    1  0.4023583E+000  0.2093494E+03  0.7546771E-02  0.1142082E+00
         21   -1    0    0  501  502  0.00000000000E+00  0.00000000000E+00  0.18401630511E+03  0.18401630511E+03  0.00000000000E+00 0. -1.
         21   -1    0    0  502  503 -0.00000000000E+00 -0.00000000000E+00 -0.31859149075E+03  0.31859149075E+03  0.00000000000E+00 0. -1.
          6    1    1    2  501    0 -0.11688386902E+03  0.15373733656E+02  0.58972993090E+02  0.21749713662E+03  0.17300000000E+03 0. -1.
         -6    1    1    2    0  503  0.11688386902E+03 -0.15373733656E+02 -0.19354817873E+03  0.28511065924E+03  0.17300000000E+03 0. -1.
<mgrwt>
<rscale>  2 0.20934945E+03</rscale>
<asrwt>0</asrwt>
<pdfrwt beam="1">  1       21 0.28310201E-01 0.20934945E+03</pdfrwt>
<pdfrwt beam="2">  1       21 0.49014075E-01 0.20934945E+03</pdfrwt>
<totfact> 0.46981741E+04</totfact>
</mgrwt>
</event>
<event>
 4    1  0.4023583E+000  0.2139489E+03  0.7546771E-02  0.1138476E+00
         21   -1    0    0  501  502  0.00000000000E+00  0.00000000000E+00  0.81886892004E+02  0.81886892004E+02  0.00000000000E+00 0.  1.
         21   -1    0    0  502  503 -0.00000000000E+00 -0.00000000000E+00 -0.61208541808E+03  0.61208541808E+03  0.00000000000E+00 0.  1.
          6    1    1    2  501    0  0.57938527910E+02 -0.11175093211E+03 -0.16290531945E+03  0.26890944005E+03  0.17300000000E+03 0.  1.
         -6    1    1    2    0  503 -0.57938527910E+02  0.11175093211E+03 -0.36729320662E+03  0.42506287003E+03  0.17300000000E+03 0.  1.
<mgrwt>
<rscale>  2 0.21394893E+03</rscale>
<asrwt>0</asrwt>
<pdfrwt beam="1">  1       21 0.12597983E-01 0.21394893E+03</pdfrwt>
<pdfrwt beam="2">  1       21 0.94166989E-01 0.21394893E+03</pdfrwt>
<totfact> 0.50321662E+04</totfact>
</mgrwt>
</event>
<event>
 4    1  0.4023583E+000  0.2037000E+03  0.7546771E-02  0.1146654E+00
         21   -1    0    0  501  502  0.00000000000E+00  0.00000000000E+00  0.37067394486E+03  0.37067394486E+03  0.00000000000E+00 0.  1.
         21   -1    0    0  502  503 -0.00000000000E+00 -0.00000000000E+00 -0.12079495120E+03  0.12079495120E+03  0.00000000000E+00 0. -1.
          6    1    1    2  501    0  0.88207950025E+02  0.61514699074E+02  0.19146747896E+03  0.27955946800E+03  0.17300000000E+03 0.  1.
         -6    1    1    2    0  503 -0.88207950025E+02 -0.61514699074E+02  0.58411514706E+02  0.21190942806E+03  0.17300000000E+03 0.  1.
<mgrwt>
<rscale>  2 0.20370003E+03</rscale>
<asrwt>0</asrwt>
<pdfrwt beam="1">  1       21 0.57026760E-01 0.20370003E+03</pdfrwt>
<pdfrwt beam="2">  1       21 0.18583839E-01 0.20370003E+03</pdfrwt>
<totfact> 0.76076292E+04</totfact>
</mgrwt>
</event>
<event>
 4    1  0.4023583E+000  0.2247216E+03  0.7546771E-02  0.1130411E+00
         21   -1    0    0  501  502  0.00000000000E+00  0.00000000000E+00  0.50870382512E+02  0.50870382512E+02  0.00000000000E+00 0.  1.
         21   -1    0    0  502  503 -0.00000000000E+00 -0.00000000000E+00 -0.10037743086E+04  0.10037743086E+04  0.00000000000E+00 0. -1.
          6    1    1    2  501    0 -0.13521770528E+03 -0.47822186344E+02 -0.53180265711E+03  0.57733340059E+03  0.17300000000E+03 0.  1.
         -6    1    1    2    0  503  0.13521770528E+03  0.47822186344E+02 -0.42110126899E+03  0.47731129054E+03  0.17300000000E+03 0. -1.
<mgrwt>
<rscale>  2 0.22472158E+03</rscale>
<asrwt>0</asrwt>
<pdfrwt beam="1">  1       21 0.78262132E-02 0.22472158E+03</pdfrwt>
<pdfrwt beam="2">  1       21 0.15442681E+00 0.22472158E+03</pdfrwt>
<totfact> 0.33855853E+04</totfact>
</mgrwt>
</event>
<event>
 4    1  0.4023583E+000  0.2193689E+03  0.7546771E-02  0.1134354E+00
         21   -1    0    0  501  502  0.00000000000E+00  0.00000000000E+00  0.56478591598E+03  0.56478591598E+03  0.00000000000E+00 0.  1.
         21   -1    0    0  502  503 -0.00000000000E+00 -0.00000000000E+00 -0.87852089650E+02  0.87852089650E+02  0.00000000000E+00 0. -1.
          6    1    1    2  501    0 -0.12727755613E+03  0.44655776450E+02  0.29510801051E+03  0.36771109928E+03  0.17300000000E+03 0.  1.
         -6    1    1    2    0  503  0.12727755613E+03 -0.44655776450E+02  0.18182581582E+03  0.28492690635E+03  0.17300000000E+03 0. -1.
<mgrwt>
<rscale>  2 0.21936890E+03</rscale>
<asrwt>0</asrwt>
<pdfrwt beam="1">  1       21 0.86890139E-01 0.21936890E+03</pdfrwt>
<pdfrwt beam="2">  1       21 0.13515706E-01 0.21936890E+03</pdfrwt>
<totfact> 0.53297843E+04</totfact>
</mgrwt>
</event>
<event>
 4    1  0.4023583E+000  0.2080323E+03  0.7546771E-02  0.1143134E+00
         21   -1    0    0  503  502  0.00000000000E+00  0.00000000000E+00  0.41328394557E+03  0.41328394557E+03  0.00000000000E+00 0. -1.
         21   -1    0    0  501  503 -0.00000000000E+00 -0.00000000000E+00 -0.14350644015E+03  0.14350644015E+03  0.00000000000E+00 0.  1.
          6    1    1    2  501    0 -0.20221273968E+02 -0.11375214467E+03 -0.98511486205E+01  0.20826544473E+03  0.17300000000E+03 0.  1.
         -6    1    1    2    0  502  0.20221273968E+02  0.11375214467E+03  0.27962865404E+03  0.34852494100E+03  0.17300000000E+03 0. -1.
<mgrwt>
<rscale>  2 0.20803233E+03</rscale>
<asrwt>0</asrwt>
<pdfrwt beam="1">  1       21 0.63582145E-01 0.20803233E+03</pdfrwt>
<pdfrwt beam="2">  1       21 0.22077914E-01 0.20803233E+03</pdfrwt>
<totfact> 0.43502776E+04</totfact>
</mgrwt>
</event>
<event>
 4    1  0.4023583E+000  0.2392662E+03  0.7546771E-02  0.1120283E+00
         21   -1    0    0  501  502  0.00000000000E+00  0.00000000000E+00  0.12043183529E+03  0.12043183529E+03  0.00000000000E+00 0.  1.
         21   -1    0    0  502  503 -0.00000000000E+00 -0.00000000000E+00 -0.51462086124E+03  0.51462086124E+03  0.00000000000E+00 0. -1.
          6    1    1    2  501    0 -0.15322122045E+03 -0.61988522263E+02 -0.10938973787E+03  0.26308636232E+03  0.17300000000E+03 0. -1.
         -6    1    1    2    0  503  0.15322122045E+03  0.61988522263E+02 -0.28479928809E+03  0.37196633421E+03  0.17300000000E+03 0. -1.
<mgrwt>
<rscale>  2 0.23926621E+03</rscale>
<asrwt>0</asrwt>
<pdfrwt beam="1">  1       21 0.18527975E-01 0.23926621E+03</pdfrwt>
<pdfrwt beam="2">  1       21 0.79172438E-01 0.23926621E+03</pdfrwt>
<totfact> 0.36609224E+04</totfact>
</mgrwt>
</event>
<event>
 4    1  0.4023583E+000  0.2158721E+03  0.7546771E-02  0.1136998E+00
         21   -1    0    0  503  502  0.00000000000E+00  0.00000000000E+00  0.36877371692E+03  0.36877371692E+03  0.00000000000E+00 0. -1.
         21   -1    0    0  501  503 -0.00000000000E+00 -0.00000000000E+00 -0.30612818283E+03  0.30612818283E+03  0.00000000000E+00 0.  1.
          6    1    1    2  501    0 -0.86767512976E+02 -0.95619962688E+02 -0.22726449009E+03  0.31344844397E+03  0.17300000000E+03 0.  1.
         -6    1    1    2    0  502  0.86767512976E+02  0.95619962688E+02  0.28991002418E+03  0.36145345577E+03  0.17300000000E+03 0. -1.
<mgrwt>
<rscale>  2 0.21587213E+03</rscale>
<asrwt>0</asrwt>
<pdfrwt beam="1">  1       21 0.56734418E-01 0.21587213E+03</pdfrwt>
<pdfrwt beam="2">  1       21 0.47096644E-01 0.21587213E+03</pdfrwt>
<totfact> 0.12411985E+04</totfact>
</mgrwt>
</event>
<event>
 4    1  0.4023583E+000  0.1927519E+03  0.7546771E-02  0.1156002E+00
         21   -1    0    0  503  502  0.00000000000E+00  0.00000000000E+00  0.65233470047E+02  0.65233470047E+02  0.00000000000E+00 0.  1.
         21   -1    0    0  501  503 -0.00000000000E+00 -0.00000000000E+00 -0.57649333020E+03  0.57649333020E+03  0.00000000000E+00 0. -1.
          6    1    1    2  501    0  0.18051722149E+02  0.83056803085E+02 -0.22040006996E+03  0.29279598367E+03  0.17300000000E+03 0.  1.
         -6    1    1    2    0  502 -0.18051722149E+02 -0.83056803085E+02 -0.29085979019E+03  0.34893081658E+03  0.17300000000E+03 0. -1.
<mgrwt>
<rscale>  2 0.19275191E+03</rscale>
<asrwt>0</asrwt>
<pdfrwt beam="1">  1       21 0.10035918E-01 0.19275191E+03</pdfrwt>
<pdfrwt beam="2">  1       21 0.88691284E-01 0.19275191E+03</pdfrwt>
<totfact> 0.87629523E+04</totfact>
</mgrwt>
</event>
<event>
 4    1  0.4023583E+000  0.2326605E+03  0.7546771E-02  0.1124781E+00
         21   -1    0    0  501  502  0.00000000000E+00  0.00000000000E+00  0.54776986988E+03  0.54776986988E+03  0.00000000000E+00 0. -1.
         21   -1    0    0  502  503 -0.00000000000E+00 -0.00000000000E+00 -0.19715847219E+03  0.19715847219E+03  0.00000000000E+00 0.  1.
          6    1    1    2  501    0 -0.15555784317E+03  0.19139147344E+01  0.43835512054E+03  0.49627222101E+03  0.17300000000E+03 0. -1.
         -6    1    1    2    0  503  0.15555784317E+03 -0.19139147344E+01 -0.87743722855E+02  0.24865612106E+03  0.17300000000E+03 0.  1.
<mgrwt>
<rscale>  2 0.23266049E+03</rscale>
<asrwt>0</asrwt>
<pdfrwt beam="1">  1       21 0.84272287E-01 0.23266049E+03</pdfrwt>
<pdfrwt beam="2">  1       21 0.30332073E-01 0.23266049E+03</pdfrwt>
<totfact> 0.12427973E+04</totfact>
</mgrwt>
</event>
<event>
 4    1  0.4023583E+000  0.2795064E+03  0.7546771E-02  0.1095959E+00
         21   -1    0    0  503  502  0.00000000000E+00  0.00000000000E+00  0.50856146988E+03  0.50856146988E+03  0.00000000000E+00 0.  1.
         21   -1    0    0  501  503 -0.00000000000E+00 -0.00000000000E+00 -0.19869476703E+03  0.19869476703E+03  0.00000000000E+00 0. -1.
          6    1    1    2  501    0 -0.15943920785E+03 -0.15091055073E+03 -0.13501974646E+02  0.27983237597E+03  0.17300000000E+03 0. -1.
         -6    1    1    2    0  502  0.15943920785E+03  0.15091055073E+03  0.32336867749E+03  0.42742386094E+03  0.17300000000E+03 0.  1.
<mgrwt>
<rscale>  2 0.27950645E+03</rscale>
<asrwt>0</asrwt>
<pdfrwt beam="1">  1       21 0.78240226E-01 0.27950645E+03</pdfrwt>
<pdfrwt beam="2">  1       21 0.30568426E-01 0.27950645E+03</pdfrwt>
<totfact> 0.14157364E+04</totfact>
</mgrwt>
</event>
<event>
 4    1  0.4023583E+000  0.2115831E+03  0.7546771E-02  0.1140318E+00
         21   -1    0    0  501  502  0.00000000000E+00  0.00000000000E+00  0.14258766409E+04  0.14258766409E+04  0.00000000000E+00 0.  1.
         21   -1    0    0  502  503 -0.00000000000E+00 -0.00000000000E+00 -0.36654633143E+02  0.36654633143E+02  0.00000000000E+00 0.  1.
          6    1    1    2  501    0  0.11161568742E+03  0.48788888007E+02  0.97157923293E+03  0.99435085515E+03  0.17300000000E+03 0.  1.
         -6    1    1    2    0  503 -0.11161568742E+03 -0.48788888007E+02  0.41764277482E+03  0.46818041889E+03  0.17300000000E+03 0.  1.
<mgrwt>
<rscale>  2 0.21158312E+03</rscale>
<asrwt>0</asrwt>
<pdfrwt beam="1">  1       21 0.21936559E+00 0.21158312E+03</pdfrwt>
<pdfrwt beam="2">  1       21 0.56391754E-02 0.21158312E+03</pdfrwt>
<totfact> 0.21928677E+04</totfact>
</mgrwt>
</event>
<event>
 4    1  0.4023583E+000  0.1865645E+03  0.7546771E-02  0.1161597E+00
         21   -1    0    0  503  502  0.00000000000E+00  0.00000000000E+00  0.22779510041E+04  0.22779510041E+04  0.00000000000E+00 0.  1.
         21   -1    0    0  501  503 -0.00000000000E+00 -0.00000000000E+00 -0.53039892434E+02  0.53039892434E+02  0.00000000000E+00 0.  1.
          6    1    1    2  501    0  0.53427199406E+02  0.44975977436E+02  0.12906365788E+03  0.22685619226E+03  0.17300000000E+03 0.  1.
         -6    1    1    2    0  502 -0.53427199406E+02 -0.44975977436E+02  0.20958474538E+04  0.21041347043E+04  0.17300000000E+03 0.  1.
<mgrwt>
<rscale>  2 0.18656448E+03</rscale>
<asrwt>0</asrwt>
<pdfrwt beam="1">  1       21 0.35045392E+00 0.18656448E+03</pdfrwt>
<pdfrwt beam="2">  1       21 0.81599852E-02 0.18656448E+03</pdfrwt>
<totfact> 0.20322386E+03</totfact>
</mgrwt>
</event>
<event>
 4    1  0.4023583E+000  0.2376374E+03  0.7546771E-02  0.1121377E+00
         21   -1    0    0  501  502  0.00000000000E+00  0.00000000000E+00  0.20419230353E+03  0.20419230353E+03  0.00000000000E+00 0.  1.
         21   -1    0    0  502  503 -0.00000000000E+00 -0.00000000000E+00 -0.33965079799E+03  0.33965079799E+03  0.00000000000E+00 0.  1.
          6    1    1    2  501    0  0.15463738065E+02 -0.16218326958E+03  0.49465555555E+02  0.24273108847E+03  0.17300000000E+03 0.  1.
         -6    1    1    2    0  503 -0.15463738065E+02  0.16218326958E+03 -0.18492405001E+03  0.30111201304E+03  0.17300000000E+03 0.  1.
<mgrwt>
<rscale>  2 0.23763741E+03</rscale>
<asrwt>0</asrwt>
<pdfrwt beam="1">  1       21 0.31414201E-01 0.23763741E+03</pdfrwt>
<pdfrwt beam="2">  1       21 0.52253968E-01 0.23763741E+03</pdfrwt>
<totfact> 0.33081392E+04</totfact>
</mgrwt>
</event>
<event>
 4    1  0.4023583E+000  0.2244633E+03  0.7546771E-02  0.1130599E+00
         21   -1    0    0  501  502  0.00000000000E+00  0.00000000000E+00  0.54275204283E+03  0.54275204283E+03  0.00000000000E+00 0.  1.
         21   -1    0    0  502  503 -0.00000000000E+00 -0.00000000000E+00 -0.11702321998E+03  0.11702321998E+03  0.00000000000E+00 0. -1.
          6    1    1    2  501    0  0.29621251532E+02  0.13991911212E+03  0.36285883813E+03  0.42667354369E+03  0.17300000000E+03 0.  1.
         -6    1    1    2    0  503 -0.29621251532E+02 -0.13991911212E+03  0.62869984719E+02  0.23310171912E+03  0.17300000000E+03 0. -1.
<mgrwt>
<rscale>  2 0.22446331E+03</rscale>
<asrwt>0</asrwt>
<pdfrwt beam="1">  1       21 0.83500313E-01 0.22446331E+03</pdfrwt>
<pdfrwt beam="2">  1       21 0.18003573E-01 0.22446331E+03</pdfrwt>
<totfact> 0.34444932E+04</totfact>
</mgrwt>
</event>
<event>
 4    1  0.4023583E+000  0.1809950E+03  0.7546771E-02  0.1166844E+00
         21   -1    0    0  503  502  0.00000000000E+00  0.00000000000E+00  0.95469318459E+03  0.95469318459E+03  0.00000000000E+00 0.  1.
         21   -1    0    0  501  503 -0.00000000000E+00 -0.00000000000E+00 -0.39363374075E+02  0.39363374075E+02  0.00000000000E+00 0.  1.
          6    1    1    2  501    0 -0.25640801583E+02  0.46612731302E+02  0.27964841956E+03  0.33311024600E+03  0.17300000000E+03 0.  1.
         -6    1    1    2    0  502  0.25640801583E+02 -0.46612731302E+02  0.63568139095E+03  0.66094631266E+03  0.17300000000E+03 0.  1.
<mgrwt>
<rscale>  2 0.18099502E+03</rscale>
<asrwt>0</asrwt>
<pdfrwt beam="1">  1       21 0.14687586E+00 0.18099502E+03</pdfrwt>
<pdfrwt beam="2">  1       21 0.60559044E-02 0.18099502E+03</pdfrwt>
<totfact> 0.61683376E+04</totfact>
</mgrwt>
</event>
<event>
 4    1  0.4023583E+000  0.2759297E+03  0.7546771E-02  0.1097933E+00
         21   -1    0    0  503  502  0.00000000000E+00  0.00000000000E+00  0.13355720719E+03  0.13355720719E+03  0.00000000000E+00 0. -1.
         21   -1    0    0  501  503 -0.00000000000E+00 -0.00000000000E+00 -0.78445247232E+03  0.78445247232E+03  0.00000000000E+00 0.  1.
          6    1    1    2  501    0  0.26037963009E+02  0.21337808101E+03 -0.56540102061E+03  0.62913869304E+03  0.17300000000E+03 0.  1.
         -6    1    1    2    0  502 -0.26037963009E+02 -0.21337808101E+03 -0.85494244524E+02  0.28887098647E+03  0.17300000000E+03 0. -1.
<mgrwt>
<rscale>  2 0.27592967E+03</rscale>
<asrwt>0</asrwt>
<pdfrwt beam="1">  1       21 0.20547263E-01 0.27592967E+03</pdfrwt>
<pdfrwt beam="2">  1       21 0.12068500E+00 0.27592967E+03</pdfrwt>
<totfact> 0.10860859E+04</totfact>
</mgrwt>
</event>
<event>
 4    1  0.4023583E+000  0.1992792E+03  0.7546771E-02  0.1150349E+00
         21   -1    0    0  501  502  0.00000000000E+00  0.00000000000E+00  0.67096671830E+03  0.67096671830E+03  0.00000000000E+00 0. -1.
         21   -1    0    0  502  503 -0.00000000000E+00 -0.00000000000E+00 -0.72292909803E+02  0.72292909803E+02  0.00000000000E+00 0.  1.
          6    1    1    2  501    0 -0.87205982044E+02 -0.46672362499E+02  0.45757244917E+03  0.49908389972E+03  0.17300000000E+03 0. -1.
         -6    1    1    2    0  503  0.87205982044E+02  0.46672362499E+02  0.14110135933E+03  0.24417572838E+03  0.17300000000E+03 0.  1.
<mgrwt>
<rscale>  2 0.19927918E+03</rscale>
<asrwt>0</asrwt>
<pdfrwt beam="1">  1       21 0.10322564E+00 0.19927918E+03</pdfrwt>
<pdfrwt beam="2">  1       21 0.11121987E-01 0.19927918E+03</pdfrwt>
<totfact> 0.50972147E+04</totfact>
</mgrwt>
</event>
<event>
 4    1  0.4023583E+000  0.1741948E+03  0.7546771E-02  0.1173543E+00
         21   -1    0    0  503  502  0.00000000000E+00  0.00000000000E+00  0.17507909317E+03  0.17507909317E+03  0.00000000000E+00 0.  1.
         21   -1    0    0  501  503 -0.00000000000E+00 -0.00000000000E+00 -0.28135713675E+03  0.28135713675E+03  0.00000000000E+00 0.  1.
          6    1    1    2  501    0  0.19960856302E+02  0.40477786453E+01  0.88283271204E+02  0.19528890463E+03  0.17300000000E+03 0.  1.
         -6    1    1    2    0  502 -0.19960856302E+02 -0.40477786453E+01 -0.19456131479E+03  0.26114732529E+03  0.17300000000E+03 0.  1.
<mgrwt>
<rscale>  2 0.17419478E+03</rscale>
<asrwt>0</asrwt>
<pdfrwt beam="1">  1       21 0.26935245E-01 0.17419478E+03</pdfrwt>
<pdfrwt beam="2">  1       21 0.43285713E-01 0.17419478E+03</pdfrwt>
<totfact> 0.67910707E+04</totfact>
</mgrwt>
</event>
<event>
 4    1  0.4023583E+000  0.2023145E+03  0.7546771E-02  0.1147801E+00
         21   -1    0    0  503  502  0.00000000000E+00  0.00000000000E+00  0.14963400367E+03  0.14963400367E+03  0.00000000000E+00 0. -1.
         21   -1    0    0  501  503 -0.00000000000E+00 -0.00000000000E+00 -0.68251874403E+03  0.68251874403E+03  0.00000000000E+00 0. -1.
          6    1    1    2  501    0  0.76639072550E+02  0.71614246771E+02 -0.58852344119E+03  0.62232707527E+03  0.17300000000E+03 0. -1.
         -6    1    1    2    0  502 -0.76639072550E+02 -0.71614246771E+02  0.55638700826E+02  0.20982567243E+03  0.17300000000E+03 0. -1.
<mgrwt>
<rscale>  2 0.20231448E+03</rscale>
<asrwt>0</asrwt>
<pdfrwt beam="1">  1       21 0.23020616E-01 0.20231448E+03</pdfrwt>
<pdfrwt beam="2">  1       21 0.10500288E+00 0.20231448E+03</pdfrwt>
<totfact> 0.12859773E+04</totfact>
</mgrwt>
</event>
<event>
 4    1  0.4023583E+000  0.2287960E+03  0.7546771E-02  0.1127490E+00
         21   -1    0    0  501  502  0.00000000000E+00  0.00000000000E+00  0.63593249282E+03  0.63593249282E+03  0.00000000000E+00 0. -1.
         21   -1    0    0  502  503 -0.00000000000E+00 -0.00000000000E+00 -0.11460773454E+03  0.11460773454E+03  0.00000000000E+00 0. -1.
          6    1    1    2  501    0  0.11035843822E+03 -0.10119095278E+03  0.45985848958E+03  0.51363160363E+03  0.17300000000E+03 0. -1.
         -6    1    1    2    0  503 -0.11035843822E+03  0.10119095278E+03  0.61466268699E+02  0.23690862373E+03  0.17300000000E+03 0. -1.
<mgrwt>
<rscale>  2 0.22879597E+03</rscale>
<asrwt>0</asrwt>
<pdfrwt beam="1">  1       21 0.97835766E-01 0.22879597E+03</pdfrwt>
<pdfrwt beam="2">  1       21 0.17631959E-01 0.22879597E+03</pdfrwt>
<totfact> 0.24705092E+04</totfact>
</mgrwt>
</event>
<event>
 4    1  0.4023583E+000  0.2554295E+03  0.7546771E-02  0.1109921E+00
         21   -1    0    0  501  502  0.00000000000E+00  0.00000000000E+00  0.32362531720E+03  0.32362531720E+03  0.00000000000E+00 0.  1.
         21   -1    0    0  502  503 -0.00000000000E+00 -0.00000000000E+00 -0.20160781136E+03  0.20160781136E+03  0.00000000000E+00 0.  1.
          6    1    1    2  501    0  0.18086371564E+03 -0.51025110760E+02  0.59907964050E+02  0.26236083877E+03  0.17300000000E+03 0.  1.
         -6    1    1    2    0  503 -0.18086371564E+03  0.51025110760E+02  0.62109541787E+02  0.26287228980E+03  0.17300000000E+03 0.  1.
<mgrwt>
<rscale>  2 0.25542953E+03</rscale>
<asrwt>0</asrwt>
<pdfrwt beam="1">  1       21 0.49788510E-01 0.25542953E+03</pdfrwt>
<pdfrwt beam="2">  1       21 0.31016586E-01 0.25542953E+03</pdfrwt>
<totfact> 0.37265035E+04</totfact>
</mgrwt>
</event>
<event>
 4    1  0.4023583E+000  0.1761351E+03  0.7546771E-02  0.1171597E+00
         21   -1    0    0  501  502  0.00000000000E+00  0.00000000000E+00  0.15482126743E+03  0.15482126743E+03  0.00000000000E+00 0. -1.
         21   -1    0    0  502  503 -0.00000000000E+00 -0.00000000000E+00 -0.20817588830E+03  0.20817588830E+03  0.00000000000E+00 0. -1.
          6    1    1    2  501    0  0.23566828053E+02  0.23219884715E+02  0.84387450865E+01  0.17633709437E+03  0.17300000000E+03 0.  1.
         -6    1    1    2    0  503 -0.23566828053E+02 -0.23219884715E+02 -0.61793365960E+02  0.18666006136E+03  0.17300000000E+03 0.  1.
<mgrwt>
<rscale>  2 0.17613506E+03</rscale>
<asrwt>0</asrwt>
<pdfrwt beam="1">  1       21 0.23818657E-01 0.17613506E+03</pdfrwt>
<pdfrwt beam="2">  1       21 0.32027060E-01 0.17613506E+03</pdfrwt>
<totfact> 0.15656009E+05</totfact>
</mgrwt>
</event>
<event>
 4    1  0.4023583E+000  0.1733863E+03  0.7546771E-02  0.1174362E+00
         21   -1    0    0  501  502  0.00000000000E+00  0.00000000000E+00  0.23588152938E+02  0.23588152938E+02  0.00000000000E+00 0.  1.
         21   -1    0    0  502  503 -0.00000000000E+00 -0.00000000000E+00 -0.13039066682E+04  0.13039066682E+04  0.00000000000E+00 0.  1.
          6    1    1    2  501    0 -0.11556125366E+02  0.50759525708E+00 -0.54045902945E+03  0.56759031370E+03  0.17300000000E+03 0. -1.
         -6    1    1    2    0  503  0.11556125366E+02 -0.50759525708E+00 -0.73985948579E+03  0.75990450742E+03  0.17300000000E+03 0. -1.
<mgrwt>
<rscale>  2 0.17338628E+03</rscale>
<asrwt>0</asrwt>
<pdfrwt beam="1">  1       21 0.36289463E-02 0.17338628E+03</pdfrwt>
<pdfrwt beam="2">  1       21 0.20060104E+00 0.17338628E+03</pdfrwt>
<totfact> 0.62136602E+04</totfact>
</mgrwt>
</event>
<event>
 4    1  0.4023583E+000  0.1741335E+03  0.7546771E-02  0.1173605E+00
         21   -1    0    0  503  502  0.00000000000E+00  0.00000000000E+00  0.45313217423E+03  0.45313217423E+03  0.00000000000E+00 0. -1.
         21   -1    0    0  501  503 -0.00000000000E+00 -0.00000000000E+00 -0.28577466269E+03  0.28577466269E+03  0.00000000000E+00 0. -1.
          6    1    1    2  501    0  0.15167315532E+02 -0.12784422721E+02 -0.23963797204E+03  0.29622431799E+03  0.17300000000E+03 0. -1.
         -6    1    1    2    0  502 -0.15167315532E+02  0.12784422721E+02  0.40699548358E+03  0.44268251894E+03  0.17300000000E+03 0. -1.
<mgrwt>
<rscale>  2 0.17413354E+03</rscale>
<asrwt>0</asrwt>
<pdfrwt beam="1">  1       21 0.69712642E-01 0.17413354E+03</pdfrwt>
<pdfrwt beam="2">  1       21 0.43965333E-01 0.17413354E+03</pdfrwt>
<totfact> 0.94167017E+03</totfact>
</mgrwt>
</event>
<event>
 4    1  0.4023583E+000  0.1787724E+03  0.7546771E-02  0.1168996E+00
         21   -1    0    0  501  502  0.00000000000E+00  0.00000000000E+00  0.19558563911E+03  0.19558563911E+03  0.00000000000E+00 0. -1.
         21   -1    0    0  502  503 -0.00000000000E+00 -0.00000000000E+00 -0.19416500897E+03  0.19416500897E+03  0.00000000000E+00 0. -1.
          6    1    1    2  501    0 -0.44028178472E+02  0.95954606122E+01  0.78275861173E+02  0.19515804827E+03  0.17300000000E+03 0. -1.
         -6    1    1    2    0  503  0.44028178472E+02 -0.95954606122E+01 -0.76855231033E+02  0.19459259981E+03  0.17300000000E+03 0. -1.
<mgrwt>
<rscale>  2 0.17877235E+03</rscale>
<asrwt>0</asrwt>
<pdfrwt beam="1">  1       21 0.30090099E-01 0.17877235E+03</pdfrwt>
<pdfrwt beam="2">  1       21 0.29871540E-01 0.17877235E+03</pdfrwt>
<totfact> 0.11440740E+05</totfact>
</mgrwt>
</event>
<event>
 4    1  0.4023583E+000  0.2605536E+03  0.7546771E-02  0.1106811E+00
         21   -1    0    0  503  502  0.00000000000E+00  0.00000000000E+00  0.43172184481E+03  0.43172184481E+03  0.00000000000E+00 0. -1.
         21   -1    0    0  501  503 -0.00000000000E+00 -0.00000000000E+00 -0.45260017153E+03  0.45260017153E+03  0.00000000000E+00 0. -1.
          6    1    1    2  501    0  0.16198600094E+03  0.10825772965E+03 -0.36762300163E+03  0.45059391014E+03  0.17300000000E+03 0. -1.
         -6    1    1    2    0  502 -0.16198600094E+03 -0.10825772965E+03  0.34674467491E+03  0.43372810620E+03  0.17300000000E+03 0. -1.
<mgrwt>
<rscale>  2 0.26055364E+03</rscale>
<asrwt>0</asrwt>
<pdfrwt beam="1">  1       21 0.66418745E-01 0.26055364E+03</pdfrwt>
<pdfrwt beam="2">  1       21 0.69630796E-01 0.26055364E+03</pdfrwt>
<totfact> 0.37119330E+03</totfact>
</mgrwt>
</event>
<event>
 4    1  0.4023583E+000  0.1854318E+03  0.7546771E-02  0.1162647E+00
         21   -1    0    0  501  502  0.00000000000E+00  0.00000000000E+00  0.18949953999E+03  0.18949953999E+03  0.00000000000E+00 0. -1.
         21   -1    0    0  502  503 -0.00000000000E+00 -0.00000000000E+00 -0.21523650665E+03  0.21523650665E+03  0.00000000000E+00 0. -1.
          6    1    1    2  501    0  0.84823954541E+00 -0.66747503510E+02  0.67307970552E+02  0.19726964195E+03  0.17300000000E+03 0. -1.
         -6    1    1    2    0  503 -0.84823954541E+00  0.66747503510E+02 -0.93044937211E+02  0.20746640469E+03  0.17300000000E+03 0. -1.
<mgrwt>
<rscale>  2 0.18543179E+03</rscale>
<asrwt>0</asrwt>
<pdfrwt beam="1">  1       21 0.29153775E-01 0.18543179E+03</pdfrwt>
<pdfrwt beam="2">  1       21 0.33113309E-01 0.18543179E+03</pdfrwt>
<totfact> 0.99198317E+04</totfact>
</mgrwt>
</event>
<event>
 4    1  0.4023583E+000  0.1773374E+03  0.7546771E-02  0.1170405E+00
         21   -1    0    0  501  502  0.00000000000E+00  0.00000000000E+00  0.80038137882E+03  0.80038137882E+03  0.00000000000E+00 0.  1.
         21   -1    0    0  502  503 -0.00000000000E+00 -0.00000000000E+00 -0.88703144807E+02  0.88703144807E+02  0.00000000000E+00 0.  1.
          6    1    1    2  501    0  0.21330828128E+02 -0.32627367326E+02  0.68762369932E+03  0.71012315917E+03  0.17300000000E+03 0.  1.
         -6    1    1    2    0  503 -0.21330828128E+02  0.32627367326E+02  0.24054534690E+02  0.17896136445E+03  0.17300000000E+03 0.  1.
<mgrwt>
<rscale>  2 0.17733739E+03</rscale>
<asrwt>0</asrwt>
<pdfrwt beam="1">  1       21 0.12313559E+00 0.17733739E+03</pdfrwt>
<pdfrwt beam="2">  1       21 0.13646638E-01 0.17733739E+03</pdfrwt>
<totfact> 0.23286455E+04</totfact>
</mgrwt>
</event>
<event>
 4    1  0.4023583E+000  0.1848908E+03  0.7546771E-02  0.1163152E+00
         21   -1    0    0  501  502  0.00000000000E+00  0.00000000000E+00  0.82560169211E+03  0.82560169211E+03  0.00000000000E+00 0. -1.
         21   -1    0    0  502  503 -0.00000000000E+00 -0.00000000000E+00 -0.94376135757E+02  0.94376135757E+02  0.00000000000E+00 0. -1.
          6    1    1    2  501    0  0.53660718920E+01  0.65014057722E+02  0.71022685236E+03  0.73389836098E+03  0.17300000000E+03 0. -1.
         -6    1    1    2    0  503 -0.53660718920E+01 -0.65014057722E+02  0.20998703992E+02  0.18607946689E+03  0.17300000000E+03 0. -1.
<mgrwt>
<rscale>  2 0.18489084E+03</rscale>
<asrwt>0</asrwt>
<pdfrwt beam="1">  1       21 0.12701564E+00 0.18489084E+03</pdfrwt>
<pdfrwt beam="2">  1       21 0.14519406E-01 0.18489084E+03</pdfrwt>
<totfact> 0.19170018E+04</totfact>
</mgrwt>
</event>
<event>
 4    1  0.4023583E+000  0.2003628E+03  0.7546771E-02  0.1149433E+00
         21   -1    0    0  501  502  0.00000000000E+00  0.00000000000E+00  0.17728724365E+03  0.17728724365E+03  0.00000000000E+00 0. -1.
         21   -1    0    0  502  503 -0.00000000000E+00 -0.00000000000E+00 -0.31091104528E+03  0.31091104528E+03  0.00000000000E+00 0.  1.
          6    1    1    2  501    0 -0.57236927292E+02  0.83307732837E+02 -0.19404422633E+03  0.27892365617E+03  0.17300000000E+03 0.  1.
         -6    1    1    2    0  503  0.57236927292E+02 -0.83307732837E+02  0.60420424711E+02  0.20927463276E+03  0.17300000000E+03 0. -1.
<mgrwt>
<rscale>  2 0.20036278E+03</rscale>
<asrwt>0</asrwt>
<pdfrwt beam="1">  1       21 0.27274961E-01 0.20036278E+03</pdfrwt>
<pdfrwt beam="2">  1       21 0.47832468E-01 0.20036278E+03</pdfrwt>
<totfact> 0.53350799E+04</totfact>
</mgrwt>
</event>
<event>
 4    1  0.4023583E+000  0.1846641E+03  0.7546771E-02  0.1163364E+00
         21   -1    0    0  503  502  0.00000000000E+00  0.00000000000E+00  0.79396320765E+03  0.79396320765E+03  0.00000000000E+00 0.  1.
         21   -1    0    0  501  503 -0.00000000000E+00 -0.00000000000E+00 -0.43553169562E+02  0.43553169562E+02  0.00000000000E+00 0. -1.
          6    1    1    2  501    0  0.54106147045E+01 -0.64362818727E+02  0.42447873949E+03  0.46290716939E+03  0.17300000000E+03 0.  1.
         -6    1    1    2    0  502 -0.54106147045E+01  0.64362818727E+02  0.32593129860E+03  0.37460920783E+03  0.17300000000E+03 0.  1.
<mgrwt>
<rscale>  2 0.18466415E+03</rscale>
<asrwt>0</asrwt>
<pdfrwt beam="1">  1       21 0.12214818E+00 0.18466415E+03</pdfrwt>
<pdfrwt beam="2">  1       21 0.67004882E-02 0.18466415E+03</pdfrwt>
<totfact> 0.82727505E+04</totfact>
</mgrwt>
</event>
<event>
 4    1  0.4023583E+000  0.1760870E+03  0.7546771E-02  0.1171645E+00
         21   -1    0    0  501  502  0.00000000000E+00  0.00000000000E+00  0.34323459656E+02  0.34323459656E+02  0.00000000000E+00 0. -1.
         21   -1    0    0  502  503 -0.00000000000E+00 -0.00000000000E+00 -0.10783558292E+04  0.10783558292E+04  0.00000000000E+00 0. -1.
          6    1    1    2  501    0  0.18868641583E+02 -0.26862513933E+02 -0.29790356462E+03  0.34605368674E+03  0.17300000000E+03 0. -1.
         -6    1    1    2    0  503 -0.18868641583E+02  0.26862513933E+02 -0.74612880495E+03  0.76662560214E+03  0.17300000000E+03 0. -1.
<mgrwt>
<rscale>  2 0.17608697E+03</rscale>
<asrwt>0</asrwt>
<pdfrwt beam="1">  1       21 0.52805320E-02 0.17608697E+03</pdfrwt>
<pdfrwt beam="2">  1       21 0.16590091E+00 0.17608697E+03</pdfrwt>
<totfact> 0.56474822E+04</totfact>
</mgrwt>
</event>
<event>
 4    1  0.4023583E+000  0.1857905E+03  0.7546771E-02  0.1162314E+00
         21   -1    0    0  503  502  0.00000000000E+00  0.00000000000E+00  0.15008480929E+03  0.15008480929E+03  0.00000000000E+00 0.  1.
         21   -1    0    0  501  503 -0.00000000000E+00 -0.00000000000E+00 -0.24180822304E+03  0.24180822304E+03  0.00000000000E+00 0.  1.
          6    1    1    2  501    0 -0.54380900854E+01  0.67524388301E+02 -0.89179325174E+02  0.20608509863E+03  0.17300000000E+03 0. -1.
         -6    1    1    2    0  502  0.54380900854E+01 -0.67524388301E+02 -0.25440885779E+01  0.18580793370E+03  0.17300000000E+03 0. -1.
<mgrwt>
<rscale>  2 0.18579052E+03</rscale>
<asrwt>0</asrwt>
<pdfrwt beam="1">  1       21 0.23089971E-01 0.18579052E+03</pdfrwt>
<pdfrwt beam="2">  1       21 0.37201265E-01 0.18579052E+03</pdfrwt>
<totfact> 0.12306837E+05</totfact>
</mgrwt>
</event>
<event>
 4    1  0.4023583E+000  0.1833094E+03  0.7546771E-02  0.1164638E+00
         21   -1    0    0  501  502  0.00000000000E+00  0.00000000000E+00  0.75511749802E+03  0.75511749802E+03  0.00000000000E+00 0. -1.
         21   -1    0    0  502  503 -0.00000000000E+00 -0.00000000000E+00 -0.49289473158E+02  0.49289473158E+02  0.00000000000E+00 0. -1.
          6    1    1    2  501    0  0.24341708907E+02 -0.55505217781E+02  0.47829609193E+03  0.51222016707E+03  0.17300000000E+03 0. -1.
         -6    1    1    2    0  503 -0.24341708907E+02  0.55505217781E+02  0.22753193293E+03  0.29218680411E+03  0.17300000000E+03 0. -1.
<mgrwt>
<rscale>  2 0.18330943E+03</rscale>
<asrwt>0</asrwt>
<pdfrwt beam="1">  1       21 0.11617191E+00 0.18330943E+03</pdfrwt>
<pdfrwt beam="2">  1       21 0.75829964E-02 0.18330943E+03</pdfrwt>
<totfact> 0.75650526E+04</totfact>
</mgrwt>
</event>
<event>
 4    1  0.4023583E+000  0.2372018E+03  0.7546771E-02  0.1121671E+00
         21   -1    0    0  503  502  0.00000000000E+00  0.00000000000E+00  0.56625174878E+03  0.56625174878E+03  0.00000000000E+00 0. -1.
         21   -1    0    0  501  503 -0.00000000000E+00 -0.00000000000E+00 -0.14885190715E+03  0.14885190715E+03  0.00000000000E+00 0.  1.
          6    1    1    2  501    0 -0.12342784471E+03 -0.10536241200E+03  0.25352727802E+01  0.23721529951E+03  0.17300000000E+03 0.  1.
         -6    1    1    2    0  502  0.12342784471E+03  0.10536241200E+03  0.41486456886E+03  0.47788835642E+03  0.17300000000E+03 0. -1.
<mgrwt>
<rscale>  2 0.23720175E+03</rscale>
<asrwt>0</asrwt>
<pdfrwt beam="1">  1       21 0.87115653E-01 0.23720175E+03</pdfrwt>
<pdfrwt beam="2">  1       21 0.22900294E-01 0.23720175E+03</pdfrwt>
<totfact> 0.19755700E+04</totfact>
</mgrwt>
</event>
<event>
 4    1  0.4023583E+000  0.1807157E+03  0.7546771E-02  0.1167112E+00
         21   -1    0    0  501  502  0.00000000000E+00  0.00000000000E+00  0.17096621853E+03  0.17096621853E+03  0.00000000000E+00 0.  1.
         21   -1    0    0  502  503 -0.00000000000E+00 -0.00000000000E+00 -0.22855953129E+03  0.22855953129E+03  0.00000000000E+00 0.  1.
          6    1    1    2  501    0 -0.15941591572E+02 -0.49749525904E+02  0.52160147786E+02  0.18809261199E+03  0.17300000000E+03 0.  1.
         -6    1    1    2    0  503  0.15941591572E+02  0.49749525904E+02 -0.10975346055E+03  0.21143313783E+03  0.17300000000E+03 0.  1.
<mgrwt>
<rscale>  2 0.18071566E+03</rscale>
<asrwt>0</asrwt>
<pdfrwt beam="1">  1       21 0.26302496E-01 0.18071566E+03</pdfrwt>
<pdfrwt beam="2">  1       21 0.35163004E-01 0.18071566E+03</pdfrwt>
<totfact> 0.10762817E+05</totfact>
</mgrwt>
</event>
<event>
 4    1  0.4023583E+000  0.2042400E+03  0.7546771E-02  0.1146210E+00
         21   -1    0    0  501  502  0.00000000000E+00  0.00000000000E+00  0.39498612501E+03  0.39498612501E+03  0.00000000000E+00 0. -1.
         21   -1    0    0  502  503 -0.00000000000E+00 -0.00000000000E+00 -0.32336524419E+03  0.32336524419E+03  0.00000000000E+00 0. -1.
          6    1    1    2  501    0  0.90923874398E+02  0.59311405914E+02  0.33055500786E+03  0.38856223057E+03  0.17300000000E+03 0. -1.
         -6    1    1    2    0  503 -0.90923874398E+02 -0.59311405914E+02 -0.25893412705E+03  0.32978913863E+03  0.17300000000E+03 0. -1.
<mgrwt>
<rscale>  2 0.20424004E+03</rscale>
<asrwt>0</asrwt>
<pdfrwt beam="1">  1       21 0.60767096E-01 0.20424004E+03</pdfrwt>
<pdfrwt beam="2">  1       21 0.49748499E-01 0.20424004E+03</pdfrwt>
<totfact> 0.96315474E+03</totfact>
</mgrwt>
</event>
<event>
 4    1  0.4023583E+000  0.2252757E+03  0.7546771E-02  0.1130010E+00
         21   -1    0    0  501  502  0.00000000000E+00  0.00000000000E+00  0.18290775254E+03  0.18290775254E+03  0.00000000000E+00 0. -1.
         21   -1    0    0  502  503 -0.00000000000E+00 -0.00000000000E+00 -0.28291397615E+03  0.28291397615E+03  0.00000000000E+00 0.  1.
          6    1    1    2  501    0  0.12347351623E+03 -0.74662260063E+02 -0.17657813414E+02  0.22596672468E+03  0.17300000000E+03 0. -1.
         -6    1    1    2    0  503 -0.12347351623E+03  0.74662260063E+02 -0.82348410189E+02  0.23985500401E+03  0.17300000000E+03 0.  1.
<mgrwt>
<rscale>  2 0.22527575E+03</rscale>
<asrwt>0</asrwt>
<pdfrwt beam="1">  1       21 0.28139654E-01 0.22527575E+03</pdfrwt>
<pdfrwt beam="2">  1       21 0.43525227E-01 0.22527575E+03</pdfrwt>
<totfact> 0.60335342E+04</totfact>
</mgrwt>
</event>
<event>
 4    1  0.4023583E+000  0.2324597E+03  0.7546771E-02  0.1124920E+00
         21   -1    0    0  501  502  0.00000000000E+00  0.00000000000E+00  0.87834060641E+03  0.87834060641E+03  0.00000000000E+00 0.  1.
         21   -1    0    0  502  503 -0.00000000000E+00 -0.00000000000E+00 -0.97045360659E+02  0.97045360659E+02  0.00000000000E+00 0.  1.
          6    1    1    2  501    0  0.14972255756E+03 -0.41129975678E+02  0.68571039097E+03  0.72404161443E+03  0.17300000000E+03 0.  1.
         -6    1    1    2    0  503 -0.14972255756E+03  0.41129975678E+02  0.95584854782E+02  0.25134435264E+03  0.17300000000E+03 0.  1.
<mgrwt>
<rscale>  2 0.23245972E+03</rscale>
<asrwt>0</asrwt>
<pdfrwt beam="1">  1       21 0.13512932E+00 0.23245972E+03</pdfrwt>
<pdfrwt beam="2">  1       21 0.14930056E-01 0.23245972E+03</pdfrwt>
<totfact> 0.15108404E+04</totfact>
</mgrwt>
</event>
<event>
 4    1  0.4023583E+000  0.1936172E+03  0.7546771E-02  0.1155239E+00
         21   -1    0    0  503  502  0.00000000000E+00  0.00000000000E+00  0.18224901496E+04  0.18224901496E+04  0.00000000000E+00 0.  1.
         21   -1    0    0  501  503 -0.00000000000E+00 -0.00000000000E+00 -0.21622312480E+02  0.21622312480E+02  0.00000000000E+00 0.  1.
          6    1    1    2  501    0 -0.75088986910E+02  0.43820893445E+02  0.69696812363E+03  0.72336172971E+03  0.17300000000E+03 0.  1.
         -6    1    1    2    0  502  0.75088986910E+02 -0.43820893445E+02  0.11038997135E+04  0.11207507324E+04  0.17300000000E+03 0.  1.
<mgrwt>
<rscale>  2 0.19361722E+03</rscale>
<asrwt>0</asrwt>
<pdfrwt beam="1">  1       21 0.28038298E+00 0.19361722E+03</pdfrwt>
<pdfrwt beam="2">  1       21 0.33265110E-02 0.19361722E+03</pdfrwt>
<totfact> 0.23581119E+04</totfact>
</mgrwt>
</event>
<event>
 4    1  0.4023583E+000  0.1780290E+03  0.7546771E-02  0.1169724E+00
         21   -1    0    0  503  502  0.00000000000E+00  0.00000000000E+00  0.30596132539E+03  0.30596132539E+03  0.00000000000E+00 0.  1.
         21   -1    0    0  501  503 -0.00000000000E+00 -0.00000000000E+00 -0.30628540626E+03  0.30628540626E+03  0.00000000000E+00 0.  1.
          6    1    1    2  501    0  0.25050636111E+02  0.33731281277E+02 -0.24919451326E+03  0.30625518631E+03  0.17300000000E+03 0.  1.
         -6    1    1    2    0  502 -0.25050636111E+02 -0.33731281277E+02  0.24887043238E+03  0.30599154534E+03  0.17300000000E+03 0.  1.
<mgrwt>
<rscale>  2 0.17802902E+03</rscale>
<asrwt>0</asrwt>
<pdfrwt beam="1">  1       21 0.47070973E-01 0.17802902E+03</pdfrwt>
<pdfrwt beam="2">  1       21 0.47120832E-01 0.17802902E+03</pdfrwt>
<totfact> 0.18780271E+04</totfact>
</mgrwt>
</event>
<event>
 4    1  0.4023583E+000  0.2328896E+03  0.7546771E-02  0.1124622E+00
         21   -1    0    0  503  502  0.00000000000E+00  0.00000000000E+00  0.73023205819E+02  0.73023205819E+02  0.00000000000E+00 0. -1.
         21   -1    0    0  501  503 -0.00000000000E+00 -0.00000000000E+00 -0.90926753438E+03  0.90926753438E+03  0.00000000000E+00 0.  1.
          6    1    1    2  501    0  0.30924115349E+02 -0.15281451470E+03 -0.62830706174E+03  0.67008010017E+03  0.17300000000E+03 0.  1.
         -6    1    1    2    0  502 -0.30924115349E+02  0.15281451470E+03 -0.20793726683E+03  0.31221064003E+03  0.17300000000E+03 0.  1.
<mgrwt>
<rscale>  2 0.23288962E+03</rscale>
<asrwt>0</asrwt>
<pdfrwt beam="1">  1       21 0.11234339E-01 0.23288962E+03</pdfrwt>
<pdfrwt beam="2">  1       21 0.13988731E+00 0.23288962E+03</pdfrwt>
<totfact> 0.23097372E+04</totfact>
</mgrwt>
</event>
<event>
 4    1  0.4023583E+000  0.2067185E+03  0.7546771E-02  0.1144191E+00
         21   -1    0    0  501  502  0.00000000000E+00  0.00000000000E+00  0.12820413688E+03  0.12820413688E+03  0.00000000000E+00 0.  1.
         21   -1    0    0  502  503 -0.00000000000E+00 -0.00000000000E+00 -0.50936716872E+03  0.50936716872E+03  0.00000000000E+00 0.  1.
          6    1    1    2  501    0 -0.10589300516E+03  0.39877672915E+02 -0.31674847962E+01  0.20674281196E+03  0.17300000000E+03 0.  1.
         -6    1    1    2    0  503  0.10589300516E+03 -0.39877672915E+02 -0.37799554705E+03  0.43082849363E+03  0.17300000000E+03 0.  1.
<mgrwt>
<rscale>  2 0.20671855E+03</rscale>
<asrwt>0</asrwt>
<pdfrwt beam="1">  1       21 0.19723713E-01 0.20671855E+03</pdfrwt>
<pdfrwt beam="2">  1       21 0.78364179E-01 0.20671855E+03</pdfrwt>
<totfact> 0.33877413E+04</totfact>
</mgrwt>
</event>
<event>
 4    1  0.4023583E+000  0.2874123E+03  0.7546771E-02  0.1091708E+00
         21   -1    0    0  503  502  0.00000000000E+00  0.00000000000E+00  0.34220755704E+03  0.34220755704E+03  0.00000000000E+00 0.  1.
         21   -1    0    0  501  503 -0.00000000000E+00 -0.00000000000E+00 -0.28614503710E+03  0.28614503710E+03  0.00000000000E+00 0. -1.
          6    1    1    2  501    0  0.89560628671E+02  0.21131904544E+03 -0.96218661253E+02  0.30309054084E+03  0.17300000000E+03 0.  1.
         -6    1    1    2    0  502 -0.89560628671E+02 -0.21131904544E+03  0.15228118120E+03  0.32526205330E+03  0.17300000000E+03 0.  1.
<mgrwt>
<rscale>  2 0.28741233E+03</rscale>
<asrwt>0</asrwt>
<pdfrwt beam="1">  1       21 0.52647316E-01 0.28741233E+03</pdfrwt>
<pdfrwt beam="2">  1       21 0.44022314E-01 0.28741233E+03</pdfrwt>
<totfact> 0.16128875E+04</totfact>
</mgrwt>
</event>
<event>
 4    1  0.4023583E+000  0.1908321E+03  0.7546771E-02  0.1157713E+00
         21   -1    0    0  501  502  0.00000000000E+00  0.00000000000E+00  0.85726706366E+03  0.85726706366E+03  0.00000000000E+00 0. -1.
         21   -1    0    0  502  503 -0.00000000000E+00 -0.00000000000E+00 -0.43477508022E+02  0.43477508022E+02  0.00000000000E+00 0. -1.
          6    1    1    2  501    0  0.59676257190E+02  0.54098389504E+02  0.47510510873E+03  0.51199780836E+03  0.17300000000E+03 0. -1.
         -6    1    1    2    0  503 -0.59676257190E+02 -0.54098389504E+02  0.33868444691E+03  0.38874676333E+03  0.17300000000E+03 0. -1.
<mgrwt>
<rscale>  2 0.19083210E+03</rscale>
<asrwt>0</asrwt>
<pdfrwt beam="1">  1       21 0.13188723E+00 0.19083210E+03</pdfrwt>
<pdfrwt beam="2">  1       21 0.66888480E-02 0.19083210E+03</pdfrwt>
<totfact> 0.68253181E+04</totfact>
</mgrwt>
</event>
<event>
 4    1  0.4023583E+000  0.2426054E+03  0.7546771E-02  0.1118069E+00
         21   -1    0    0  501  502  0.00000000000E+00  0.00000000000E+00  0.18198870219E+03  0.18198870219E+03  0.00000000000E+00 0.  1.
         21   -1    0    0  502  503 -0.00000000000E+00 -0.00000000000E+00 -0.35484681285E+03  0.35484681285E+03  0.00000000000E+00 0. -1.
          6    1    1    2  501    0  0.11474786212E+03  0.12554396344E+03 -0.65385536415E+01  0.24269345130E+03  0.17300000000E+03 0.  1.
         -6    1    1    2    0  503 -0.11474786212E+03 -0.12554396344E+03 -0.16631955701E+03  0.29414206374E+03  0.17300000000E+03 0. -1.
<mgrwt>
<rscale>  2 0.24260536E+03</rscale>
<asrwt>0</asrwt>
<pdfrwt beam="1">  1       21 0.27998262E-01 0.24260536E+03</pdfrwt>
<pdfrwt beam="2">  1       21 0.54591817E-01 0.24260536E+03</pdfrwt>
<totfact> 0.37688229E+04</totfact>
</mgrwt>
</event>
<event>
 4    1  0.4023583E+000  0.1871372E+03  0.7546771E-02  0.1161069E+00
         21   -1    0    0  503  502  0.00000000000E+00  0.00000000000E+00  0.67956289295E+02  0.67956289295E+02  0.00000000000E+00 0.  1.
         21   -1    0    0  501  503 -0.00000000000E+00 -0.00000000000E+00 -0.55164982503E+03  0.55164982503E+03  0.00000000000E+00 0.  1.
          6    1    1    2  501    0 -0.51504356735E+02  0.49382455199E+02 -0.32133258822E+03  0.37185340915E+03  0.17300000000E+03 0.  1.
         -6    1    1    2    0  502  0.51504356735E+02 -0.49382455199E+02 -0.16236094752E+03  0.24775270518E+03  0.17300000000E+03 0.  1.
<mgrwt>
<rscale>  2 0.18713718E+03</rscale>
<asrwt>0</asrwt>
<pdfrwt beam="1">  1       21 0.10454814E-01 0.18713718E+03</pdfrwt>
<pdfrwt beam="2">  1       21 0.84869205E-01 0.18713718E+03</pdfrwt>
<totfact> 0.90395326E+04</totfact>
</mgrwt>
</event>
<event>
 4    1  0.4023583E+000  0.1832551E+03  0.7546771E-02  0.1164689E+00
         21   -1    0    0  503  502  0.00000000000E+00  0.00000000000E+00  0.22576950408E+02  0.22576950408E+02  0.00000000000E+00 0. -1.
         21   -1    0    0  501  503 -0.00000000000E+00 -0.00000000000E+00 -0.18063338534E+04  0.18063338534E+04  0.00000000000E+00 0. -1.
          6    1    1    2  501    0 -0.41955783546E+02 -0.43510412583E+02 -0.12760887120E+04  0.12891799117E+04  0.17300000000E+03 0. -1.
         -6    1    1    2    0  502  0.41955783546E+02  0.43510412583E+02 -0.50766819099E+03  0.53973089213E+03  0.17300000000E+03 0. -1.
<mgrwt>
<rscale>  2 0.18325513E+03</rscale>
<asrwt>0</asrwt>
<pdfrwt beam="1">  1       21 0.34733769E-02 0.18325513E+03</pdfrwt>
<pdfrwt beam="2">  1       21 0.27789752E+00 0.18325513E+03</pdfrwt>
<totfact> 0.22905404E+04</totfact>
</mgrwt>
</event>
<event>
 4    1  0.4023583E+000  0.2019562E+03  0.7546771E-02  0.1148099E+00
         21   -1    0    0  501  502  0.00000000000E+00  0.00000000000E+00  0.54078424559E+03  0.54078424559E+03  0.00000000000E+00 0.  1.
         21   -1    0    0  502  503 -0.00000000000E+00 -0.00000000000E+00 -0.94107754043E+02  0.94107754043E+02  0.00000000000E+00 0.  1.
          6    1    1    2  501    0 -0.56693130936E+02  0.87425429121E+02  0.36479633306E+03  0.41696844169E+03  0.17300000000E+03 0.  1.
         -6    1    1    2    0  503  0.56693130936E+02 -0.87425429121E+02  0.81880158486E+02  0.21792355794E+03  0.17300000000E+03 0.  1.
<mgrwt>
<rscale>  2 0.20195622E+03</rscale>
<asrwt>0</asrwt>
<pdfrwt beam="1">  1       21 0.83197574E-01 0.20195622E+03</pdfrwt>
<pdfrwt beam="2">  1       21 0.14478116E-01 0.20195622E+03</pdfrwt>
<totfact> 0.52402945E+04</totfact>
</mgrwt>
</event>
<event>
 4    1  0.4023583E+000  0.1830394E+03  0.7546771E-02  0.1164894E+00
         21   -1    0    0  501  502  0.00000000000E+00  0.00000000000E+00  0.11596199915E+03  0.11596199915E+03  0.00000000000E+00 0.  1.
         21   -1    0    0  502  503 -0.00000000000E+00 -0.00000000000E+00 -0.70304029622E+03  0.70304029622E+03  0.00000000000E+00 0.  1.
          6    1    1    2  501    0  0.56110702978E+02 -0.20639917111E+02  0.20750252663E+02  0.18421180785E+03  0.17300000000E+03 0.  1.
         -6    1    1    2    0  503 -0.56110702978E+02  0.20639917111E+02 -0.60782854974E+03  0.63479048752E+03  0.17300000000E+03 0.  1.
<mgrwt>
<rscale>  2 0.18303939E+03</rscale>
<asrwt>0</asrwt>
<pdfrwt beam="1">  1       21 0.17840307E-01 0.18303939E+03</pdfrwt>
<pdfrwt beam="2">  1       21 0.10816005E+00 0.18303939E+03</pdfrwt>
<totfact> 0.19533723E+04</totfact>
</mgrwt>
</event>
<event>
 4    1  0.4023583E+000  0.2284835E+03  0.7546771E-02  0.1127712E+00
         21   -1    0    0  503  502  0.00000000000E+00  0.00000000000E+00  0.19000115262E+03  0.19000115262E+03  0.00000000000E+00 0.  1.
         21   -1    0    0  501  503 -0.00000000000E+00 -0.00000000000E+00 -0.37054105029E+03  0.37054105029E+03  0.00000000000E+00 0. -1.
          6    1    1    2  501    0 -0.95546036230E+02  0.11465898953E+03 -0.23276500860E+03  0.32616602850E+03  0.17300000000E+03 0. -1.
         -6    1    1    2    0  502  0.95546036230E+02 -0.11465898953E+03  0.52225110928E+02  0.23437617441E+03  0.17300000000E+03 0.  1.
<mgrwt>
<rscale>  2 0.22848354E+03</rscale>
<asrwt>0</asrwt>
<pdfrwt beam="1">  1       21 0.29230947E-01 0.22848354E+03</pdfrwt>
<pdfrwt beam="2">  1       21 0.57006315E-01 0.22848354E+03</pdfrwt>
<totfact> 0.31805244E+04</totfact>
</mgrwt>
</event>
<event>
 4    1  0.4023583E+000  0.1844179E+03  0.7546771E-02  0.1163595E+00
         21   -1    0    0  503  502  0.00000000000E+00  0.00000000000E+00  0.85790607499E+02  0.85790607499E+02  0.00000000000E+00 0. -1.
         21   -1    0    0  501  503 -0.00000000000E+00 -0.00000000000E+00 -0.39701399424E+03  0.39701399424E+03  0.00000000000E+00 0. -1.
          6    1    1    2  501    0  0.63550755838E+02  0.65001779465E+01 -0.14635133216E+03  0.23543292740E+03  0.17300000000E+03 0. -1.
         -6    1    1    2    0  502 -0.63550755838E+02 -0.65001779465E+01 -0.16487205458E+03  0.24737167433E+03  0.17300000000E+03 0. -1.
<mgrwt>
<rscale>  2 0.18441787E+03</rscale>
<asrwt>0</asrwt>
<pdfrwt beam="1">  1       21 0.13198555E-01 0.18441787E+03</pdfrwt>
<pdfrwt beam="2">  1       21 0.61079075E-01 0.18441787E+03</pdfrwt>
<totfact> 0.12370530E+05</totfact>
</mgrwt>
</event>
<event>
 4    1  0.4023583E+000  0.1938291E+03  0.7546771E-02  0.1155052E+00
         21   -1    0    0  501  502  0.00000000000E+00  0.00000000000E+00  0.13065927246E+03  0.13065927246E+03  0.00000000000E+00 0. -1.
         21   -1    0    0  502  503 -0.00000000000E+00 -0.00000000000E+00 -0.28764196295E+03  0.28764196295E+03  0.00000000000E+00 0. -1.
          6    1    1    2  501    0 -0.53259332070E+02  0.69312112954E+02 -0.82435315518E+02  0.21063073541E+03  0.17300000000E+03 0.  1.
         -6    1    1    2    0  503  0.53259332070E+02 -0.69312112954E+02 -0.74547374967E+02  0.20767050000E+03  0.17300000000E+03 0.  1.
<mgrwt>
<rscale>  2 0.19382911E+03</rscale>
<asrwt>0</asrwt>
<pdfrwt beam="1">  1       21 0.20101427E-01 0.19382911E+03</pdfrwt>
<pdfrwt beam="2">  1       21 0.44252609E-01 0.19382911E+03</pdfrwt>
<totfact> 0.11209710E+05</totfact>
</mgrwt>
</event>
<event>
 4    1  0.4023583E+000  0.1868982E+03  0.7546771E-02  0.1161289E+00
         21   -1    0    0  501  502  0.00000000000E+00  0.00000000000E+00  0.32960026000E+03  0.32960026000E+03  0.00000000000E+00 0.  1.
         21   -1    0    0  502  503 -0.00000000000E+00 -0.00000000000E+00 -0.26417014733E+03  0.26417014733E+03  0.00000000000E+00 0.  1.
          6    1    1    2  501    0 -0.13144617753E+02  0.69492261120E+02  0.26245511821E+03  0.32220124830E+03  0.17300000000E+03 0.  1.
         -6    1    1    2    0  503  0.13144617753E+02 -0.69492261120E+02 -0.19702500554E+03  0.27156915903E+03  0.17300000000E+03 0.  1.
<mgrwt>
<rscale>  2 0.18689825E+03</rscale>
<asrwt>0</asrwt>
<pdfrwt beam="1">  1       21 0.50707732E-01 0.18689825E+03</pdfrwt>
<pdfrwt beam="2">  1       21 0.40641561E-01 0.18689825E+03</pdfrwt>
<totfact> 0.21654863E+04</totfact>
</mgrwt>
</event>
<event>
 4    1  0.4023583E+000  0.5371710E+03  0.7546771E-02  0.1004508E+00
         21   -1    0    0  503  502  0.00000000000E+00  0.00000000000E+00  0.19934814011E+03  0.19934814011E+03  0.00000000000E+00 0.  1.
         21   -1    0    0  501  503 -0.00000000000E+00 -0.00000000000E+00 -0.20983793552E+04  0.20983793552E+04  0.00000000000E+00 0. -1.
          6    1    1    2  501    0  0.33233823480E+03  0.38493499763E+03 -0.15893728561E+04  0.16776944688E+04  0.17300000000E+03 0. -1.
         -6    1    1    2    0  502 -0.33233823480E+03 -0.38493499763E+03 -0.30965835893E+03  0.62003302651E+03  0.17300000000E+03 0.  1.
<mgrwt>
<rscale>  2 0.53717097E+03</rscale>
<asrwt>0</asrwt>
<pdfrwt beam="1">  1       21 0.30668947E-01 0.53717097E+03</pdfrwt>
<pdfrwt beam="2">  1       21 0.32282757E+00 0.53717097E+03</pdfrwt>
<totfact> 0.19039485E+02</totfact>
</mgrwt>
</event>
<event>
 4    1  0.4023583E+000  0.2032664E+03  0.7546771E-02  0.1147012E+00
         21   -1    0    0  503  502  0.00000000000E+00  0.00000000000E+00  0.11059897972E+03  0.11059897972E+03  0.00000000000E+00 0.  1.
         21   -1    0    0  501  503 -0.00000000000E+00 -0.00000000000E+00 -0.38262739029E+03  0.38262739029E+03  0.00000000000E+00 0. -1.
          6    1    1    2  501    0 -0.92735168435E+02 -0.52805641170E+02 -0.17394214751E+03  0.26753152690E+03  0.17300000000E+03 0.  1.
         -6    1    1    2    0  502  0.92735168435E+02  0.52805641170E+02 -0.98086263066E+02  0.22569484311E+03  0.17300000000E+03 0.  1.
<mgrwt>
<rscale>  2 0.20326644E+03</rscale>
<asrwt>0</asrwt>
<pdfrwt beam="1">  1       21 0.17015228E-01 0.20326644E+03</pdfrwt>
<pdfrwt beam="2">  1       21 0.58865752E-01 0.20326644E+03</pdfrwt>
<totfact> 0.83692924E+04</totfact>
</mgrwt>
</event>
<event>
 4    1  0.4023583E+000  0.2026427E+03  0.7546771E-02  0.1147528E+00
         21   -1    0    0  501  502  0.00000000000E+00  0.00000000000E+00  0.10857068805E+04  0.10857068805E+04  0.00000000000E+00 0. -1.
         21   -1    0    0  502  503 -0.00000000000E+00 -0.00000000000E+00 -0.45698144386E+02  0.45698144386E+02  0.00000000000E+00 0. -1.
          6    1    1    2  501    0  0.27225283786E+02  0.10195026775E+03  0.75485070281E+03  0.78157767157E+03  0.17300000000E+03 0. -1.
         -6    1    1    2    0  503 -0.27225283786E+02 -0.10195026775E+03  0.28515803333E+03  0.34982735333E+03  0.17300000000E+03 0. -1.
<mgrwt>
<rscale>  2 0.20264272E+03</rscale>
<asrwt>0</asrwt>
<pdfrwt beam="1">  1       21 0.16703181E+00 0.20264272E+03</pdfrwt>
<pdfrwt beam="2">  1       21 0.70304846E-02 0.20264272E+03</pdfrwt>
<totfact> 0.33407377E+04</totfact>
</mgrwt>
</event>
<event>
 4    1  0.4023583E+000  0.1875765E+03  0.7546771E-02  0.1160665E+00
         21   -1    0    0  503  502  0.00000000000E+00  0.00000000000E+00  0.30440589527E+03  0.30440589527E+03  0.00000000000E+00 0. -1.
         21   -1    0    0  501  503 -0.00000000000E+00 -0.00000000000E+00 -0.16609431735E+03  0.16609431735E+03  0.00000000000E+00 0.  1.
          6    1    1    2  501    0 -0.67049086546E+02  0.27574862085E+02 -0.60572712011E+02  0.19711419651E+03  0.17300000000E+03 0.  1.
         -6    1    1    2    0  502  0.67049086546E+02 -0.27574862085E+02  0.19888428993E+03  0.27338601612E+03  0.17300000000E+03 0. -1.
<mgrwt>
<rscale>  2 0.18757653E+03</rscale>
<asrwt>0</asrwt>
<pdfrwt beam="1">  1       21 0.46831676E-01 0.18757653E+03</pdfrwt>
<pdfrwt beam="2">  1       21 0.25552972E-01 0.18757653E+03</pdfrwt>
<totfact> 0.63546837E+04</totfact>
</mgrwt>
</event>
<event>
 4    1  0.4023583E+000  0.1737363E+03  0.7546771E-02  0.1174007E+00
         21   -1    0    0  501  502  0.00000000000E+00  0.00000000000E+00  0.26129056253E+03  0.26129056253E+03  0.00000000000E+00 0. -1.
         21   -1    0    0  502  503 -0.00000000000E+00 -0.00000000000E+00 -0.30458342423E+03  0.30458342423E+03  0.00000000000E+00 0. -1.
          6    1    1    2  501    0 -0.42080381792E+01  0.15413869202E+02  0.20126909677E+03  0.26588257608E+03  0.17300000000E+03 0. -1.
         -6    1    1    2    0  503  0.42080381792E+01 -0.15413869202E+02 -0.24456195847E+03  0.29999141068E+03  0.17300000000E+03 0. -1.
<mgrwt>
<rscale>  2 0.17373628E+03</rscale>
<asrwt>0</asrwt>
<pdfrwt beam="1">  1       21 0.40198548E-01 0.17373628E+03</pdfrwt>
<pdfrwt beam="2">  1       21 0.46858988E-01 0.17373628E+03</pdfrwt>
<totfact> 0.26278668E+04</totfact>
</mgrwt>
</event>
<event>
 4    1  0.4023583E+000  0.3459344E+03  0.7546771E-02  0.1064296E+00
         21   -1    0    0  501  502  0.00000000000E+00  0.00000000000E+00  0.23296730469E+03  0.23296730469E+03  0.00000000000E+00 0. -1.
         21   -1    0    0  502  503 -0.00000000000E+00 -0.00000000000E+00 -0.51375355770E+03  0.51375355770E+03  0.00000000000E+00 0.  1.
          6    1    1    2  501    0 -0.15416205585E+03 -0.25685728860E+03 -0.14486569880E+03  0.37504223343E+03  0.17300000000E+03 0. -1.
         -6    1    1    2    0  503  0.15416205585E+03  0.25685728860E+03 -0.13592055421E+03  0.37167862896E+03  0.17300000000E+03 0.  1.
<mgrwt>
<rscale>  2 0.34593440E+03</rscale>
<asrwt>0</asrwt>
<pdfrwt beam="1">  1       21 0.35841124E-01 0.34593440E+03</pdfrwt>
<pdfrwt beam="2">  1       21 0.79039008E-01 0.34593440E+03</pdfrwt>
<totfact> 0.97915679E+03</totfact>
</mgrwt>
</event>
<event>
 4    1  0.4023583E+000  0.2193676E+03  0.7546771E-02  0.1134355E+00
         21   -1    0    0  503  502  0.00000000000E+00  0.00000000000E+00  0.54288958162E+03  0.54288958162E+03  0.00000000000E+00 0. -1.
         21   -1    0    0  501  503 -0.00000000000E+00 -0.00000000000E+00 -0.90405760412E+02  0.90405760412E+02  0.00000000000E+00 0.  1.
          6    1    1    2  501    0  0.11777195274E+03 -0.65748830374E+02  0.18199820852E+03  0.28503594414E+03  0.17300000000E+03 0.  1.
         -6    1    1    2    0  502 -0.11777195274E+03  0.65748830374E+02  0.27048561269E+03  0.34825939789E+03  0.17300000000E+03 0. -1.
<mgrwt>
<rscale>  2 0.21936759E+03</rscale>
<asrwt>0</asrwt>
<pdfrwt beam="1">  1       21 0.83521472E-01 0.21936759E+03</pdfrwt>
<pdfrwt beam="2">  1       21 0.13908579E-01 0.21936759E+03</pdfrwt>
<totfact> 0.55410050E+04</totfact>
</mgrwt>
</event>
<event>
 4    1  0.4023583E+000  0.1968636E+03  0.7546771E-02  0.1152412E+00
         21   -1    0    0  503  502  0.00000000000E+00  0.00000000000E+00  0.47582374222E+03  0.47582374222E+03  0.00000000000E+00 0.  1.
         21   -1    0    0  501  503 -0.00000000000E+00 -0.00000000000E+00 -0.16817536648E+03  0.16817536648E+03  0.00000000000E+00 0.  1.
          6    1    1    2  501    0 -0.92858668460E+02 -0.14267354168E+02 -0.77408946913E+02  0.21153589474E+03  0.17300000000E+03 0.  1.
         -6    1    1    2    0  502  0.92858668460E+02  0.14267354168E+02  0.38505732265E+03  0.43246321396E+03  0.17300000000E+03 0.  1.
<mgrwt>
<rscale>  2 0.19686363E+03</rscale>
<asrwt>0</asrwt>
<pdfrwt beam="1">  1       21 0.73203652E-01 0.19686363E+03</pdfrwt>
<pdfrwt beam="2">  1       21 0.25873134E-01 0.19686363E+03</pdfrwt>
<totfact> 0.23744921E+04</totfact>
</mgrwt>
</event>
<event>
 4    1  0.4023583E+000  0.2237310E+03  0.7546771E-02  0.1131132E+00
         21   -1    0    0  501  502  0.00000000000E+00  0.00000000000E+00  0.16255454014E+03  0.16255454014E+03  0.00000000000E+00 0.  1.
         21   -1    0    0  502  503 -0.00000000000E+00 -0.00000000000E+00 -0.35600582293E+03  0.35600582293E+03  0.00000000000E+00 0. -1.
          6    1    1    2  501    0  0.67930996478E+02  0.12454700606E+03 -0.14460777211E+01  0.22373571048E+03  0.17300000000E+03 0.  1.
         -6    1    1    2    0  503 -0.67930996478E+02 -0.12454700606E+03 -0.19200520507E+03  0.29482465259E+03  0.17300000000E+03 0. -1.
<mgrwt>
<rscale>  2 0.22373104E+03</rscale>
<asrwt>0</asrwt>
<pdfrwt beam="1">  1       21 0.25008391E-01 0.22373104E+03</pdfrwt>
<pdfrwt beam="2">  1       21 0.54770125E-01 0.22373104E+03</pdfrwt>
<totfact> 0.46931242E+04</totfact>
</mgrwt>
</event>
<event>
 4    1  0.4023583E+000  0.2557875E+03  0.7546771E-02  0.1109701E+00
         21   -1    0    0  503  502  0.00000000000E+00  0.00000000000E+00  0.12717633530E+03  0.12717633530E+03  0.00000000000E+00 0. -1.
         21   -1    0    0  501  503 -0.00000000000E+00 -0.00000000000E+00 -0.54529318232E+03  0.54529318232E+03  0.00000000000E+00 0.  1.
          6    1    1    2  501    0  0.53341133024E+02  0.18070139016E+03 -0.28901044911E+03  0.38594599178E+03  0.17300000000E+03 0.  1.
         -6    1    1    2    0  502 -0.53341133024E+02 -0.18070139016E+03 -0.12910639790E+03  0.28652352583E+03  0.17300000000E+03 0. -1.
<mgrwt>
<rscale>  2 0.25578755E+03</rscale>
<asrwt>0</asrwt>
<pdfrwt beam="1">  1       21 0.19565591E-01 0.25578755E+03</pdfrwt>
<pdfrwt beam="2">  1       21 0.83891257E-01 0.25578755E+03</pdfrwt>
<totfact> 0.28754247E+04</totfact>
</mgrwt>
</event>
<event>
 4    1  0.4023583E+000  0.2606134E+03  0.7546771E-02  0.1106775E+00
         21   -1    0    0  503  502  0.00000000000E+00  0.00000000000E+00  0.48533851959E+03  0.48533851959E+03  0.00000000000E+00 0. -1.
         21   -1    0    0  501  503 -0.00000000000E+00 -0.00000000000E+00 -0.37400018344E+03  0.37400018344E+03  0.00000000000E+00 0. -1.
          6    1    1    2  501    0 -0.16337865592E+03  0.10629079790E+03 -0.28423793399E+03  0.38563003261E+03  0.17300000000E+03 0. -1.
         -6    1    1    2    0  502  0.16337865592E+03 -0.10629079790E+03  0.39557627014E+03  0.47370867042E+03  0.17300000000E+03 0. -1.
<mgrwt>
<rscale>  2 0.26061335E+03</rscale>
<asrwt>0</asrwt>
<pdfrwt beam="1">  1       21 0.74667464E-01 0.26061335E+03</pdfrwt>
<pdfrwt beam="2">  1       21 0.57538490E-01 0.26061335E+03</pdfrwt>
<totfact> 0.43388938E+03</totfact>
</mgrwt>
</event>
<event>
 4    1  0.4023583E+000  0.1926390E+03  0.7546771E-02  0.1156102E+00
         21   -1    0    0  503  502  0.00000000000E+00  0.00000000000E+00  0.26937536154E+03  0.26937536154E+03  0.00000000000E+00 0. -1.
         21   -1    0    0  501  503 -0.00000000000E+00 -0.00000000000E+00 -0.25469911085E+03  0.25469911085E+03  0.00000000000E+00 0.  1.
          6    1    1    2  501    0  0.17414802037E+02  0.82930655838E+02 -0.17021360981E+03  0.25706505397E+03  0.17300000000E+03 0.  1.
         -6    1    1    2    0  502 -0.17414802037E+02 -0.82930655838E+02  0.18488986050E+03  0.26700941842E+03  0.17300000000E+03 0. -1.
<mgrwt>
<rscale>  2 0.19263896E+03</rscale>
<asrwt>0</asrwt>
<pdfrwt beam="1">  1       21 0.41442363E-01 0.19263896E+03</pdfrwt>
<pdfrwt beam="2">  1       21 0.39184479E-01 0.19263896E+03</pdfrwt>
<totfact> 0.35206170E+04</totfact>
</mgrwt>
</event>
<event>
 4    1  0.4023583E+000  0.1878446E+03  0.7546771E-02  0.1160420E+00
         21   -1    0    0  503  502  0.00000000000E+00  0.00000000000E+00  0.49569154654E+03  0.49569154654E+03  0.00000000000E+00 0.  1.
         21   -1    0    0  501  503 -0.00000000000E+00 -0.00000000000E+00 -0.97225642791E+02  0.97225642791E+02  0.00000000000E+00 0. -1.
          6    1    1    2  501    0 -0.66246114499E+02  0.31113710992E+02  0.45805626335E+02  0.19334881976E+03  0.17300000000E+03 0. -1.
         -6    1    1    2    0  502  0.66246114499E+02 -0.31113710992E+02  0.35266027741E+03  0.39956836957E+03  0.17300000000E+03 0.  1.
<mgrwt>
<rscale>  2 0.18784465E+03</rscale>
<asrwt>0</asrwt>
<pdfrwt beam="1">  1       21 0.76260236E-01 0.18784465E+03</pdfrwt>
<pdfrwt beam="2">  1       21 0.14957792E-01 0.18784465E+03</pdfrwt>
<totfact> 0.60530168E+04</totfact>
</mgrwt>
</event>
<event>
 4    1  0.4023583E+000  0.1870585E+03  0.7546771E-02  0.1161141E+00
         21   -1    0    0  501  502  0.00000000000E+00  0.00000000000E+00  0.20780637949E+03  0.20780637949E+03  0.00000000000E+00 0. -1.
         21   -1    0    0  502  503 -0.00000000000E+00 -0.00000000000E+00 -0.54105354049E+03  0.54105354049E+03  0.00000000000E+00 0. -1.
          6    1    1    2  501    0 -0.69926571753E+02  0.13121420670E+02  0.14412808337E+03  0.23614360363E+03  0.17300000000E+03 0. -1.
         -6    1    1    2    0  503  0.69926571753E+02 -0.13121420670E+02 -0.47737524438E+03  0.51271631636E+03  0.17300000000E+03 0. -1.
<mgrwt>
<rscale>  2 0.18705854E+03</rscale>
<asrwt>0</asrwt>
<pdfrwt beam="1">  1       21 0.31970212E-01 0.18705854E+03</pdfrwt>
<pdfrwt beam="2">  1       21 0.83239007E-01 0.18705854E+03</pdfrwt>
<totfact> 0.11871398E+04</totfact>
</mgrwt>
</event>
<event>
 4    1  0.4023583E+000  0.2117321E+03  0.7546771E-02  0.1140202E+00
         21   -1    0    0  503  502  0.00000000000E+00  0.00000000000E+00  0.17691430083E+03  0.17691430083E+03  0.00000000000E+00 0.  1.
         21   -1    0    0  501  503 -0.00000000000E+00 -0.00000000000E+00 -0.41960087551E+03  0.41960087551E+03  0.00000000000E+00 0.  1.
          6    1    1    2  501    0 -0.19427027798E+02 -0.12051581888E+03 -0.30905315161E+03  0.37462557645E+03  0.17300000000E+03 0.  1.
         -6    1    1    2    0  502  0.19427027798E+02  0.12051581888E+03  0.66366576931E+02  0.22188959990E+03  0.17300000000E+03 0.  1.
<mgrwt>
<rscale>  2 0.21173208E+03</rscale>
<asrwt>0</asrwt>
<pdfrwt beam="1">  1       21 0.27217585E-01 0.21173208E+03</pdfrwt>
<pdfrwt beam="2">  1       21 0.64553980E-01 0.21173208E+03</pdfrwt>
<totfact> 0.28171359E+04</totfact>
</mgrwt>
</event>
<event>
 4    1  0.4023583E+000  0.2088730E+03  0.7546771E-02  0.1142462E+00
         21   -1    0    0  501  502  0.00000000000E+00  0.00000000000E+00  0.25447809706E+03  0.25447809706E+03  0.00000000000E+00 0.  1.
         21   -1    0    0  502  503 -0.00000000000E+00 -0.00000000000E+00 -0.36828735653E+03  0.36828735653E+03  0.00000000000E+00 0. -1.
          6    1    1    2  501    0 -0.42091582022E+02 -0.10921186809E+03  0.17074398010E+03  0.26978035538E+03  0.17300000000E+03 0.  1.
         -6    1    1    2    0  503  0.42091582022E+02  0.10921186809E+03 -0.28455323957E+03  0.35298509821E+03  0.17300000000E+03 0. -1.
<mgrwt>
<rscale>  2 0.20887301E+03</rscale>
<asrwt>0</asrwt>
<pdfrwt beam="1">  1       21 0.39150477E-01 0.20887301E+03</pdfrwt>
<pdfrwt beam="2">  1       21 0.56659593E-01 0.20887301E+03</pdfrwt>
<totfact> 0.18240639E+04</totfact>
</mgrwt>
</event>
<event>
 4    1  0.4023583E+000  0.1835983E+03  0.7546771E-02  0.1164365E+00
         21   -1    0    0  501  502  0.00000000000E+00  0.00000000000E+00  0.92704022425E+02  0.92704022425E+02  0.00000000000E+00 0. -1.
         21   -1    0    0  502  503 -0.00000000000E+00 -0.00000000000E+00 -0.51558207019E+03  0.51558207019E+03  0.00000000000E+00 0. -1.
          6    1    1    2  501    0  0.46637455618E+02 -0.40053395824E+02 -0.46316038971E+02  0.18935021059E+03  0.17300000000E+03 0. -1.
         -6    1    1    2    0  503 -0.46637455618E+02  0.40053395824E+02 -0.37656200880E+03  0.41893588203E+03  0.17300000000E+03 0. -1.
<mgrwt>
<rscale>  2 0.18359828E+03</rscale>
<asrwt>0</asrwt>
<pdfrwt beam="1">  1       21 0.14262157E-01 0.18359828E+03</pdfrwt>
<pdfrwt beam="2">  1       21 0.79320318E-01 0.18359828E+03</pdfrwt>
<totfact> 0.60531998E+04</totfact>
</mgrwt>
</event>
<event>
 4    1  0.4023583E+000  0.2244998E+03  0.7546771E-02  0.1130572E+00
         21   -1    0    0  501  502  0.00000000000E+00  0.00000000000E+00  0.19621016685E+03  0.19621016685E+03  0.00000000000E+00 0.  1.
         21   -1    0    0  502  503 -0.00000000000E+00 -0.00000000000E+00 -0.27693263814E+03  0.27693263814E+03  0.00000000000E+00 0.  1.
          6    1    1    2  501    0 -0.13597228256E+03 -0.44527558314E+02 -0.10403902446E+03  0.24743541316E+03  0.17300000000E+03 0.  1.
         -6    1    1    2    0  503  0.13597228256E+03  0.44527558314E+02  0.23316553171E+02  0.22570739183E+03  0.17300000000E+03 0.  1.
<mgrwt>
<rscale>  2 0.22449981E+03</rscale>
<asrwt>0</asrwt>
<pdfrwt beam="1">  1       21 0.30186180E-01 0.22449981E+03</pdfrwt>
<pdfrwt beam="2">  1       21 0.42605021E-01 0.22449981E+03</pdfrwt>
<totfact> 0.54989220E+04</totfact>
</mgrwt>
</event>
<event>
 4    1  0.4023583E+000  0.1786545E+03  0.7546771E-02  0.1169112E+00
         21   -1    0    0  501  502  0.00000000000E+00  0.00000000000E+00  0.50839225012E+02  0.50839225012E+02  0.00000000000E+00 0. -1.
         21   -1    0    0  502  503 -0.00000000000E+00 -0.00000000000E+00 -0.93223561056E+03  0.93223561056E+03  0.00000000000E+00 0. -1.
          6    1    1    2  501    0  0.31677735757E+02  0.31383986185E+02 -0.15980999285E+03  0.23970120431E+03  0.17300000000E+03 0. -1.
         -6    1    1    2    0  503 -0.31677735757E+02 -0.31383986185E+02 -0.72158639270E+03  0.74337363126E+03  0.17300000000E+03 0. -1.
<mgrwt>
<rscale>  2 0.17865451E+03</rscale>
<asrwt>0</asrwt>
<pdfrwt beam="1">  1       21 0.78214191E-02 0.17865451E+03</pdfrwt>
<pdfrwt beam="2">  1       21 0.14342087E+00 0.17865451E+03</pdfrwt>
<totfact> 0.42289112E+04</totfact>
</mgrwt>
</event>
<event>
 4    1  0.4023583E+000  0.2004851E+03  0.7546771E-02  0.1149330E+00
         21   -1    0    0  501  502  0.00000000000E+00  0.00000000000E+00  0.17310072763E+03  0.17310072763E+03  0.00000000000E+00 0. -1.
         21   -1    0    0  502  503 -0.00000000000E+00 -0.00000000000E+00 -0.31683084728E+03  0.31683084728E+03  0.00000000000E+00 0.  1.
          6    1    1    2  501    0  0.48659880886E+01  0.10120078253E+03  0.54740212232E+02  0.20782388472E+03  0.17300000000E+03 0. -1.
         -6    1    1    2    0  503 -0.48659880886E+01 -0.10120078253E+03 -0.19847033189E+03  0.28210769019E+03  0.17300000000E+03 0.  1.
<mgrwt>
<rscale>  2 0.20048510E+03</rscale>
<asrwt>0</asrwt>
<pdfrwt beam="1">  1       21 0.26630881E-01 0.20048510E+03</pdfrwt>
<pdfrwt beam="2">  1       21 0.48743207E-01 0.20048510E+03</pdfrwt>
<totfact> 0.53715403E+04</totfact>
</mgrwt>
</event>
<event>
 4    1  0.4023583E+000  0.2117452E+03  0.7546771E-02  0.1140191E+00
         21   -1    0    0  503  502  0.00000000000E+00  0.00000000000E+00  0.49693324830E+03  0.49693324830E+03  0.00000000000E+00 0.  1.
         21   -1    0    0  501  503 -0.00000000000E+00 -0.00000000000E+00 -0.98748132368E+02  0.98748132368E+02  0.00000000000E+00 0. -1.
          6    1    1    2  501    0 -0.64000987107E+02  0.10397539456E+03  0.11159244701E+03  0.23935096251E+03  0.17300000000E+03 0. -1.
         -6    1    1    2    0  502  0.64000987107E+02 -0.10397539456E+03  0.28659266892E+03  0.35633041816E+03  0.17300000000E+03 0.  1.
<mgrwt>
<rscale>  2 0.21174515E+03</rscale>
<asrwt>0</asrwt>
<pdfrwt beam="1">  1       21 0.76451267E-01 0.21174515E+03</pdfrwt>
<pdfrwt beam="2">  1       21 0.15192021E-01 0.21174515E+03</pdfrwt>
<totfact> 0.57857469E+04</totfact>
</mgrwt>
</event>
<event>
 4    1  0.4023583E+000  0.1857062E+03  0.7546771E-02  0.1162392E+00
         21   -1    0    0  503  502  0.00000000000E+00  0.00000000000E+00  0.64996204085E+03  0.64996204085E+03  0.00000000000E+00 0.  1.
         21   -1    0    0  501  503 -0.00000000000E+00 -0.00000000000E+00 -0.18438657920E+03  0.18438657920E+03  0.00000000000E+00 0.  1.
          6    1    1    2  501    0 -0.44410191033E+02  0.50848250793E+02 -0.11928279341E+03  0.22071518860E+03  0.17300000000E+03 0.  1.
         -6    1    1    2    0  502  0.44410191033E+02 -0.50848250793E+02  0.58485825506E+03  0.61363343145E+03  0.17300000000E+03 0.  1.
<mgrwt>
<rscale>  2 0.18570625E+03</rscale>
<asrwt>0</asrwt>
<pdfrwt beam="1">  1       21 0.99994159E-01 0.18570625E+03</pdfrwt>
<pdfrwt beam="2">  1       21 0.28367166E-01 0.18570625E+03</pdfrwt>
<totfact> 0.98027409E+03</totfact>
</mgrwt>
</event>
<event>
 4    1  0.4023583E+000  0.2614372E+03  0.7546771E-02  0.1106283E+00
         21   -1    0    0  501  502  0.00000000000E+00  0.00000000000E+00  0.31191721560E+03  0.31191721560E+03  0.00000000000E+00 0.  1.
         21   -1    0    0  502  503 -0.00000000000E+00 -0.00000000000E+00 -0.27537292738E+03  0.27537292738E+03  0.00000000000E+00 0.  1.
          6    1    1    2  501    0  0.18008455384E+03 -0.77394822010E+02  0.15098366013E+03  0.30190308152E+03  0.17300000000E+03 0.  1.
         -6    1    1    2    0  503 -0.18008455384E+03  0.77394822010E+02 -0.11443937191E+03  0.28538706146E+03  0.17300000000E+03 0.  1.
<mgrwt>
<rscale>  2 0.26143719E+03</rscale>
<asrwt>0</asrwt>
<pdfrwt beam="1">  1       21 0.47987264E-01 0.26143719E+03</pdfrwt>
<pdfrwt beam="2">  1       21 0.42365066E-01 0.26143719E+03</pdfrwt>
<totfact> 0.21461285E+04</totfact>
</mgrwt>
</event>
<event>
 4    1  0.4023583E+000  0.1939999E+03  0.7546771E-02  0.1154902E+00
         21   -1    0    0  503  502  0.00000000000E+00  0.00000000000E+00  0.95115698496E+02  0.95115698496E+02  0.00000000000E+00 0.  1.
         21   -1    0    0  501  503 -0.00000000000E+00 -0.00000000000E+00 -0.45072600040E+03  0.45072600040E+03  0.00000000000E+00 0. -1.
          6    1    1    2  501    0 -0.87298145199E+02 -0.92737934360E+01 -0.27317669845E+03  0.33505444032E+03  0.17300000000E+03 0. -1.
         -6    1    1    2    0  502  0.87298145199E+02  0.92737934360E+01 -0.82433603448E+02  0.21078725857E+03  0.17300000000E+03 0.  1.
<mgrwt>
<rscale>  2 0.19399992E+03</rscale>
<asrwt>0</asrwt>
<pdfrwt beam="1">  1       21 0.14633185E-01 0.19399992E+03</pdfrwt>
<pdfrwt beam="2">  1       21 0.69342460E-01 0.19399992E+03</pdfrwt>
<totfact> 0.77590884E+04</totfact>
</mgrwt>
</event>
<event>
 4    1  0.4023583E+000  0.1808961E+03  0.7546771E-02  0.1166939E+00
         21   -1    0    0  501  502  0.00000000000E+00  0.00000000000E+00  0.93029634629E+03  0.93029634629E+03  0.00000000000E+00 0.  1.
         21   -1    0    0  502  503 -0.00000000000E+00 -0.00000000000E+00 -0.40376061371E+02  0.40376061371E+02  0.00000000000E+00 0.  1.
          6    1    1    2  501    0 -0.50363064098E+02  0.16061345480E+02  0.61914738015E+03  0.64503246693E+03  0.17300000000E+03 0.  1.
         -6    1    1    2    0  503  0.50363064098E+02 -0.16061345480E+02  0.27077290477E+03  0.32563994074E+03  0.17300000000E+03 0.  1.
<mgrwt>
<rscale>  2 0.18089612E+03</rscale>
<asrwt>0</asrwt>
<pdfrwt beam="1">  1       21 0.14312250E+00 0.18089612E+03</pdfrwt>
<pdfrwt beam="2">  1       21 0.62117024E-02 0.18089612E+03</pdfrwt>
<totfact> 0.63177579E+04</totfact>
</mgrwt>
</event>
<event>
 4    1  0.4023583E+000  0.1831869E+03  0.7546771E-02  0.1164754E+00
         21   -1    0    0  501  502  0.00000000000E+00  0.00000000000E+00  0.70364926423E+03  0.70364926423E+03  0.00000000000E+00 0.  1.
         21   -1    0    0  502  503 -0.00000000000E+00 -0.00000000000E+00 -0.19067792951E+03  0.19067792951E+03  0.00000000000E+00 0.  1.
          6    1    1    2  501    0 -0.11419799836E+02  0.59143989901E+02  0.64371217047E+03  0.66927033536E+03  0.17300000000E+03 0.  1.
         -6    1    1    2    0  503  0.11419799836E+02 -0.59143989901E+02 -0.13074083576E+03  0.22505685838E+03  0.17300000000E+03 0.  1.
<mgrwt>
<rscale>  2 0.18318685E+03</rscale>
<asrwt>0</asrwt>
<pdfrwt beam="1">  1       21 0.10825373E+00 0.18318685E+03</pdfrwt>
<pdfrwt beam="2">  1       21 0.29335066E-01 0.18318685E+03</pdfrwt>
<totfact> 0.76105621E+03</totfact>
</mgrwt>
</event>
<event>
 4    1  0.4023583E+000  0.2207049E+03  0.7546771E-02  0.1133359E+00
         21   -1    0    0  503  502  0.00000000000E+00  0.00000000000E+00  0.92804329849E+03  0.92804329849E+03  0.00000000000E+00 0. -1.
         21   -1    0    0  501  503 -0.00000000000E+00 -0.00000000000E+00 -0.76636993181E+02  0.76636993181E+02  0.00000000000E+00 0.  1.
          6    1    1    2  501    0 -0.13090396292E+03 -0.40568340811E+02  0.14371360765E+03  0.26337091489E+03  0.17300000000E+03 0.  1.
         -6    1    1    2    0  502  0.13090396292E+03  0.40568340811E+02  0.70769269766E+03  0.74130937678E+03  0.17300000000E+03 0. -1.
<mgrwt>
<rscale>  2 0.22070487E+03</rscale>
<asrwt>0</asrwt>
<pdfrwt beam="1">  1       21 0.14277588E+00 0.22070487E+03</pdfrwt>
<pdfrwt beam="2">  1       21 0.11790307E-01 0.22070487E+03</pdfrwt>
<totfact> 0.20228318E+04</totfact>
</mgrwt>
</event>
<event>
 4    1  0.4023583E+000  0.2448239E+03  0.7546771E-02  0.1116620E+00
         21   -1    0    0  503  502  0.00000000000E+00  0.00000000000E+00  0.10732053239E+04  0.10732053239E+04  0.00000000000E+00 0. -1.
         21   -1    0    0  501  503 -0.00000000000E+00 -0.00000000000E+00 -0.55904785787E+02  0.55904785787E+02  0.00000000000E+00 0. -1.
          6    1    1    2  501    0 -0.10258166908E+03 -0.13959495680E+03  0.49101216743E+03  0.54866355753E+03  0.17300000000E+03 0. -1.
         -6    1    1    2    0  502  0.10258166908E+03  0.13959495680E+03  0.52628837065E+03  0.58044655213E+03  0.17300000000E+03 0. -1.
<mgrwt>
<rscale>  2 0.24482392E+03</rscale>
<asrwt>0</asrwt>
<pdfrwt beam="1">  1       21 0.16510850E+00 0.24482392E+03</pdfrwt>
<pdfrwt beam="2">  1       21 0.86007370E-02 0.24482392E+03</pdfrwt>
<totfact> 0.23665840E+04</totfact>
</mgrwt>
</event>
<event>
 4    1  0.4023583E+000  0.2609968E+03  0.7546771E-02  0.1106546E+00
         21   -1    0    0  503  502  0.00000000000E+00  0.00000000000E+00  0.57969713696E+02  0.57969713696E+02  0.00000000000E+00 0.  1.
         21   -1    0    0  501  503 -0.00000000000E+00 -0.00000000000E+00 -0.13400026454E+04  0.13400026454E+04  0.00000000000E+00 0. -1.
          6    1    1    2  501    0 -0.11579642254E+03 -0.15742142355E+03 -0.88623307949E+03  0.92386600070E+03  0.17300000000E+03 0. -1.
         -6    1    1    2    0  502  0.11579642254E+03  0.15742142355E+03 -0.39579985224E+03  0.47410635843E+03  0.17300000000E+03 0.  1.
<mgrwt>
<rscale>  2 0.26099677E+03</rscale>
<asrwt>0</asrwt>
<pdfrwt beam="1">  1       21 0.89184177E-02 0.26099677E+03</pdfrwt>
<pdfrwt beam="2">  1       21 0.20615425E+00 0.26099677E+03</pdfrwt>
<totfact> 0.11580990E+04</totfact>
</mgrwt>
</event>
<event>
 4    1  0.4023583E+000  0.2396819E+03  0.7546771E-02  0.1120005E+00
         21   -1    0    0  501  502  0.00000000000E+00  0.00000000000E+00  0.87480399629E+02  0.87480399629E+02  0.00000000000E+00 0.  1.
         21   -1    0    0  502  503 -0.00000000000E+00 -0.00000000000E+00 -0.66687597203E+03  0.66687597203E+03  0.00000000000E+00 0. -1.
          6    1    1    2  501    0 -0.16533621149E+03  0.13504279731E+02 -0.33631470925E+03  0.41298306510E+03  0.17300000000E+03 0. -1.
         -6    1    1    2    0  503  0.16533621149E+03 -0.13504279731E+02 -0.24308086315E+03  0.34137330656E+03  0.17300000000E+03 0.  1.
<mgrwt>
<rscale>  2 0.23968193E+03</rscale>
<asrwt>0</asrwt>
<pdfrwt beam="1">  1       21 0.13458523E-01 0.23968193E+03</pdfrwt>
<pdfrwt beam="2">  1       21 0.10259630E+00 0.23968193E+03</pdfrwt>
<totfact> 0.35994916E+04</totfact>
</mgrwt>
</event>
<event>
 4    1  0.4023583E+000  0.1756175E+03  0.7546771E-02  0.1172113E+00
         21   -1    0    0  501  502  0.00000000000E+00  0.00000000000E+00  0.25413484690E+03  0.25413484690E+03  0.00000000000E+00 0.  1.
         21   -1    0    0  502  503 -0.00000000000E+00 -0.00000000000E+00 -0.13569852140E+03  0.13569852140E+03  0.00000000000E+00 0.  1.
          6    1    1    2  501    0  0.53099987758E+01  0.29737319803E+02  0.12258055453E+03  0.21416698304E+03  0.17300000000E+03 0. -1.
         -6    1    1    2    0  503 -0.53099987758E+01 -0.29737319803E+02 -0.41442290195E+01  0.17566638526E+03  0.17300000000E+03 0. -1.
<mgrwt>
<rscale>  2 0.17561749E+03</rscale>
<asrwt>0</asrwt>
<pdfrwt beam="1">  1       21 0.39097669E-01 0.17561749E+03</pdfrwt>
<pdfrwt beam="2">  1       21 0.20876696E-01 0.17561749E+03</pdfrwt>
<totfact> 0.13513360E+05</totfact>
</mgrwt>
</event>
<event>
 4    1  0.4023583E+000  0.2225273E+03  0.7546771E-02  0.1132013E+00
         21   -1    0    0  501  502  0.00000000000E+00  0.00000000000E+00  0.18374675015E+03  0.18374675015E+03  0.00000000000E+00 0. -1.
         21   -1    0    0  502  503 -0.00000000000E+00 -0.00000000000E+00 -0.83182651946E+03  0.83182651946E+03  0.00000000000E+00 0.  1.
          6    1    1    2  501    0  0.13610777525E+03  0.32619914968E+02  0.93465454532E+02  0.24135901998E+03  0.17300000000E+03 0. -1.
         -6    1    1    2    0  503 -0.13610777525E+03 -0.32619914968E+02 -0.74154522384E+03  0.77421424963E+03  0.17300000000E+03 0.  1.
<mgrwt>
<rscale>  2 0.22252727E+03</rscale>
<asrwt>0</asrwt>
<pdfrwt beam="1">  1       21 0.28268731E-01 0.22252727E+03</pdfrwt>
<pdfrwt beam="2">  1       21 0.12797331E+00 0.22252727E+03</pdfrwt>
<totfact> 0.52554088E+03</totfact>
</mgrwt>
</event>
<event>
 4    1  0.4023583E+000  0.1775893E+03  0.7546771E-02  0.1170157E+00
         21   -1    0    0  501  502  0.00000000000E+00  0.00000000000E+00  0.39828729849E+03  0.39828729849E+03  0.00000000000E+00 0.  1.
         21   -1    0    0  502  503 -0.00000000000E+00 -0.00000000000E+00 -0.81392517877E+02  0.81392517877E+02  0.00000000000E+00 0.  1.
          6    1    1    2  501    0 -0.30914277812E+02 -0.25559395075E+02  0.19795504016E+03  0.26594016841E+03  0.17300000000E+03 0.  1.
         -6    1    1    2    0  503  0.30914277812E+02  0.25559395075E+02  0.11893974045E+03  0.21373964796E+03  0.17300000000E+03 0.  1.
<mgrwt>
<rscale>  2 0.17758934E+03</rscale>
<asrwt>0</asrwt>
<pdfrwt beam="1">  1       21 0.61274968E-01 0.17758934E+03</pdfrwt>
<pdfrwt beam="2">  1       21 0.12521926E-01 0.17758934E+03</pdfrwt>
<totfact> 0.13536073E+05</totfact>
</mgrwt>
</event>
<event>
 4    1  0.4023583E+000  0.1953252E+03  0.7546771E-02  0.1153744E+00
         21   -1    0    0  503  502  0.00000000000E+00  0.00000000000E+00  0.60904393223E+03  0.60904393223E+03  0.00000000000E+00 0. -1.
         21   -1    0    0  501  503 -0.00000000000E+00 -0.00000000000E+00 -0.10071193914E+03  0.10071193914E+03  0.00000000000E+00 0.  1.
          6    1    1    2  501    0  0.51843711019E+01  0.90532158227E+02  0.35979657212E+02  0.19861139220E+03  0.17300000000E+03 0.  1.
         -6    1    1    2    0  502 -0.51843711019E+01 -0.90532158227E+02  0.47235233588E+03  0.51114447917E+03  0.17300000000E+03 0. -1.
<mgrwt>
<rscale>  2 0.19532524E+03</rscale>
<asrwt>0</asrwt>
<pdfrwt beam="1">  1       21 0.93699064E-01 0.19532524E+03</pdfrwt>
<pdfrwt beam="2">  1       21 0.15494145E-01 0.19532524E+03</pdfrwt>
<totfact> 0.35325116E+04</totfact>
</mgrwt>
</event>
<event>
 4    1  0.4023583E+000  0.1874895E+03  0.7546771E-02  0.1160745E+00
         21   -1    0    0  503  502  0.00000000000E+00  0.00000000000E+00  0.16907394779E+03  0.16907394779E+03  0.00000000000E+00 0.  1.
         21   -1    0    0  501  503 -0.00000000000E+00 -0.00000000000E+00 -0.21567767902E+03  0.21567767902E+03  0.00000000000E+00 0.  1.
          6    1    1    2  501    0 -0.27171251585E+02 -0.66970541637E+02 -0.59808019172E+02  0.19679768677E+03  0.17300000000E+03 0.  1.
         -6    1    1    2    0  502  0.27171251585E+02  0.66970541637E+02  0.13204287940E+02  0.18795394005E+03  0.17300000000E+03 0.  1.
<mgrwt>
<rscale>  2 0.18748955E+03</rscale>
<asrwt>0</asrwt>
<pdfrwt beam="1">  1       21 0.26011376E-01 0.18748955E+03</pdfrwt>
<pdfrwt beam="2">  1       21 0.33181182E-01 0.18748955E+03</pdfrwt>
<totfact> 0.12301099E+05</totfact>
</mgrwt>
</event>
<event>
 4    1  0.4023583E+000  0.2431809E+03  0.7546771E-02  0.1117692E+00
         21   -1    0    0  501  502  0.00000000000E+00  0.00000000000E+00  0.10745369968E+04  0.10745369968E+04  0.00000000000E+00 0.  1.
         21   -1    0    0  502  503 -0.00000000000E+00 -0.00000000000E+00 -0.96104070878E+02  0.96104070878E+02  0.00000000000E+00 0.  1.
          6    1    1    2  501    0 -0.40510529565E+02 -0.16603268193E+03  0.87184841859E+03  0.90512795751E+03  0.17300000000E+03 0.  1.
         -6    1    1    2    0  503  0.40510529565E+02  0.16603268193E+03  0.10658450736E+03  0.26551311019E+03  0.17300000000E+03 0.  1.
<mgrwt>
<rscale>  2 0.24318091E+03</rscale>
<asrwt>0</asrwt>
<pdfrwt beam="1">  1       21 0.16531338E+00 0.24318091E+03</pdfrwt>
<pdfrwt beam="2">  1       21 0.14785242E-01 0.24318091E+03</pdfrwt>
<totfact> 0.89425307E+03</totfact>
</mgrwt>
</event>
<event>
 4    1  0.4023583E+000  0.2384421E+03  0.7546771E-02  0.1120835E+00
         21   -1    0    0  503  502  0.00000000000E+00  0.00000000000E+00  0.14997773162E+03  0.14997773162E+03  0.00000000000E+00 0.  1.
         21   -1    0    0  501  503 -0.00000000000E+00 -0.00000000000E+00 -0.38167721287E+03  0.38167721287E+03  0.00000000000E+00 0.  1.
          6    1    1    2  501    0 -0.12655100881E+03  0.10445327571E+03 -0.93952006053E+02  0.25628426421E+03  0.17300000000E+03 0.  1.
         -6    1    1    2    0  502  0.12655100881E+03 -0.10445327571E+03 -0.13774747519E+03  0.27537068029E+03  0.17300000000E+03 0.  1.
<mgrwt>
<rscale>  2 0.23844212E+03</rscale>
<asrwt>0</asrwt>
<pdfrwt beam="1">  1       21 0.23073497E-01 0.23844212E+03</pdfrwt>
<pdfrwt beam="2">  1       21 0.58719571E-01 0.23844212E+03</pdfrwt>
<totfact> 0.46866633E+04</totfact>
</mgrwt>
</event>
<event>
 4    1  0.4023583E+000  0.2447937E+03  0.7546771E-02  0.1116640E+00
         21   -1    0    0  503  502  0.00000000000E+00  0.00000000000E+00  0.54211153352E+02  0.54211153352E+02  0.00000000000E+00 0. -1.
         21   -1    0    0  501  503 -0.00000000000E+00 -0.00000000000E+00 -0.11140811117E+04  0.11140811117E+04  0.00000000000E+00 0.  1.
          6    1    1    2  501    0  0.94076887093E+02  0.14541141034E+03 -0.47831189929E+03  0.53731388587E+03  0.17300000000E+03 0. -1.
         -6    1    1    2    0  502 -0.94076887093E+02 -0.14541141034E+03 -0.58155805905E+03  0.63097837918E+03  0.17300000000E+03 0.  1.
<mgrwt>
<rscale>  2 0.24479367E+03</rscale>
<asrwt>0</asrwt>
<pdfrwt beam="1">  1       21 0.83401778E-02 0.24479367E+03</pdfrwt>
<pdfrwt beam="2">  1       21 0.17139709E+00 0.24479367E+03</pdfrwt>
<totfact> 0.22523364E+04</totfact>
</mgrwt>
</event>
<event>
 4    1  0.4023583E+000  0.2128802E+03  0.7546771E-02  0.1139305E+00
         21   -1    0    0  503  502  0.00000000000E+00  0.00000000000E+00  0.44510076841E+03  0.44510076841E+03  0.00000000000E+00 0. -1.
         21   -1    0    0  501  503 -0.00000000000E+00 -0.00000000000E+00 -0.18024640964E+03  0.18024640964E+03  0.00000000000E+00 0. -1.
          6    1    1    2  501    0  0.87342504292E+02  0.88092277662E+02 -0.73826984718E+02  0.22531841050E+03  0.17300000000E+03 0. -1.
         -6    1    1    2    0  502 -0.87342504292E+02 -0.88092277662E+02  0.33868134349E+03  0.40002876755E+03  0.17300000000E+03 0. -1.
<mgrwt>
<rscale>  2 0.21288016E+03</rscale>
<asrwt>0</asrwt>
<pdfrwt beam="1">  1       21 0.68477041E-01 0.21288016E+03</pdfrwt>
<pdfrwt beam="2">  1       21 0.27730217E-01 0.21288016E+03</pdfrwt>
<totfact> 0.23863631E+04</totfact>
</mgrwt>
</event>
<event>
 4    1  0.4023583E+000  0.2091537E+03  0.7546771E-02  0.1142238E+00
         21   -1    0    0  501  502  0.00000000000E+00  0.00000000000E+00  0.36780294187E+02  0.36780294187E+02  0.00000000000E+00 0.  1.
         21   -1    0    0  502  503 -0.00000000000E+00 -0.00000000000E+00 -0.11898565684E+04  0.11898565684E+04  0.00000000000E+00 0.  1.
          6    1    1    2  501    0 -0.91089236461E+02 -0.74290141017E+02 -0.56409945707E+03  0.60162569054E+03  0.17300000000E+03 0.  1.
         -6    1    1    2    0  503  0.91089236461E+02  0.74290141017E+02 -0.58897681716E+03  0.62501117206E+03  0.17300000000E+03 0.  1.
<mgrwt>
<rscale>  2 0.20915371E+03</rscale>
<asrwt>0</asrwt>
<pdfrwt beam="1">  1       21 0.56585065E-02 0.20915371E+03</pdfrwt>
<pdfrwt beam="2">  1       21 0.18305487E+00 0.20915371E+03</pdfrwt>
<totfact> 0.37411204E+04</totfact>
</mgrwt>
</event>
<event>
 4    1  0.4023583E+000  0.2193885E+03  0.7546771E-02  0.1134340E+00
         21   -1    0    0  501  502  0.00000000000E+00  0.00000000000E+00  0.32528596202E+03  0.32528596202E+03  0.00000000000E+00 0. -1.
         21   -1    0    0  502  503 -0.00000000000E+00 -0.00000000000E+00 -0.25424272675E+03  0.25424272675E+03  0.00000000000E+00 0.  1.
          6    1    1    2  501    0 -0.12721150989E+03  0.44939238169E+02  0.22286549514E+03  0.31273044671E+03  0.17300000000E+03 0. -1.
         -6    1    1    2    0  503  0.12721150989E+03 -0.44939238169E+02 -0.15182225987E+03  0.26679824206E+03  0.17300000000E+03 0.  1.
<mgrwt>
<rscale>  2 0.21938848E+03</rscale>
<asrwt>0</asrwt>
<pdfrwt beam="1">  1       21 0.50043994E-01 0.21938848E+03</pdfrwt>
<pdfrwt beam="2">  1       21 0.39114266E-01 0.21938848E+03</pdfrwt>
<totfact> 0.23610368E+04</totfact>
</mgrwt>
</event>
<event>
 4    1  0.4023583E+000  0.2568478E+03  0.7546771E-02  0.1109052E+00
         21   -1    0    0  501  502  0.00000000000E+00  0.00000000000E+00  0.63524479828E+03  0.63524479828E+03  0.00000000000E+00 0.  1.
         21   -1    0    0  502  503 -0.00000000000E+00 -0.00000000000E+00 -0.16497542341E+03  0.16497542341E+03  0.00000000000E+00 0.  1.
          6    1    1    2  501    0 -0.32403626274E+02  0.18706097618E+03  0.47867861696E+03  0.54323477627E+03  0.17300000000E+03 0.  1.
         -6    1    1    2    0  503  0.32403626274E+02 -0.18706097618E+03 -0.84092420995E+01  0.25698544542E+03  0.17300000000E+03 0.  1.
<mgrwt>
<rscale>  2 0.25684782E+03</rscale>
<asrwt>0</asrwt>
<pdfrwt beam="1">  1       21 0.97729967E-01 0.25684782E+03</pdfrwt>
<pdfrwt beam="2">  1       21 0.25380835E-01 0.25684782E+03</pdfrwt>
<totfact> 0.12268037E+04</totfact>
</mgrwt>
</event>
<event>
 4    1  0.4023583E+000  0.2295895E+03  0.7546771E-02  0.1126929E+00
         21   -1    0    0  503  502  0.00000000000E+00  0.00000000000E+00  0.57936060429E+02  0.57936060429E+02  0.00000000000E+00 0.  1.
         21   -1    0    0  501  503 -0.00000000000E+00 -0.00000000000E+00 -0.91236896913E+03  0.91236896913E+03  0.00000000000E+00 0.  1.
          6    1    1    2  501    0 -0.14007060768E+03 -0.56236625202E+02 -0.45286446897E+03  0.50773768859E+03  0.17300000000E+03 0.  1.
         -6    1    1    2    0  502  0.14007060768E+03  0.56236625202E+02 -0.40156843973E+03  0.46256734097E+03  0.17300000000E+03 0.  1.
<mgrwt>
<rscale>  2 0.22958949E+03</rscale>
<asrwt>0</asrwt>
<pdfrwt beam="1">  1       21 0.89132400E-02 0.22958949E+03</pdfrwt>
<pdfrwt beam="2">  1       21 0.14036446E+00 0.22958949E+03</pdfrwt>
<totfact> 0.34580012E+04</totfact>
</mgrwt>
</event>
<event>
 4    1  0.4023583E+000  0.3192384E+03  0.7546771E-02  0.1076000E+00
         21   -1    0    0  501  502  0.00000000000E+00  0.00000000000E+00  0.12132775749E+03  0.12132775749E+03  0.00000000000E+00 0.  1.
         21   -1    0    0  502  503 -0.00000000000E+00 -0.00000000000E+00 -0.95894526340E+03  0.95894526340E+03  0.00000000000E+00 0.  1.
          6    1    1    2  501    0 -0.22371241960E+03  0.14811111794E+03 -0.22856395262E+03  0.39262530532E+03  0.17300000000E+03 0.  1.
         -6    1    1    2    0  503  0.22371241960E+03 -0.14811111794E+03 -0.60905355330E+03  0.68764771557E+03  0.17300000000E+03 0.  1.
<mgrwt>
<rscale>  2 0.31923839E+03</rscale>
<asrwt>0</asrwt>
<pdfrwt beam="1">  1       21 0.18665809E-01 0.31923839E+03</pdfrwt>
<pdfrwt beam="2">  1       21 0.14753004E+00 0.31923839E+03</pdfrwt>
<totfact> 0.75789289E+03</totfact>
</mgrwt>
</event>
<event>
 4    1  0.4023583E+000  0.1780928E+03  0.7546771E-02  0.1169662E+00
         21   -1    0    0  503  502  0.00000000000E+00  0.00000000000E+00  0.15751705125E+02  0.15751705125E+02  0.00000000000E+00 0. -1.
         21   -1    0    0  501  503 -0.00000000000E+00 -0.00000000000E+00 -0.20960907984E+04  0.20960907984E+04  0.00000000000E+00 0. -1.
          6    1    1    2  501    0  0.42123809684E+02 -0.36924260408E+01 -0.83064889921E+03  0.84952612856E+03  0.17300000000E+03 0. -1.
         -6    1    1    2    0  502 -0.42123809684E+02  0.36924260408E+01 -0.12496901940E+04  0.12623163749E+04  0.17300000000E+03 0. -1.
<mgrwt>
<rscale>  2 0.17809281E+03</rscale>
<asrwt>0</asrwt>
<pdfrwt beam="1">  1       21 0.24233387E-02 0.17809281E+03</pdfrwt>
<pdfrwt beam="2">  1       21 0.32247558E+00 0.17809281E+03</pdfrwt>
<totfact> 0.23135460E+04</totfact>
</mgrwt>
</event>
<event>
 4    1  0.4023583E+000  0.2252063E+03  0.7546771E-02  0.1130060E+00
         21   -1    0    0  503  502  0.00000000000E+00  0.00000000000E+00  0.29058916292E+02  0.29058916292E+02  0.00000000000E+00 0.  1.
         21   -1    0    0  501  503 -0.00000000000E+00 -0.00000000000E+00 -0.17532491533E+04  0.17532491533E+04  0.00000000000E+00 0. -1.
          6    1    1    2  501    0  0.91517956112E+02  0.11141523512E+03 -0.92192319938E+03  0.94903123049E+03  0.17300000000E+03 0.  1.
         -6    1    1    2    0  502 -0.91517956112E+02 -0.11141523512E+03 -0.80226703767E+03  0.83327683914E+03  0.17300000000E+03 0.  1.
<mgrwt>
<rscale>  2 0.22520633E+03</rscale>
<asrwt>0</asrwt>
<pdfrwt beam="1">  1       21 0.44706029E-02 0.22520633E+03</pdfrwt>
<pdfrwt beam="2">  1       21 0.26973061E+00 0.22520633E+03</pdfrwt>
<totfact> 0.16105411E+04</totfact>
</mgrwt>
</event>
<event>
 4    1  0.4023583E+000  0.1779428E+03  0.7546771E-02  0.1169809E+00
         21   -1    0    0  503  502  0.00000000000E+00  0.00000000000E+00  0.12862373464E+03  0.12862373464E+03  0.00000000000E+00 0.  1.
         21   -1    0    0  501  503 -0.00000000000E+00 -0.00000000000E+00 -0.39741362637E+03  0.39741362637E+03  0.00000000000E+00 0.  1.
          6    1    1    2  501    0 -0.11812375363E+02 -0.39938830541E+02 -0.29665065609E+03  0.34592666008E+03  0.17300000000E+03 0. -1.
         -6    1    1    2    0  502  0.11812375363E+02  0.39938830541E+02  0.27860764361E+02  0.18011070092E+03  0.17300000000E+03 0. -1.
<mgrwt>
<rscale>  2 0.17794281E+03</rscale>
<asrwt>0</asrwt>
<pdfrwt beam="1">  1       21 0.19788267E-01 0.17794281E+03</pdfrwt>
<pdfrwt beam="2">  1       21 0.61140558E-01 0.17794281E+03</pdfrwt>
<totfact> 0.58984834E+04</totfact>
</mgrwt>
</event>
<event>
 4    1  0.4023583E+000  0.2301383E+03  0.7546771E-02  0.1126542E+00
         21   -1    0    0  503  502  0.00000000000E+00  0.00000000000E+00  0.89872316145E+03  0.89872316145E+03  0.00000000000E+00 0. -1.
         21   -1    0    0  501  503 -0.00000000000E+00 -0.00000000000E+00 -0.23830519789E+03  0.23830519789E+03  0.00000000000E+00 0.  1.
          6    1    1    2  501    0  0.15091639819E+03 -0.16090299743E+02 -0.16302521503E+03  0.28202992346E+03  0.17300000000E+03 0.  1.
         -6    1    1    2    0  502 -0.15091639819E+03  0.16090299743E+02  0.82344317859E+03  0.85499843588E+03  0.17300000000E+03 0. -1.
<mgrwt>
<rscale>  2 0.23013834E+03</rscale>
<asrwt>0</asrwt>
<pdfrwt beam="1">  1       21 0.13826510E+00 0.23013834E+03</pdfrwt>
<pdfrwt beam="2">  1       21 0.36662339E-01 0.23013834E+03</pdfrwt>
<totfact> 0.25676458E+03</totfact>
</mgrwt>
</event>
<event>
 4    1  0.4023583E+000  0.2106521E+03  0.7546771E-02  0.1141051E+00
         21   -1    0    0  501  502  0.00000000000E+00  0.00000000000E+00  0.97173196499E+03  0.97173196499E+03  0.00000000000E+00 0. -1.
         21   -1    0    0  502  503 -0.00000000000E+00 -0.00000000000E+00 -0.47318739161E+02  0.47318739161E+02  0.00000000000E+00 0. -1.
          6    1    1    2  501    0  0.96702327469E+02  0.71372019389E+02  0.55745560953E+03  0.59592873893E+03  0.17300000000E+03 0. -1.
         -6    1    1    2    0  503 -0.96702327469E+02 -0.71372019389E+02  0.36695761630E+03  0.42312196522E+03  0.17300000000E+03 0. -1.
<mgrwt>
<rscale>  2 0.21065210E+03</rscale>
<asrwt>0</asrwt>
<pdfrwt beam="1">  1       21 0.14949721E+00 0.21065210E+03</pdfrwt>
<pdfrwt beam="2">  1       21 0.72798067E-02 0.21065210E+03</pdfrwt>
<totfact> 0.42183149E+04</totfact>
</mgrwt>
</event>
<event>
 4    1  0.4023583E+000  0.1996677E+03  0.7546771E-02  0.1150020E+00
         21   -1    0    0  501  502  0.00000000000E+00  0.00000000000E+00  0.54492556222E+02  0.54492556222E+02  0.00000000000E+00 0.  1.
         21   -1    0    0  502  503 -0.00000000000E+00 -0.00000000000E+00 -0.98196294303E+03  0.98196294303E+03  0.00000000000E+00 0. -1.
          6    1    1    2  501    0 -0.94299589848E+02 -0.32338238049E+02 -0.72540369751E+03  0.75238135187E+03  0.17300000000E+03 0. -1.
         -6    1    1    2    0  503  0.94299589848E+02  0.32338238049E+02 -0.20206668930E+03  0.28407414738E+03  0.17300000000E+03 0. -1.
<mgrwt>
<rscale>  2 0.19966766E+03</rscale>
<asrwt>0</asrwt>
<pdfrwt beam="1">  1       21 0.83834706E-02 0.19966766E+03</pdfrwt>
<pdfrwt beam="2">  1       21 0.15107121E+00 0.19966766E+03</pdfrwt>
<totfact> 0.32302355E+04</totfact>
</mgrwt>
</event>
<event>
 4    1  0.4023583E+000  0.2316540E+03  0.7546771E-02  0.1125481E+00
         21   -1    0    0  501  502  0.00000000000E+00  0.00000000000E+00  0.74365852690E+03  0.74365852690E+03  0.00000000000E+00 0. -1.
         21   -1    0    0  502  503 -0.00000000000E+00 -0.00000000000E+00 -0.80543790765E+02  0.80543790765E+02  0.00000000000E+00 0. -1.
          6    1    1    2  501    0 -0.12990475609E+03 -0.82821155782E+02  0.46450070059E+03  0.51906116244E+03  0.17300000000E+03 0. -1.
         -6    1    1    2    0  503  0.12990475609E+03  0.82821155782E+02  0.19861403555E+03  0.30514115523E+03  0.17300000000E+03 0. -1.
<mgrwt>
<rscale>  2 0.23165403E+03</rscale>
<asrwt>0</asrwt>
<pdfrwt beam="1">  1       21 0.11440900E+00 0.23165403E+03</pdfrwt>
<pdfrwt beam="2">  1       21 0.12391353E-01 0.23165403E+03</pdfrwt>
<totfact> 0.32197262E+04</totfact>
</mgrwt>
</event>
<event>
 4    1  0.4023583E+000  0.2964802E+03  0.7546771E-02  0.1087013E+00
         21   -1    0    0  501  502  0.00000000000E+00  0.00000000000E+00  0.16475934655E+03  0.16475934655E+03  0.00000000000E+00 0. -1.
         21   -1    0    0  502  503 -0.00000000000E+00 -0.00000000000E+00 -0.68423404626E+03  0.68423404626E+03  0.00000000000E+00 0.  1.
          6    1    1    2  501    0  0.95518179588E+02 -0.22101537815E+03 -0.60502486408E+02  0.30259059944E+03  0.17300000000E+03 0. -1.
         -6    1    1    2    0  503 -0.95518179588E+02  0.22101537815E+03 -0.45897221330E+03  0.54640279336E+03  0.17300000000E+03 0.  1.
<mgrwt>
<rscale>  2 0.29648022E+03</rscale>
<asrwt>0</asrwt>
<pdfrwt beam="1">  1       21 0.25347592E-01 0.29648022E+03</pdfrwt>
<pdfrwt beam="2">  1       21 0.10526677E+00 0.29648022E+03</pdfrwt>
<totfact> 0.10084187E+04</totfact>
</mgrwt>
</event>
<event>
 4    1  0.4023583E+000  0.2556788E+03  0.7546771E-02  0.1109768E+00
         21   -1    0    0  503  502  0.00000000000E+00  0.00000000000E+00  0.17089270439E+03  0.17089270439E+03  0.00000000000E+00 0. -1.
         21   -1    0    0  501  503 -0.00000000000E+00 -0.00000000000E+00 -0.45520249507E+03  0.45520249507E+03  0.00000000000E+00 0.  1.
          6    1    1    2  501    0 -0.12156811468E+03 -0.14374928868E+03 -0.26723600571E+03  0.36984692408E+03  0.17300000000E+03 0.  1.
         -6    1    1    2    0  502  0.12156811468E+03  0.14374928868E+03 -0.17073784975E+02  0.25624827538E+03  0.17300000000E+03 0. -1.
<mgrwt>
<rscale>  2 0.25567883E+03</rscale>
<asrwt>0</asrwt>
<pdfrwt beam="1">  1       21 0.26291186E-01 0.25567883E+03</pdfrwt>
<pdfrwt beam="2">  1       21 0.70031152E-01 0.25567883E+03</pdfrwt>
<totfact> 0.24640630E+04</totfact>
</mgrwt>
</event>
<event>
 4    1  0.4023583E+000  0.2054852E+03  0.7546771E-02  0.1145192E+00
         21   -1    0    0  501  502  0.00000000000E+00  0.00000000000E+00  0.13868576225E+03  0.13868576225E+03  0.00000000000E+00 0. -1.
         21   -1    0    0  502  503 -0.00000000000E+00 -0.00000000000E+00 -0.30596481024E+03  0.30596481024E+03  0.00000000000E+00 0.  1.
          6    1    1    2  501    0 -0.63469050703E+02 -0.90922228672E+02 -0.99234795129E+02  0.22819227995E+03  0.17300000000E+03 0. -1.
         -6    1    1    2    0  503  0.63469050703E+02  0.90922228672E+02 -0.68044252858E+02  0.21645829254E+03  0.17300000000E+03 0. -1.
<mgrwt>
<rscale>  2 0.20548521E+03</rscale>
<asrwt>0</asrwt>
<pdfrwt beam="1">  1       21 0.21336271E-01 0.20548521E+03</pdfrwt>
<pdfrwt beam="2">  1       21 0.47071509E-01 0.20548521E+03</pdfrwt>
<totfact> 0.87845000E+04</totfact>
</mgrwt>
</event>
<event>
 4    1  0.4023583E+000  0.1906185E+03  0.7546771E-02  0.1157905E+00
         21   -1    0    0  501  502  0.00000000000E+00  0.00000000000E+00  0.64875032584E+03  0.64875032584E+03  0.00000000000E+00 0.  1.
         21   -1    0    0  502  503 -0.00000000000E+00 -0.00000000000E+00 -0.60862710436E+02  0.60862710436E+02  0.00000000000E+00 0.  1.
          6    1    1    2  501    0  0.75265100652E+02  0.27231749183E+02  0.39414759712E+03  0.43782157536E+03  0.17300000000E+03 0.  1.
         -6    1    1    2    0  503 -0.75265100652E+02 -0.27231749183E+02  0.19374001829E+03  0.27179146091E+03  0.17300000000E+03 0.  1.
<mgrwt>
<rscale>  2 0.19061848E+03</rscale>
<asrwt>0</asrwt>
<pdfrwt beam="1">  1       21 0.99807738E-01 0.19061848E+03</pdfrwt>
<pdfrwt beam="2">  1       21 0.93634944E-02 0.19061848E+03</pdfrwt>
<totfact> 0.75218032E+04</totfact>
</mgrwt>
</event>
<event>
 4    1  0.4023583E+000  0.2023513E+03  0.7546771E-02  0.1147770E+00
         21   -1    0    0  501  502  0.00000000000E+00  0.00000000000E+00  0.45969250733E+03  0.45969250733E+03  0.00000000000E+00 0.  1.
         21   -1    0    0  502  503 -0.00000000000E+00 -0.00000000000E+00 -0.30035716042E+03  0.30035716042E+03  0.00000000000E+00 0.  1.
          6    1    1    2  501    0 -0.34527998915E+02 -0.99120498098E+02  0.39840047087E+03  0.44684336299E+03  0.17300000000E+03 0.  1.
         -6    1    1    2    0  503  0.34527998915E+02  0.99120498098E+02 -0.23906512396E+03  0.31320630477E+03  0.17300000000E+03 0.  1.
<mgrwt>
<rscale>  2 0.20235132E+03</rscale>
<asrwt>0</asrwt>
<pdfrwt beam="1">  1       21 0.70721924E-01 0.20235132E+03</pdfrwt>
<pdfrwt beam="2">  1       21 0.46208794E-01 0.20235132E+03</pdfrwt>
<totfact> 0.80716957E+03</totfact>
</mgrwt>
</event>
<event>
 4    1  0.4023583E+000  0.1814598E+03  0.7546771E-02  0.1166398E+00
         21   -1    0    0  503  502  0.00000000000E+00  0.00000000000E+00  0.35925623870E+02  0.35925623870E+02  0.00000000000E+00 0. -1.
         21   -1    0    0  501  503 -0.00000000000E+00 -0.00000000000E+00 -0.11038997625E+04  0.11038997625E+04  0.00000000000E+00 0. -1.
          6    1    1    2  501    0  0.21230319361E+02  0.50477111121E+02 -0.76877132237E+03  0.78989683587E+03  0.17300000000E+03 0. -1.
         -6    1    1    2    0  502 -0.21230319361E+02 -0.50477111121E+02 -0.29920281630E+03  0.34992855055E+03  0.17300000000E+03 0. -1.
<mgrwt>
<rscale>  2 0.18145982E+03</rscale>
<asrwt>0</asrwt>
<pdfrwt beam="1">  1       21 0.55270178E-02 0.18145982E+03</pdfrwt>
<pdfrwt beam="2">  1       21 0.16983077E+00 0.18145982E+03</pdfrwt>
<totfact> 0.48866935E+04</totfact>
</mgrwt>
</event>
<event>
 4    1  0.4023583E+000  0.2923180E+03  0.7546771E-02  0.1089145E+00
         21   -1    0    0  501  502  0.00000000000E+00  0.00000000000E+00  0.11512534725E+04  0.11512534725E+04  0.00000000000E+00 0.  1.
         21   -1    0    0  502  503 -0.00000000000E+00 -0.00000000000E+00 -0.74627341672E+02  0.74627341672E+02  0.00000000000E+00 0. -1.
          6    1    1    2  501    0 -0.23399515169E+03  0.27695780096E+02  0.49321029981E+03  0.57332903911E+03  0.17300000000E+03 0. -1.
         -6    1    1    2    0  503  0.23399515169E+03 -0.27695780096E+02  0.58341583101E+03  0.65255177505E+03  0.17300000000E+03 0. -1.
<mgrwt>
<rscale>  2 0.29231796E+03</rscale>
<asrwt>0</asrwt>
<pdfrwt beam="1">  1       21 0.17711591E+00 0.29231796E+03</pdfrwt>
<pdfrwt beam="2">  1       21 0.11481130E-01 0.29231796E+03</pdfrwt>
<totfact> 0.11335176E+04</totfact>
</mgrwt>
</event>
<event>
 4    1  0.4023583E+000  0.1802835E+03  0.7546771E-02  0.1167529E+00
         21   -1    0    0  501  502  0.00000000000E+00  0.00000000000E+00  0.81836118566E+03  0.81836118566E+03  0.00000000000E+00 0.  1.
         21   -1    0    0  502  503 -0.00000000000E+00 -0.00000000000E+00 -0.12953803757E+03  0.12953803757E+03  0.00000000000E+00 0.  1.
          6    1    1    2  501    0 -0.44878064349E+02 -0.23645669410E+02  0.73907292264E+03  0.76074367780E+03  0.17300000000E+03 0.  1.
         -6    1    1    2    0  503  0.44878064349E+02  0.23645669410E+02 -0.50249774554E+02  0.18715554543E+03  0.17300000000E+03 0.  1.
<mgrwt>
<rscale>  2 0.18028355E+03</rscale>
<asrwt>0</asrwt>
<pdfrwt beam="1">  1       21 0.12590172E+00 0.18028355E+03</pdfrwt>
<pdfrwt beam="2">  1       21 0.19928929E-01 0.18028355E+03</pdfrwt>
<totfact> 0.10984719E+04</totfact>
</mgrwt>
</event>
<event>
 4    1  0.4023583E+000  0.4120257E+03  0.7546771E-02  0.1039693E+00
         21   -1    0    0  501  502  0.00000000000E+00  0.00000000000E+00  0.65604938077E+03  0.65604938077E+03  0.00000000000E+00 0. -1.
         21   -1    0    0  502  503 -0.00000000000E+00 -0.00000000000E+00 -0.45463978078E+03  0.45463978078E+03  0.00000000000E+00 0. -1.
          6    1    1    2  501    0 -0.13598162403E+03  0.34834628964E+03  0.46521847187E+03  0.62144458011E+03  0.17300000000E+03 0. -1.
         -6    1    1    2    0  503  0.13598162403E+03 -0.34834628964E+03 -0.26380887188E+03  0.48924458143E+03  0.17300000000E+03 0. -1.
<mgrwt>
<rscale>  2 0.41202565E+03</rscale>
<asrwt>0</asrwt>
<pdfrwt beam="1">  1       21 0.10093067E+00 0.41202565E+03</pdfrwt>
<pdfrwt beam="2">  1       21 0.69944582E-01 0.41202565E+03</pdfrwt>
<totfact> 0.12940154E+03</totfact>
</mgrwt>
</event>
<event>
 4    1  0.4023583E+000  0.1925706E+03  0.7546771E-02  0.1156163E+00
         21   -1    0    0  501  502  0.00000000000E+00  0.00000000000E+00  0.70941301820E+03  0.70941301820E+03  0.00000000000E+00 0. -1.
         21   -1    0    0  502  503 -0.00000000000E+00 -0.00000000000E+00 -0.17940519515E+03  0.17940519515E+03  0.00000000000E+00 0. -1.
          6    1    1    2  501    0  0.83739373080E+02  0.11922330777E+02  0.63910807895E+03  0.66748974611E+03  0.17300000000E+03 0. -1.
         -6    1    1    2    0  503 -0.83739373080E+02 -0.11922330777E+02 -0.10910025591E+03  0.22132846725E+03  0.17300000000E+03 0. -1.
<mgrwt>
<rscale>  2 0.19257057E+03</rscale>
<asrwt>0</asrwt>
<pdfrwt beam="1">  1       21 0.10914046E+00 0.19257057E+03</pdfrwt>
<pdfrwt beam="2">  1       21 0.27600800E-01 0.19257057E+03</pdfrwt>
<totfact> 0.83386802E+03</totfact>
</mgrwt>
</event>
<event>
 4    1  0.4023583E+000  0.2399445E+03  0.7546771E-02  0.1119830E+00
         21   -1    0    0  503  502  0.00000000000E+00  0.00000000000E+00  0.54508929832E+03  0.54508929832E+03  0.00000000000E+00 0. -1.
         21   -1    0    0  501  503 -0.00000000000E+00 -0.00000000000E+00 -0.12798705541E+03  0.12798705541E+03  0.00000000000E+00 0.  1.
          6    1    1    2  501    0  0.11018586090E+03  0.12451287301E+03  0.67869599488E+02  0.24935850100E+03  0.17300000000E+03 0.  1.
         -6    1    1    2    0  502 -0.11018586090E+03 -0.12451287301E+03  0.34923264343E+03  0.42371785273E+03  0.17300000000E+03 0.  1.
<mgrwt>
<rscale>  2 0.23994453E+03</rscale>
<asrwt>0</asrwt>
<pdfrwt beam="1">  1       21 0.83859891E-01 0.23994453E+03</pdfrwt>
<pdfrwt beam="2">  1       21 0.19690317E-01 0.23994453E+03</pdfrwt>
<totfact> 0.28645381E+04</totfact>
</mgrwt>
</event>
<event>
 4    1  0.4023583E+000  0.2421752E+03  0.7546771E-02  0.1118352E+00
         21   -1    0    0  501  502  0.00000000000E+00  0.00000000000E+00  0.23010473726E+03  0.23010473726E+03  0.00000000000E+00 0. -1.
         21   -1    0    0  502  503 -0.00000000000E+00 -0.00000000000E+00 -0.26888445679E+03  0.26888445679E+03  0.00000000000E+00 0. -1.
          6    1    1    2  501    0 -0.16860187634E+03 -0.17124680841E+02  0.37551540541E+02  0.24506930774E+03  0.17300000000E+03 0. -1.
         -6    1    1    2    0  503  0.16860187634E+03  0.17124680841E+02 -0.76331260067E+02  0.25391988631E+03  0.17300000000E+03 0. -1.
<mgrwt>
<rscale>  2 0.24217524E+03</rscale>
<asrwt>0</asrwt>
<pdfrwt beam="1">  1       21 0.35400729E-01 0.24217524E+03</pdfrwt>
<pdfrwt beam="2">  1       21 0.41366839E-01 0.24217524E+03</pdfrwt>
<totfact> 0.42297418E+04</totfact>
</mgrwt>
</event>
<event>
 4    1  0.4023583E+000  0.1981249E+03  0.7546771E-02  0.1151331E+00
         21   -1    0    0  501  502  0.00000000000E+00  0.00000000000E+00  0.10034815749E+04  0.10034815749E+04  0.00000000000E+00 0.  1.
         21   -1    0    0  502  503 -0.00000000000E+00 -0.00000000000E+00 -0.58008940724E+02  0.58008940724E+02  0.00000000000E+00 0. -1.
          6    1    1    2  501    0  0.93090977917E+02 -0.25661947524E+02  0.77561853003E+03  0.80052331000E+03  0.17300000000E+03 0.  1.
         -6    1    1    2    0  503 -0.93090977917E+02  0.25661947524E+02  0.16985410416E+03  0.26096720564E+03  0.17300000000E+03 0. -1.
<mgrwt>
<rscale>  2 0.19812487E+03</rscale>
<asrwt>0</asrwt>
<pdfrwt beam="1">  1       21 0.15438177E+00 0.19812487E+03</pdfrwt>
<pdfrwt beam="2">  1       21 0.89244532E-02 0.19812487E+03</pdfrwt>
<totfact> 0.27364320E+04</totfact>
</mgrwt>
</event>
<event>
 4    1  0.4023583E+000  0.2031647E+03  0.7546771E-02  0.1147096E+00
         21   -1    0    0  501  502  0.00000000000E+00  0.00000000000E+00  0.27792127430E+03  0.27792127430E+03  0.00000000000E+00 0. -1.
         21   -1    0    0  502  503 -0.00000000000E+00 -0.00000000000E+00 -0.18104565882E+03  0.18104565882E+03  0.00000000000E+00 0.  1.
          6    1    1    2  501    0 -0.10620119999E+03  0.82571414200E+01  0.14571123838E+03  0.25001528004E+03  0.17300000000E+03 0. -1.
         -6    1    1    2    0  503  0.10620119999E+03 -0.82571414200E+01 -0.48835622890E+02  0.20895165308E+03  0.17300000000E+03 0.  1.
<mgrwt>
<rscale>  2 0.20316465E+03</rscale>
<asrwt>0</asrwt>
<pdfrwt beam="1">  1       21 0.42757119E-01 0.20316465E+03</pdfrwt>
<pdfrwt beam="2">  1       21 0.27853178E-01 0.20316465E+03</pdfrwt>
<totfact> 0.64445566E+04</totfact>
</mgrwt>
</event>
<event>
 4    1  0.4023583E+000  0.2813690E+03  0.7546771E-02  0.1094944E+00
         21   -1    0    0  503  502  0.00000000000E+00  0.00000000000E+00  0.22479605557E+03  0.22479605557E+03  0.00000000000E+00 0. -1.
         21   -1    0    0  501  503 -0.00000000000E+00 -0.00000000000E+00 -0.36276140599E+03  0.36276140599E+03  0.00000000000E+00 0. -1.
          6    1    1    2  501    0  0.21200674606E+03 -0.65518172487E+02 -0.11915893167E+03  0.30556070149E+03  0.17300000000E+03 0. -1.
         -6    1    1    2    0  502 -0.21200674606E+03  0.65518172487E+02 -0.18806418747E+02  0.28199676006E+03  0.17300000000E+03 0. -1.
<mgrwt>
<rscale>  2 0.28136896E+03</rscale>
<asrwt>0</asrwt>
<pdfrwt beam="1">  1       21 0.34584009E-01 0.28136896E+03</pdfrwt>
<pdfrwt beam="2">  1       21 0.55809447E-01 0.28136896E+03</pdfrwt>
<totfact> 0.23320095E+04</totfact>
</mgrwt>
</event>
<event>
 4    1  0.4023583E+000  0.1796264E+03  0.7546771E-02  0.1168165E+00
         21   -1    0    0  503  502  0.00000000000E+00  0.00000000000E+00  0.50913083926E+03  0.50913083926E+03  0.00000000000E+00 0. -1.
         21   -1    0    0  501  503 -0.00000000000E+00 -0.00000000000E+00 -0.83512747027E+02  0.83512747027E+02  0.00000000000E+00 0. -1.
          6    1    1    2  501    0  0.35135612540E+02  0.33198592883E+02  0.67295497805E+02  0.19181851283E+03  0.17300000000E+03 0. -1.
         -6    1    1    2    0  502 -0.35135612540E+02 -0.33198592883E+02  0.35832259443E+03  0.40082507346E+03  0.17300000000E+03 0. -1.
<mgrwt>
<rscale>  2 0.17962644E+03</rscale>
<asrwt>0</asrwt>
<pdfrwt beam="1">  1       21 0.78327819E-01 0.17962644E+03</pdfrwt>
<pdfrwt beam="2">  1       21 0.12848115E-01 0.17962644E+03</pdfrwt>
<totfact> 0.75309815E+04</totfact>
</mgrwt>
</event>
<event>
 4    1  0.4023583E+000  0.1958040E+03  0.7546771E-02  0.1153328E+00
         21   -1    0    0  503  502  0.00000000000E+00  0.00000000000E+00  0.10491907000E+03  0.10491907000E+03  0.00000000000E+00 0.  1.
         21   -1    0    0  501  503 -0.00000000000E+00 -0.00000000000E+00 -0.38330961708E+03  0.38330961708E+03  0.00000000000E+00 0.  1.
          6    1    1    2  501    0  0.81489125765E+02 -0.42068233266E+02 -0.19193709636E+03  0.27418800635E+03  0.17300000000E+03 0.  1.
         -6    1    1    2    0  502 -0.81489125765E+02  0.42068233266E+02 -0.86453450718E+02  0.21404068073E+03  0.17300000000E+03 0.  1.
<mgrwt>
<rscale>  2 0.19580402E+03</rscale>
<asrwt>0</asrwt>
<pdfrwt beam="1">  1       21 0.16141395E-01 0.19580402E+03</pdfrwt>
<pdfrwt beam="2">  1       21 0.58970710E-01 0.19580402E+03</pdfrwt>
<totfact> 0.92148944E+04</totfact>
</mgrwt>
</event>
<event>
 4    1  0.4023583E+000  0.2727845E+03  0.7546771E-02  0.1099696E+00
         21   -1    0    0  503  502  0.00000000000E+00  0.00000000000E+00  0.80220587129E+03  0.80220587129E+03  0.00000000000E+00 0. -1.
         21   -1    0    0  501  503 -0.00000000000E+00 -0.00000000000E+00 -0.10096677367E+03  0.10096677367E+03  0.00000000000E+00 0.  1.
          6    1    1    2  501    0 -0.12984594973E+03  0.16619994774E+03  0.47937870272E+03  0.55155719007E+03  0.17300000000E+03 0. -1.
         -6    1    1    2    0  502  0.12984594973E+03 -0.16619994774E+03  0.22186039490E+03  0.35161545488E+03  0.17300000000E+03 0.  1.
<mgrwt>
<rscale>  2 0.27278452E+03</rscale>
<asrwt>0</asrwt>
<pdfrwt beam="1">  1       21 0.12341628E+00 0.27278452E+03</pdfrwt>
<pdfrwt beam="2">  1       21 0.15533350E-01 0.27278452E+03</pdfrwt>
<totfact> 0.17317126E+04</totfact>
</mgrwt>
</event>
<event>
 4    1  0.4023583E+000  0.2998393E+03  0.7546771E-02  0.1085321E+00
         21   -1    0    0  501  502  0.00000000000E+00  0.00000000000E+00  0.32475220450E+03  0.32475220450E+03  0.00000000000E+00 0. -1.
         21   -1    0    0  502  503 -0.00000000000E+00 -0.00000000000E+00 -0.88396188810E+03  0.88396188810E+03  0.00000000000E+00 0.  1.
          6    1    1    2  501    0 -0.24037987614E+03  0.46820385051E+02  0.22125430515E+03  0.37263534569E+03  0.17300000000E+03 0. -1.
         -6    1    1    2    0  503  0.24037987614E+03 -0.46820385051E+02 -0.78046398875E+03  0.83607874692E+03  0.17300000000E+03 0.  1.
<mgrwt>
<rscale>  2 0.29983935E+03</rscale>
<asrwt>0</asrwt>
<pdfrwt beam="1">  1       21 0.49961879E-01 0.29983935E+03</pdfrwt>
<pdfrwt beam="2">  1       21 0.13599413E+00 0.29983935E+03</pdfrwt>
<totfact> 0.13510139E+03</totfact>
</mgrwt>
</event>
<event>
 4    1  0.4023583E+000  0.2170504E+03  0.7546771E-02  0.1136101E+00
         21   -1    0    0  501  502  0.00000000000E+00  0.00000000000E+00  0.50540163098E+02  0.50540163098E+02  0.00000000000E+00 0.  1.
         21   -1    0    0  502  503 -0.00000000000E+00 -0.00000000000E+00 -0.12081783692E+04  0.12081783692E+04  0.00000000000E+00 0. -1.
          6    1    1    2  501    0 -0.23975288941E+02  0.12886840459E+03 -0.27799541564E+03  0.35269297030E+03  0.17300000000E+03 0. -1.
         -6    1    1    2    0  503  0.23975288941E+02 -0.12886840459E+03 -0.87964279047E+03  0.90602556201E+03  0.17300000000E+03 0. -1.
<mgrwt>
<rscale>  2 0.21705041E+03</rscale>
<asrwt>0</asrwt>
<pdfrwt beam="1">  1       21 0.77754099E-02 0.21705041E+03</pdfrwt>
<pdfrwt beam="2">  1       21 0.18587359E+00 0.21705041E+03</pdfrwt>
<totfact> 0.20586653E+04</totfact>
</mgrwt>
</event>
<event>
 4    1  0.4023583E+000  0.1929851E+03  0.7546771E-02  0.1155796E+00
         21   -1    0    0  501  502  0.00000000000E+00  0.00000000000E+00  0.15969542609E+04  0.15969542609E+04  0.00000000000E+00 0. -1.
         21   -1    0    0  502  503 -0.00000000000E+00 -0.00000000000E+00 -0.35393604091E+02  0.35393604091E+02  0.00000000000E+00 0. -1.
          6    1    1    2  501    0  0.84649282582E+02 -0.12195486941E+02  0.12574454380E+04  0.12721683302E+04  0.17300000000E+03 0. -1.
         -6    1    1    2    0  503 -0.84649282582E+02  0.12195486941E+02  0.30411521888E+03  0.36017953481E+03  0.17300000000E+03 0. -1.
<mgrwt>
<rscale>  2 0.19298505E+03</rscale>
<asrwt>0</asrwt>
<pdfrwt beam="1">  1       21 0.24568522E+00 0.19298505E+03</pdfrwt>
<pdfrwt beam="2">  1       21 0.54451711E-02 0.19298505E+03</pdfrwt>
<totfact> 0.16401541E+04</totfact>
</mgrwt>
</event>
<event>
 4    1  0.4023583E+000  0.1888969E+03  0.7546771E-02  0.1159460E+00
         21   -1    0    0  503  502  0.00000000000E+00  0.00000000000E+00  0.24253079016E+02  0.24253079016E+02  0.00000000000E+00 0. -1.
         21   -1    0    0  501  503 -0.00000000000E+00 -0.00000000000E+00 -0.17138191155E+04  0.17138191155E+04  0.00000000000E+00 0.  1.
          6    1    1    2  501    0 -0.61279396925E+02  0.44697712227E+02 -0.11717349251E+04  0.11868634229E+04  0.17300000000E+03 0.  1.
         -6    1    1    2    0  502  0.61279396925E+02 -0.44697712227E+02 -0.51783111135E+03  0.55120877157E+03  0.17300000000E+03 0. -1.
<mgrwt>
<rscale>  2 0.18889693E+03</rscale>
<asrwt>0</asrwt>
<pdfrwt beam="1">  1       21 0.37312432E-02 0.18889693E+03</pdfrwt>
<pdfrwt beam="2">  1       21 0.26366446E+00 0.18889693E+03</pdfrwt>
<totfact> 0.24437332E+04</totfact>
</mgrwt>
</event>
<event>
 4    1  0.4023583E+000  0.2134018E+03  0.7546771E-02  0.1138900E+00
         21   -1    0    0  501  502  0.00000000000E+00  0.00000000000E+00  0.19491114974E+02  0.19491114974E+02  0.00000000000E+00 0. -1.
         21   -1    0    0  502  503 -0.00000000000E+00 -0.00000000000E+00 -0.24921042081E+04  0.24921042081E+04  0.00000000000E+00 0.  1.
          6    1    1    2  501    0 -0.85221006961E+02  0.91371336326E+02 -0.15501360009E+04  0.15647561991E+04  0.17300000000E+03 0. -1.
         -6    1    1    2    0  503  0.85221006961E+02 -0.91371336326E+02 -0.92247709221E+03  0.94683912402E+03  0.17300000000E+03 0. -1.
<mgrwt>
<rscale>  2 0.21340183E+03</rscale>
<asrwt>0</asrwt>
<pdfrwt beam="1">  1       21 0.29986325E-02 0.21340183E+03</pdfrwt>
<pdfrwt beam="2">  1       21 0.38340073E+00 0.21340183E+03</pdfrwt>
<totfact> 0.68046212E+03</totfact>
</mgrwt>
</event>
<event>
 4    1  0.4023583E+000  0.1771955E+03  0.7546771E-02  0.1170545E+00
         21   -1    0    0  501  502  0.00000000000E+00  0.00000000000E+00  0.24339079653E+03  0.24339079653E+03  0.00000000000E+00 0. -1.
         21   -1    0    0  502  503 -0.00000000000E+00 -0.00000000000E+00 -0.29377615013E+03  0.29377615013E+03  0.00000000000E+00 0. -1.
          6    1    1    2  501    0  0.38177567538E+02  0.34213223271E+01  0.17595441488E+03  0.24971621539E+03  0.17300000000E+03 0. -1.
         -6    1    1    2    0  503 -0.38177567538E+02 -0.34213223271E+01 -0.22633976849E+03  0.28745073127E+03  0.17300000000E+03 0. -1.
<mgrwt>
<rscale>  2 0.17719546E+03</rscale>
<asrwt>0</asrwt>
<pdfrwt beam="1">  1       21 0.37444738E-01 0.17719546E+03</pdfrwt>
<pdfrwt beam="2">  1       21 0.45196330E-01 0.17719546E+03</pdfrwt>
<totfact> 0.32571278E+04</totfact>
</mgrwt>
</event>
<event>
 4    1  0.4023583E+000  0.1867328E+03  0.7546771E-02  0.1161442E+00
         21   -1    0    0  503  502  0.00000000000E+00  0.00000000000E+00  0.33606590056E+03  0.33606590056E+03  0.00000000000E+00 0.  1.
         21   -1    0    0  501  503 -0.00000000000E+00 -0.00000000000E+00 -0.27299857679E+03  0.27299857679E+03  0.00000000000E+00 0.  1.
          6    1    1    2  501    0 -0.44251328035E+02 -0.54607365442E+02 -0.20824293268E+03  0.27970388521E+03  0.17300000000E+03 0.  1.
         -6    1    1    2    0  502  0.44251328035E+02  0.54607365442E+02  0.27131025645E+03  0.32936059213E+03  0.17300000000E+03 0.  1.
<mgrwt>
<rscale>  2 0.18673282E+03</rscale>
<asrwt>0</asrwt>
<pdfrwt beam="1">  1       21 0.51702446E-01 0.18673282E+03</pdfrwt>
<pdfrwt beam="2">  1       21 0.41999781E-01 0.18673282E+03</pdfrwt>
<totfact> 0.19453846E+04</totfact>
</mgrwt>
</event>
<event>
 4    1  0.4023583E+000  0.1812464E+03  0.7546771E-02  0.1166602E+00
         21   -1    0    0  503  502  0.00000000000E+00  0.00000000000E+00  0.17549642743E+03  0.17549642743E+03  0.00000000000E+00 0.  1.
         21   -1    0    0  501  503 -0.00000000000E+00 -0.00000000000E+00 -0.23606958664E+03  0.23606958664E+03  0.00000000000E+00 0.  1.
          6    1    1    2  501    0 -0.23513321559E+02 -0.48666201446E+02 -0.12392973798E+03  0.21956515072E+03  0.17300000000E+03 0.  1.
         -6    1    1    2    0  502  0.23513321559E+02  0.48666201446E+02  0.63356578779E+02  0.19200086335E+03  0.17300000000E+03 0.  1.
<mgrwt>
<rscale>  2 0.18124645E+03</rscale>
<asrwt>0</asrwt>
<pdfrwt beam="1">  1       21 0.26999451E-01 0.18124645E+03</pdfrwt>
<pdfrwt beam="2">  1       21 0.36318398E-01 0.18124645E+03</pdfrwt>
<totfact> 0.95972336E+04</totfact>
</mgrwt>
</event>
<event>
 4    1  0.4023583E+000  0.2366051E+03  0.7546771E-02  0.1122075E+00
         21   -1    0    0  501  502  0.00000000000E+00  0.00000000000E+00  0.18131350857E+03  0.18131350857E+03  0.00000000000E+00 0.  1.
         21   -1    0    0  502  503 -0.00000000000E+00 -0.00000000000E+00 -0.33708103821E+03  0.33708103821E+03  0.00000000000E+00 0.  1.
          6    1    1    2  501    0  0.16032409470E+03 -0.18685938292E+02 -0.15301731154E+03  0.28177345024E+03  0.17300000000E+03 0.  1.
         -6    1    1    2    0  503 -0.16032409470E+03  0.18685938292E+02 -0.27502180989E+01  0.23662109654E+03  0.17300000000E+03 0.  1.
<mgrwt>
<rscale>  2 0.23660511E+03</rscale>
<asrwt>0</asrwt>
<pdfrwt beam="1">  1       21 0.27894386E-01 0.23660511E+03</pdfrwt>
<pdfrwt beam="2">  1       21 0.51858620E-01 0.23660511E+03</pdfrwt>
<totfact> 0.42430484E+04</totfact>
</mgrwt>
</event>
<event>
 4    1  0.4023583E+000  0.2176090E+03  0.7546771E-02  0.1135678E+00
         21   -1    0    0  501  502  0.00000000000E+00  0.00000000000E+00  0.26718815556E+03  0.26718815556E+03  0.00000000000E+00 0. -1.
         21   -1    0    0  502  503 -0.00000000000E+00 -0.00000000000E+00 -0.17742659375E+03  0.17742659375E+03  0.00000000000E+00 0. -1.
          6    1    1    2  501    0  0.93086142588E+02  0.93592952087E+02  0.37474752558E+02  0.22081220007E+03  0.17300000000E+03 0. -1.
         -6    1    1    2    0  503 -0.93086142588E+02 -0.93592952087E+02  0.52286809258E+02  0.22380254924E+03  0.17300000000E+03 0. -1.
<mgrwt>
<rscale>  2 0.21760899E+03</rscale>
<asrwt>0</asrwt>
<pdfrwt beam="1">  1       21 0.41105870E-01 0.21760899E+03</pdfrwt>
<pdfrwt beam="2">  1       21 0.27296399E-01 0.21760899E+03</pdfrwt>
<totfact> 0.72161632E+04</totfact>
</mgrwt>
</event>
<event>
 4    1  0.4023583E+000  0.2343468E+03  0.7546771E-02  0.1123617E+00
         21   -1    0    0  501  502  0.00000000000E+00  0.00000000000E+00  0.41311187600E+02  0.41311187600E+02  0.00000000000E+00 0. -1.
         21   -1    0    0  502  503 -0.00000000000E+00 -0.00000000000E+00 -0.13294549754E+04  0.13294549754E+04  0.00000000000E+00 0. -1.
          6    1    1    2  501    0  0.71652398990E+02 -0.14090905986E+03 -0.64908177040E+03  0.69009098973E+03  0.17300000000E+03 0. -1.
         -6    1    1    2    0  503 -0.71652398990E+02  0.14090905986E+03 -0.63906201736E+03  0.68067517324E+03  0.17300000000E+03 0. -1.
<mgrwt>
<rscale>  2 0.23434681E+03</rscale>
<asrwt>0</asrwt>
<pdfrwt beam="1">  1       21 0.63555691E-02 0.23434681E+03</pdfrwt>
<pdfrwt beam="2">  1       21 0.20453148E+00 0.23434681E+03</pdfrwt>
<totfact> 0.21784590E+04</totfact>
</mgrwt>
</event>
<event>
 4    1  0.4023583E+000  0.2071889E+03  0.7546771E-02  0.1143812E+00
         21   -1    0    0  501  502  0.00000000000E+00  0.00000000000E+00  0.62518278550E+03  0.62518278550E+03  0.00000000000E+00 0. -1.
         21   -1    0    0  502  503 -0.00000000000E+00 -0.00000000000E+00 -0.87795814998E+02  0.87795814998E+02  0.00000000000E+00 0. -1.
          6    1    1    2  501    0  0.92443424835E+02 -0.66726836210E+02  0.10227828060E+03  0.23105865954E+03  0.17300000000E+03 0. -1.
         -6    1    1    2    0  503 -0.92443424835E+02  0.66726836210E+02  0.43510868990E+03  0.48191994095E+03  0.17300000000E+03 0. -1.
<mgrwt>
<rscale>  2 0.20718894E+03</rscale>
<asrwt>0</asrwt>
<pdfrwt beam="1">  1       21 0.96181964E-01 0.20718894E+03</pdfrwt>
<pdfrwt beam="2">  1       21 0.13507049E-01 0.20718894E+03</pdfrwt>
<totfact> 0.42366428E+04</totfact>
</mgrwt>
</event>
<event>
 4    1  0.4023583E+000  0.2147316E+03  0.7546771E-02  0.1137873E+00
         21   -1    0    0  503  502  0.00000000000E+00  0.00000000000E+00  0.12191225526E+04  0.12191225526E+04  0.00000000000E+00 0.  1.
         21   -1    0    0  501  503 -0.00000000000E+00 -0.00000000000E+00 -0.39066205891E+02  0.39066205891E+02  0.00000000000E+00 0.  1.
          6    1    1    2  501    0  0.12574036083E+03 -0.19236238083E+02  0.70229688423E+03  0.73439130223E+03  0.17300000000E+03 0.  1.
         -6    1    1    2    0  502 -0.12574036083E+03  0.19236238083E+02  0.47775946250E+03  0.52379745628E+03  0.17300000000E+03 0.  1.
<mgrwt>
<rscale>  2 0.21473163E+03</rscale>
<asrwt>0</asrwt>
<pdfrwt beam="1">  1       21 0.18755729E+00 0.21473163E+03</pdfrwt>
<pdfrwt beam="2">  1       21 0.60101865E-02 0.21473163E+03</pdfrwt>
<totfact> 0.31360386E+04</totfact>
</mgrwt>
</event>
<event>
 4    1  0.4023583E+000  0.2361983E+03  0.7546771E-02  0.1122352E+00
         21   -1    0    0  501  502  0.00000000000E+00  0.00000000000E+00  0.16952668060E+04  0.16952668060E+04  0.00000000000E+00 0. -1.
         21   -1    0    0  502  503 -0.00000000000E+00 -0.00000000000E+00 -0.58951376387E+02  0.58951376387E+02  0.00000000000E+00 0. -1.
          6    1    1    2  501    0  0.15397966140E+03  0.46377820162E+02  0.14011280243E+04  0.14208973850E+04  0.17300000000E+03 0. -1.
         -6    1    1    2    0  503 -0.15397966140E+03 -0.46377820162E+02  0.23518740530E+03  0.33332079734E+03  0.17300000000E+03 0. -1.
<mgrwt>
<rscale>  2 0.23619830E+03</rscale>
<asrwt>0</asrwt>
<pdfrwt beam="1">  1       21 0.26081024E+00 0.23619830E+03</pdfrwt>
<pdfrwt beam="2">  1       21 0.90694438E-02 0.23619830E+03</pdfrwt>
<totfact> 0.53103201E+03</totfact>
</mgrwt>
</event>
<event>
 4    1  0.4023583E+000  0.2124218E+03  0.7546771E-02  0.1139662E+00
         21   -1    0    0  501  502  0.00000000000E+00  0.00000000000E+00  0.12905076225E+03  0.12905076225E+03  0.00000000000E+00 0. -1.
         21   -1    0    0  502  503 -0.00000000000E+00 -0.00000000000E+00 -0.36372733495E+03  0.36372733495E+03  0.00000000000E+00 0. -1.
          6    1    1    2  501    0 -0.11507497347E+03  0.44179046656E+02 -0.68871836036E+02  0.22330778643E+03  0.17300000000E+03 0. -1.
         -6    1    1    2    0  503  0.11507497347E+03 -0.44179046656E+02 -0.16580473666E+03  0.26947031076E+03  0.17300000000E+03 0. -1.
<mgrwt>
<rscale>  2 0.21242184E+03</rscale>
<asrwt>0</asrwt>
<pdfrwt beam="1">  1       21 0.19853964E-01 0.21242184E+03</pdfrwt>
<pdfrwt beam="2">  1       21 0.55958051E-01 0.21242184E+03</pdfrwt>
<totfact> 0.69755207E+04</totfact>
</mgrwt>
</event>
<event>
 4    1  0.4023583E+000  0.1866579E+03  0.7546771E-02  0.1161511E+00
         21   -1    0    0  501  502  0.00000000000E+00  0.00000000000E+00  0.17481148098E+04  0.17481148098E+04  0.00000000000E+00 0.  1.
         21   -1    0    0  502  503 -0.00000000000E+00 -0.00000000000E+00 -0.19974130095E+02  0.19974130095E+02  0.00000000000E+00 0. -1.
          6    1    1    2  501    0 -0.58076677044E+02 -0.39233477490E+02  0.82285161345E+03  0.84375704082E+03  0.17300000000E+03 0.  1.
         -6    1    1    2    0  503  0.58076677044E+02  0.39233477490E+02  0.90528906629E+03  0.92433189911E+03  0.17300000000E+03 0.  1.
<mgrwt>
<rscale>  2 0.18665789E+03</rscale>
<asrwt>0</asrwt>
<pdfrwt beam="1">  1       21 0.26894062E+00 0.18665789E+03</pdfrwt>
<pdfrwt beam="2">  1       21 0.30729445E-02 0.18665789E+03</pdfrwt>
<totfact> 0.31516200E+04</totfact>
</mgrwt>
</event>
<event>
 4    1  0.4023583E+000  0.3563201E+03  0.7546771E-02  0.1060051E+00
         21   -1    0    0  501  502  0.00000000000E+00  0.00000000000E+00  0.57749387297E+03  0.57749387297E+03  0.00000000000E+00 0.  1.
         21   -1    0    0  502  503 -0.00000000000E+00 -0.00000000000E+00 -0.30574699075E+03  0.30574699075E+03  0.00000000000E+00 0.  1.
          6    1    1    2  501    0 -0.19146797487E+03  0.24571323463E+03  0.36994491834E+03  0.51363724717E+03  0.17300000000E+03 0.  1.
         -6    1    1    2    0  503  0.19146797487E+03 -0.24571323463E+03 -0.98198036116E+02  0.36960361655E+03  0.17300000000E+03 0.  1.
<mgrwt>
<rscale>  2 0.35632005E+03</rscale>
<asrwt>0</asrwt>
<pdfrwt beam="1">  1       21 0.88845212E-01 0.35632005E+03</pdfrwt>
<pdfrwt beam="2">  1       21 0.47037998E-01 0.35632005E+03</pdfrwt>
<totfact> 0.42500693E+03</totfact>
</mgrwt>
</event>
<event>
 4    1  0.4023583E+000  0.1887770E+03  0.7546771E-02  0.1159569E+00
         21   -1    0    0  501  502  0.00000000000E+00  0.00000000000E+00  0.36438145282E+03  0.36438145282E+03  0.00000000000E+00 0. -1.
         21   -1    0    0  502  503 -0.00000000000E+00 -0.00000000000E+00 -0.12229689027E+03  0.12229689027E+03  0.00000000000E+00 0. -1.
          6    1    1    2  501    0  0.75246862016E+02  0.67571901815E+01  0.12135764964E+02  0.18916666370E+03  0.17300000000E+03 0. -1.
         -6    1    1    2    0  503 -0.75246862016E+02 -0.67571901815E+01  0.22994879759E+03  0.29751167940E+03  0.17300000000E+03 0. -1.
<mgrwt>
<rscale>  2 0.18877698E+03</rscale>
<asrwt>0</asrwt>
<pdfrwt beam="1">  1       21 0.56058685E-01 0.18877698E+03</pdfrwt>
<pdfrwt beam="2">  1       21 0.18814906E-01 0.18877698E+03</pdfrwt>
<totfact> 0.77607289E+04</totfact>
</mgrwt>
</event>
<event>
 4    1  0.4023583E+000  0.2055947E+03  0.7546771E-02  0.1145103E+00
         21   -1    0    0  503  502  0.00000000000E+00  0.00000000000E+00  0.57993375212E+02  0.57993375212E+02  0.00000000000E+00 0.  1.
         21   -1    0    0  501  503 -0.00000000000E+00 -0.00000000000E+00 -0.14151310418E+04  0.14151310418E+04  0.00000000000E+00 0. -1.
          6    1    1    2  501    0  0.25774535925E+02  0.10805485119E+03 -0.11914990124E+04  0.12091067257E+04  0.17300000000E+03 0. -1.
         -6    1    1    2    0  502 -0.25774535925E+02 -0.10805485119E+03 -0.16563865420E+03  0.26401769132E+03  0.17300000000E+03 0.  1.
<mgrwt>
<rscale>  2 0.20559469E+03</rscale>
<asrwt>0</asrwt>
<pdfrwt beam="1">  1       21 0.89220582E-02 0.20559469E+03</pdfrwt>
<pdfrwt beam="2">  1       21 0.21771246E+00 0.20559469E+03</pdfrwt>
<totfact> 0.10191556E+04</totfact>
</mgrwt>
</event>
<event>
 4    1  0.4023583E+000  0.1755869E+03  0.7546771E-02  0.1172144E+00
         21   -1    0    0  503  502  0.00000000000E+00  0.00000000000E+00  0.75662437470E+02  0.75662437470E+02  0.00000000000E+00 0.  1.
         21   -1    0    0  501  503 -0.00000000000E+00 -0.00000000000E+00 -0.57507889101E+03  0.57507889101E+03  0.00000000000E+00 0.  1.
          6    1    1    2  501    0 -0.28263545385E+02  0.10145785308E+02 -0.74056235528E+02  0.19056518826E+03  0.17300000000E+03 0. -1.
         -6    1    1    2    0  502  0.28263545385E+02 -0.10145785308E+02 -0.42536021801E+03  0.46017614022E+03  0.17300000000E+03 0. -1.
<mgrwt>
<rscale>  2 0.17558692E+03</rscale>
<asrwt>0</asrwt>
<pdfrwt beam="1">  1       21 0.11640375E-01 0.17558692E+03</pdfrwt>
<pdfrwt beam="2">  1       21 0.88473673E-01 0.17558692E+03</pdfrwt>
<totfact> 0.68245744E+04</totfact>
</mgrwt>
</event>
<event>
 4    1  0.4023583E+000  0.1950416E+03  0.7546771E-02  0.1153991E+00
         21   -1    0    0  501  502  0.00000000000E+00  0.00000000000E+00  0.11079470042E+04  0.11079470042E+04  0.00000000000E+00 0.  1.
         21   -1    0    0  502  503 -0.00000000000E+00 -0.00000000000E+00 -0.57035874270E+02  0.57035874270E+02  0.00000000000E+00 0. -1.
          6    1    1    2  501    0  0.89331834180E+02  0.11492022758E+02  0.89293902687E+03  0.91399198513E+03  0.17300000000E+03 0.  1.
         -6    1    1    2    0  503 -0.89331834180E+02 -0.11492022758E+02  0.15797210303E+03  0.25099089330E+03  0.17300000000E+03 0. -1.
<mgrwt>
<rscale>  2 0.19504164E+03</rscale>
<asrwt>0</asrwt>
<pdfrwt beam="1">  1       21 0.17045337E+00 0.19504164E+03</pdfrwt>
<pdfrwt beam="2">  1       21 0.87747507E-02 0.19504164E+03</pdfrwt>
<totfact> 0.21595438E+04</totfact>
</mgrwt>
</event>
<event>
 4    1  0.4023583E+000  0.1927195E+03  0.7546771E-02  0.1156031E+00
         21   -1    0    0  503  502  0.00000000000E+00  0.00000000000E+00  0.91105809740E+02  0.91105809740E+02  0.00000000000E+00 0.  1.
         21   -1    0    0  501  503 -0.00000000000E+00 -0.00000000000E+00 -0.50708975653E+03  0.50708975653E+03  0.00000000000E+00 0. -1.
          6    1    1    2  501    0 -0.84374461511E+02  0.96305294661E+01 -0.34043055509E+03  0.39119529610E+03  0.17300000000E+03 0. -1.
         -6    1    1    2    0  502  0.84374461511E+02 -0.96305294661E+01 -0.75553391703E+02  0.20700027017E+03  0.17300000000E+03 0.  1.
<mgrwt>
<rscale>  2 0.19271948E+03</rscale>
<asrwt>0</asrwt>
<pdfrwt beam="1">  1       21 0.14016278E-01 0.19271948E+03</pdfrwt>
<pdfrwt beam="2">  1       21 0.78013809E-01 0.19271948E+03</pdfrwt>
<totfact> 0.64586553E+04</totfact>
</mgrwt>
</event>
<event>
 4    1  0.4023583E+000  0.1845142E+03  0.7546771E-02  0.1163504E+00
         21   -1    0    0  501  502  0.00000000000E+00  0.00000000000E+00  0.94830299450E+02  0.94830299450E+02  0.00000000000E+00 0. -1.
         21   -1    0    0  502  503 -0.00000000000E+00 -0.00000000000E+00 -0.68671495310E+03  0.68671495310E+03  0.00000000000E+00 0.  1.
          6    1    1    2  501    0  0.58318861111E+02  0.26746893082E+02 -0.25998021735E+02  0.18633674620E+03  0.17300000000E+03 0. -1.
         -6    1    1    2    0  503 -0.58318861111E+02 -0.26746893082E+02 -0.56588663192E+03  0.59520850635E+03  0.17300000000E+03 0.  1.
<mgrwt>
<rscale>  2 0.18451419E+03</rscale>
<asrwt>0</asrwt>
<pdfrwt beam="1">  1       21 0.14589277E-01 0.18451419E+03</pdfrwt>
<pdfrwt beam="2">  1       21 0.10564846E+00 0.18451419E+03</pdfrwt>
<totfact> 0.29840131E+04</totfact>
</mgrwt>
</event>
<event>
 4    1  0.4023583E+000  0.2390944E+03  0.7546771E-02  0.1120398E+00
         21   -1    0    0  503  502  0.00000000000E+00  0.00000000000E+00  0.35499454819E+03  0.35499454819E+03  0.00000000000E+00 0.  1.
         21   -1    0    0  501  503 -0.00000000000E+00 -0.00000000000E+00 -0.24292756149E+03  0.24292756149E+03  0.00000000000E+00 0. -1.
          6    1    1    2  501    0 -0.31849783971E+02  0.16193426811E+03  0.22961428708E+03  0.33149485178E+03  0.17300000000E+03 0.  1.
         -6    1    1    2    0  502  0.31849783971E+02 -0.16193426811E+03 -0.11754730037E+03  0.26642725790E+03  0.17300000000E+03 0. -1.
<mgrwt>
<rscale>  2 0.23909437E+03</rscale>
<asrwt>0</asrwt>
<pdfrwt beam="1">  1       21 0.54614546E-01 0.23909437E+03</pdfrwt>
<pdfrwt beam="2">  1       21 0.37373471E-01 0.23909437E+03</pdfrwt>
<totfact> 0.21306970E+04</totfact>
</mgrwt>
</event>
<event>
 4    1  0.4023583E+000  0.1910650E+03  0.7546771E-02  0.1157504E+00
         21   -1    0    0  503  502  0.00000000000E+00  0.00000000000E+00  0.80185298495E+03  0.80185298495E+03  0.00000000000E+00 0. -1.
         21   -1    0    0  501  503 -0.00000000000E+00 -0.00000000000E+00 -0.13857352518E+03  0.13857352518E+03  0.00000000000E+00 0. -1.
          6    1    1    2  501    0  0.47721287013E+02 -0.65570626608E+02 -0.53665762883E+02  0.19845866676E+03  0.17300000000E+03 0. -1.
         -6    1    1    2    0  502 -0.47721287013E+02  0.65570626608E+02  0.71694522265E+03  0.74196784337E+03  0.17300000000E+03 0. -1.
<mgrwt>
<rscale>  2 0.19106498E+03</rscale>
<asrwt>0</asrwt>
<pdfrwt beam="1">  1       21 0.12336200E+00 0.19106498E+03</pdfrwt>
<pdfrwt beam="2">  1       21 0.21319004E-01 0.19106498E+03</pdfrwt>
<totfact> 0.10108763E+04</totfact>
</mgrwt>
</event>
<event>
 4    1  0.4023583E+000  0.1748503E+03  0.7546771E-02  0.1172882E+00
         21   -1    0    0  503  502  0.00000000000E+00  0.00000000000E+00  0.37234764362E+03  0.37234764362E+03  0.00000000000E+00 0. -1.
         21   -1    0    0  501  503 -0.00000000000E+00 -0.00000000000E+00 -0.13625816341E+03  0.13625816341E+03  0.00000000000E+00 0. -1.
          6    1    1    2  501    0  0.22848606672E+02 -0.11025286261E+02 -0.42269117711E+02  0.17988689245E+03  0.17300000000E+03 0. -1.
         -6    1    1    2    0  502 -0.22848606672E+02  0.11025286261E+02  0.27835859792E+03  0.32871891458E+03  0.17300000000E+03 0. -1.
<mgrwt>
<rscale>  2 0.17485027E+03</rscale>
<asrwt>0</asrwt>
<pdfrwt beam="1">  1       21 0.57284252E-01 0.17485027E+03</pdfrwt>
<pdfrwt beam="2">  1       21 0.20962795E-01 0.17485027E+03</pdfrwt>
<totfact> 0.60966666E+04</totfact>
</mgrwt>
</event>
<event>
 4    1  0.4023583E+000  0.1769980E+03  0.7546771E-02  0.1170740E+00
         21   -1    0    0  503  502  0.00000000000E+00  0.00000000000E+00  0.53608451396E+02  0.53608451396E+02  0.00000000000E+00 0. -1.
         21   -1    0    0  501  503 -0.00000000000E+00 -0.00000000000E+00 -0.82326213624E+03  0.82326213624E+03  0.00000000000E+00 0. -1.
          6    1    1    2  501    0 -0.10344532587E+02 -0.35948395180E+02 -0.62099333247E+03  0.64572518569E+03  0.17300000000E+03 0.  1.
         -6    1    1    2    0  502  0.10344532587E+02  0.35948395180E+02 -0.14866035238E+03  0.23114540194E+03  0.17300000000E+03 0.  1.
<mgrwt>
<rscale>  2 0.17699801E+03</rscale>
<asrwt>0</asrwt>
<pdfrwt beam="1">  1       21 0.82474541E-02 0.17699801E+03</pdfrwt>
<pdfrwt beam="2">  1       21 0.12665571E+00 0.17699801E+03</pdfrwt>
<totfact> 0.52956531E+04</totfact>
</mgrwt>
</event>
<event>
 4    1  0.4023583E+000  0.2191289E+03  0.7546771E-02  0.1134534E+00
         21   -1    0    0  501  502  0.00000000000E+00  0.00000000000E+00  0.31540964775E+03  0.31540964775E+03  0.00000000000E+00 0. -1.
         21   -1    0    0  502  503 -0.00000000000E+00 -0.00000000000E+00 -0.30818837515E+03  0.30818837515E+03  0.00000000000E+00 0. -1.
          6    1    1    2  501    0 -0.77413120665E+02  0.10998046559E+03  0.22540939561E+03  0.31436744375E+03  0.17300000000E+03 0. -1.
         -6    1    1    2    0  503  0.77413120665E+02 -0.10998046559E+03 -0.21818812300E+03  0.30923057915E+03  0.17300000000E+03 0. -1.
<mgrwt>
<rscale>  2 0.21912894E+03</rscale>
<asrwt>0</asrwt>
<pdfrwt beam="1">  1       21 0.48524561E-01 0.21912894E+03</pdfrwt>
<pdfrwt beam="2">  1       21 0.47413596E-01 0.21912894E+03</pdfrwt>
<totfact> 0.16981935E+04</totfact>
</mgrwt>
</event>
<event>
 4    1  0.4023583E+000  0.1985537E+03  0.7546771E-02  0.1150965E+00
         21   -1    0    0  501  502  0.00000000000E+00  0.00000000000E+00  0.12681830007E+03  0.12681830007E+03  0.00000000000E+00 0. -1.
         21   -1    0    0  502  503 -0.00000000000E+00 -0.00000000000E+00 -0.31214484992E+03  0.31214484992E+03  0.00000000000E+00 0. -1.
          6    1    1    2  501    0  0.24885618810E+02 -0.94208781950E+02 -0.10670782921E+03  0.22541106768E+03  0.17300000000E+03 0. -1.
         -6    1    1    2    0  503 -0.24885618810E+02  0.94208781950E+02 -0.78618720645E+02  0.21355208230E+03  0.17300000000E+03 0. -1.
<mgrwt>
<rscale>  2 0.19855374E+03</rscale>
<asrwt>0</asrwt>
<pdfrwt beam="1">  1       21 0.19510508E-01 0.19855374E+03</pdfrwt>
<pdfrwt beam="2">  1       21 0.48022284E-01 0.19855374E+03</pdfrwt>
<totfact> 0.99942434E+04</totfact>
</mgrwt>
</event>
<event>
 4    1  0.4023583E+000  0.2214719E+03  0.7546771E-02  0.1132790E+00
         21   -1    0    0  501  502  0.00000000000E+00  0.00000000000E+00  0.32728639468E+03  0.32728639468E+03  0.00000000000E+00 0.  1.
         21   -1    0    0  502  503 -0.00000000000E+00 -0.00000000000E+00 -0.37734545536E+03  0.37734545536E+03  0.00000000000E+00 0.  1.
          6    1    1    2  501    0  0.65262289095E+02 -0.12190831700E+03  0.24851734396E+03  0.33288237319E+03  0.17300000000E+03 0.  1.
         -6    1    1    2    0  503 -0.65262289095E+02  0.12190831700E+03 -0.29857640464E+03  0.37174947685E+03  0.17300000000E+03 0.  1.
<mgrwt>
<rscale>  2 0.22147190E+03</rscale>
<asrwt>0</asrwt>
<pdfrwt beam="1">  1       21 0.50351753E-01 0.22147190E+03</pdfrwt>
<pdfrwt beam="2">  1       21 0.58053147E-01 0.22147190E+03</pdfrwt>
<totfact> 0.10245268E+04</totfact>
</mgrwt>
</event>
<event>
 4    1  0.4023583E+000  0.2091847E+03  0.7546771E-02  0.1142213E+00
         21   -1    0    0  501  502  0.00000000000E+00  0.00000000000E+00  0.50577659216E+03  0.50577659216E+03  0.00000000000E+00 0. -1.
         21   -1    0    0  502  503 -0.00000000000E+00 -0.00000000000E+00 -0.97431998007E+02  0.97431998007E+02  0.00000000000E+00 0.  1.
          6    1    1    2  501    0 -0.56408695181E+02  0.10318581402E+03  0.30512067552E+03  0.36994172479E+03  0.17300000000E+03 0. -1.
         -6    1    1    2    0  503  0.56408695181E+02 -0.10318581402E+03  0.10322391863E+03  0.23326686538E+03  0.17300000000E+03 0.  1.
<mgrwt>
<rscale>  2 0.20918473E+03</rscale>
<asrwt>0</asrwt>
<pdfrwt beam="1">  1       21 0.77811782E-01 0.20918473E+03</pdfrwt>
<pdfrwt beam="2">  1       21 0.14989538E-01 0.20918473E+03</pdfrwt>
<totfact> 0.57052793E+04</totfact>
</mgrwt>
</event>
<event>
 4    1  0.4023583E+000  0.1854185E+03  0.7546771E-02  0.1162660E+00
         21   -1    0    0  503  502  0.00000000000E+00  0.00000000000E+00  0.88630081293E+03  0.88630081293E+03  0.00000000000E+00 0. -1.
         21   -1    0    0  501  503 -0.00000000000E+00 -0.00000000000E+00 -0.40965951158E+02  0.40965951158E+02  0.00000000000E+00 0. -1.
          6    1    1    2  501    0  0.20449302849E+02 -0.63504548882E+02  0.31582507082E+03  0.36623145288E+03  0.17300000000E+03 0. -1.
         -6    1    1    2    0  502 -0.20449302849E+02  0.63504548882E+02  0.52950979095E+03  0.56103531121E+03  0.17300000000E+03 0. -1.
<mgrwt>
<rscale>  2 0.18541845E+03</rscale>
<asrwt>0</asrwt>
<pdfrwt beam="1">  1       21 0.13635396E+00 0.18541845E+03</pdfrwt>
<pdfrwt beam="2">  1       21 0.63024547E-02 0.18541845E+03</pdfrwt>
<totfact> 0.69658913E+04</totfact>
</mgrwt>
</event>
<event>
 4    1  0.4023583E+000  0.1843926E+03  0.7546771E-02  0.1163618E+00
         21   -1    0    0  503  502  0.00000000000E+00  0.00000000000E+00  0.17116109527E+03  0.17116109527E+03  0.00000000000E+00 0. -1.
         21   -1    0    0  501  503 -0.00000000000E+00 -0.00000000000E+00 -0.19923082997E+03  0.19923082997E+03  0.00000000000E+00 0. -1.
          6    1    1    2  501    0 -0.62944495291E+02  0.10469666270E+02 -0.24060882532E+02  0.18595577288E+03  0.17300000000E+03 0. -1.
         -6    1    1    2    0  502  0.62944495291E+02 -0.10469666270E+02 -0.40088521668E+01  0.18443615235E+03  0.17300000000E+03 0. -1.
<mgrwt>
<rscale>  2 0.18439258E+03</rscale>
<asrwt>0</asrwt>
<pdfrwt beam="1">  1       21 0.26332476E-01 0.18439258E+03</pdfrwt>
<pdfrwt beam="2">  1       21 0.30650897E-01 0.18439258E+03</pdfrwt>
<totfact> 0.14051980E+05</totfact>
</mgrwt>
</event>
<event>
 4    1  0.4023583E+000  0.1777007E+03  0.7546771E-02  0.1170047E+00
         21   -1    0    0  503  502  0.00000000000E+00  0.00000000000E+00  0.42182090784E+03  0.42182090784E+03  0.00000000000E+00 0.  1.
         21   -1    0    0  501  503 -0.00000000000E+00 -0.00000000000E+00 -0.13803479477E+03  0.13803479477E+03  0.00000000000E+00 0.  1.
          6    1    1    2  501    0 -0.35914428941E+02 -0.18938956113E+02 -0.47482361324E+02  0.18393505621E+03  0.17300000000E+03 0.  1.
         -6    1    1    2    0  502  0.35914428941E+02  0.18938956113E+02  0.33126847440E+03  0.37592064641E+03  0.17300000000E+03 0.  1.
<mgrwt>
<rscale>  2 0.17770068E+03</rscale>
<asrwt>0</asrwt>
<pdfrwt beam="1">  1       21 0.64895524E-01 0.17770068E+03</pdfrwt>
<pdfrwt beam="2">  1       21 0.21236122E-01 0.17770068E+03</pdfrwt>
<totfact> 0.45453988E+04</totfact>
</mgrwt>
</event>
<event>
 4    1  0.4023583E+000  0.2165958E+03  0.7546771E-02  0.1136447E+00
         21   -1    0    0  501  502  0.00000000000E+00  0.00000000000E+00  0.95900873567E+02  0.95900873567E+02  0.00000000000E+00 0. -1.
         21   -1    0    0  502  503 -0.00000000000E+00 -0.00000000000E+00 -0.91902755174E+03  0.91902755174E+03  0.00000000000E+00 0. -1.
          6    1    1    2  501    0  0.42660122325E+02 -0.12314560566E+03 -0.64512220818E+02  0.22599901076E+03  0.17300000000E+03 0. -1.
         -6    1    1    2    0  503 -0.42660122325E+02  0.12314560566E+03 -0.75861445735E+03  0.78892941454E+03  0.17300000000E+03 0. -1.
<mgrwt>
<rscale>  2 0.21659577E+03</rscale>
<asrwt>0</asrwt>
<pdfrwt beam="1">  1       21 0.14753981E-01 0.21659577E+03</pdfrwt>
<pdfrwt beam="2">  1       21 0.14138885E+00 0.21659577E+03</pdfrwt>
<totfact> 0.13870699E+04</totfact>
</mgrwt>
</event>
<event>
 4    1  0.4023583E+000  0.2510346E+03  0.7546771E-02  0.1112653E+00
         21   -1    0    0  501  502  0.00000000000E+00  0.00000000000E+00  0.12075102898E+03  0.12075102898E+03  0.00000000000E+00 0. -1.
         21   -1    0    0  502  503 -0.00000000000E+00 -0.00000000000E+00 -0.58207135387E+03  0.58207135387E+03  0.00000000000E+00 0.  1.
          6    1    1    2  501    0 -0.17829109252E+03  0.36078139033E+02 -0.34365813858E+03  0.42558108745E+03  0.17300000000E+03 0.  1.
         -6    1    1    2    0  503  0.17829109252E+03 -0.36078139033E+02 -0.11766218631E+03  0.27724129540E+03  0.17300000000E+03 0. -1.
<mgrwt>
<rscale>  2 0.25103455E+03</rscale>
<asrwt>0</asrwt>
<pdfrwt beam="1">  1       21 0.18577082E-01 0.25103455E+03</pdfrwt>
<pdfrwt beam="2">  1       21 0.89549438E-01 0.25103455E+03</pdfrwt>
<totfact> 0.27300263E+04</totfact>
</mgrwt>
</event>
<event>
 4    1  0.4023583E+000  0.1852631E+03  0.7546771E-02  0.1162804E+00
         21   -1    0    0  501  502  0.00000000000E+00  0.00000000000E+00  0.44783248550E+02  0.44783248550E+02  0.00000000000E+00 0. -1.
         21   -1    0    0  502  503 -0.00000000000E+00 -0.00000000000E+00 -0.12409797699E+04  0.12409797699E+04  0.00000000000E+00 0. -1.
          6    1    1    2  501    0  0.57897112265E+02 -0.32269651344E+02 -0.20054269547E+03  0.27301974052E+03  0.17300000000E+03 0. -1.
         -6    1    1    2    0  503 -0.57897112265E+02  0.32269651344E+02 -0.99565382593E+03  0.10127432780E+04  0.17300000000E+03 0. -1.
<mgrwt>
<rscale>  2 0.18526307E+03</rscale>
<asrwt>0</asrwt>
<pdfrwt beam="1">  1       21 0.68897295E-02 0.18526307E+03</pdfrwt>
<pdfrwt beam="2">  1       21 0.19091999E+00 0.18526307E+03</pdfrwt>
<totfact> 0.24041168E+04</totfact>
</mgrwt>
</event>
<event>
 4    1  0.4023583E+000  0.2544933E+03  0.7546771E-02  0.1110498E+00
         21   -1    0    0  501  502  0.00000000000E+00  0.00000000000E+00  0.15361373757E+04  0.15361373757E+04  0.00000000000E+00 0.  1.
         21   -1    0    0  502  503 -0.00000000000E+00 -0.00000000000E+00 -0.90428949182E+02  0.90428949182E+02  0.00000000000E+00 0.  1.
          6    1    1    2  501    0 -0.16564949583E+03  0.86012020674E+02  0.13170264846E+04  0.13413894230E+04  0.17300000000E+03 0.  1.
         -6    1    1    2    0  503  0.16564949583E+03 -0.86012020674E+02  0.12868194196E+03  0.28517690186E+03  0.17300000000E+03 0.  1.
<mgrwt>
<rscale>  2 0.25449327E+03</rscale>
<asrwt>0</asrwt>
<pdfrwt beam="1">  1       21 0.23632881E+00 0.25449327E+03</pdfrwt>
<pdfrwt beam="2">  1       21 0.13912147E-01 0.25449327E+03</pdfrwt>
<totfact> 0.34031959E+03</totfact>
</mgrwt>
</event>
<event>
 4    1  0.4023583E+000  0.2078858E+03  0.7546771E-02  0.1143251E+00
         21   -1    0    0  501  502  0.00000000000E+00  0.00000000000E+00  0.47714526581E+02  0.47714526581E+02  0.00000000000E+00 0.  1.
         21   -1    0    0  502  503 -0.00000000000E+00 -0.00000000000E+00 -0.12020460298E+04  0.12020460298E+04  0.00000000000E+00 0. -1.
          6    1    1    2  501    0  0.67170374450E+02 -0.93678408599E+02 -0.26691456319E+03  0.33831920945E+03  0.17300000000E+03 0.  1.
         -6    1    1    2    0  503 -0.67170374450E+02  0.93678408599E+02 -0.88741694001E+03  0.91144134691E+03  0.17300000000E+03 0. -1.
<mgrwt>
<rscale>  2 0.20788579E+03</rscale>
<asrwt>0</asrwt>
<pdfrwt beam="1">  1       21 0.73406958E-02 0.20788579E+03</pdfrwt>
<pdfrwt beam="2">  1       21 0.18493017E+00 0.20788579E+03</pdfrwt>
<totfact> 0.23231557E+04</totfact>
</mgrwt>
</event>
<event>
 4    1  0.4023583E+000  0.2112538E+03  0.7546771E-02  0.1140577E+00
         21   -1    0    0  503  502  0.00000000000E+00  0.00000000000E+00  0.13807646521E+03  0.13807646521E+03  0.00000000000E+00 0. -1.
         21   -1    0    0  501  503 -0.00000000000E+00 -0.00000000000E+00 -0.33838811664E+03  0.33838811664E+03  0.00000000000E+00 0. -1.
          6    1    1    2  501    0 -0.31582239543E+02 -0.11705445758E+03 -0.15060467749E+03  0.25944161728E+03  0.17300000000E+03 0. -1.
         -6    1    1    2    0  502  0.31582239543E+02  0.11705445758E+03 -0.49706973929E+02  0.21702296457E+03  0.17300000000E+03 0. -1.
<mgrwt>
<rscale>  2 0.21125384E+03</rscale>
<asrwt>0</asrwt>
<pdfrwt beam="1">  1       21 0.21242534E-01 0.21125384E+03</pdfrwt>
<pdfrwt beam="2">  1       21 0.52059709E-01 0.21125384E+03</pdfrwt>
<totfact> 0.71615254E+04</totfact>
</mgrwt>
</event>
<event>
 4    1  0.4023583E+000  0.2753348E+03  0.7546771E-02  0.1098265E+00
         21   -1    0    0  503  502  0.00000000000E+00  0.00000000000E+00  0.89215371126E+03  0.89215371126E+03  0.00000000000E+00 0. -1.
         21   -1    0    0  501  503 -0.00000000000E+00 -0.00000000000E+00 -0.26444227248E+03  0.26444227248E+03  0.00000000000E+00 0.  1.
          6    1    1    2  501    0 -0.18629181903E+03  0.10571472787E+03 -0.16255434909E+03  0.31973920925E+03  0.17300000000E+03 0.  1.
         -6    1    1    2    0  502  0.18629181903E+03 -0.10571472787E+03  0.79026578786E+03  0.83685677448E+03  0.17300000000E+03 0. -1.
<mgrwt>
<rscale>  2 0.27533479E+03</rscale>
<asrwt>0</asrwt>
<pdfrwt beam="1">  1       21 0.13725442E+00 0.27533479E+03</pdfrwt>
<pdfrwt beam="2">  1       21 0.40683427E-01 0.27533479E+03</pdfrwt>
<totfact> 0.20523102E+03</totfact>
</mgrwt>
</event>
<event>
 4    1  0.4023583E+000  0.1795805E+03  0.7546771E-02  0.1168210E+00
         21   -1    0    0  501  502  0.00000000000E+00  0.00000000000E+00  0.27398505133E+03  0.27398505133E+03  0.00000000000E+00 0.  1.
         21   -1    0    0  502  503 -0.00000000000E+00 -0.00000000000E+00 -0.12060853667E+03  0.12060853667E+03  0.00000000000E+00 0. -1.
          6    1    1    2  501    0  0.19523344597E+02 -0.44034128800E+02  0.46071335704E+02  0.18539615276E+03  0.17300000000E+03 0. -1.
         -6    1    1    2    0  503 -0.19523344597E+02  0.44034128800E+02  0.10730517895E+03  0.20919743525E+03  0.17300000000E+03 0.  1.
<mgrwt>
<rscale>  2 0.17958053E+03</rscale>
<asrwt>0</asrwt>
<pdfrwt beam="1">  1       21 0.42151546E-01 0.17958053E+03</pdfrwt>
<pdfrwt beam="2">  1       21 0.18555160E-01 0.17958053E+03</pdfrwt>
<totfact> 0.14437092E+05</totfact>
</mgrwt>
</event>
<event>
 4    1  0.4023583E+000  0.2051070E+03  0.7546771E-02  0.1145500E+00
         21   -1    0    0  503  502  0.00000000000E+00  0.00000000000E+00  0.35246517847E+03  0.35246517847E+03  0.00000000000E+00 0.  1.
         21   -1    0    0  501  503 -0.00000000000E+00 -0.00000000000E+00 -0.34577434403E+03  0.34577434403E+03  0.00000000000E+00 0. -1.
          6    1    1    2  501    0  0.69367188505E+02  0.85604182022E+02 -0.27916451469E+03  0.34641262836E+03  0.17300000000E+03 0. -1.
         -6    1    1    2    0  502 -0.69367188505E+02 -0.85604182022E+02  0.28585534913E+03  0.35182689415E+03  0.17300000000E+03 0.  1.
<mgrwt>
<rscale>  2 0.20510700E+03</rscale>
<asrwt>0</asrwt>
<pdfrwt beam="1">  1       21 0.54225412E-01 0.20510700E+03</pdfrwt>
<pdfrwt beam="2">  1       21 0.53196053E-01 0.20510700E+03</pdfrwt>
<totfact> 0.10665773E+04</totfact>
</mgrwt>
</event>
<event>
 4    1  0.4023583E+000  0.2166044E+03  0.7546771E-02  0.1136440E+00
         21   -1    0    0  501  502  0.00000000000E+00  0.00000000000E+00  0.56553844416E+03  0.56553844416E+03  0.00000000000E+00 0.  1.
         21   -1    0    0  502  503 -0.00000000000E+00 -0.00000000000E+00 -0.97010636224E+02  0.97010636224E+02  0.00000000000E+00 0.  1.
          6    1    1    2  501    0  0.12263078497E+03 -0.44160601242E+02  0.36033498594E+03  0.42042689045E+03  0.17300000000E+03 0.  1.
         -6    1    1    2    0  503 -0.12263078497E+03  0.44160601242E+02  0.10819282199E+03  0.24212218993E+03  0.17300000000E+03 0.  1.
<mgrwt>
<rscale>  2 0.21660440E+03</rscale>
<asrwt>0</asrwt>
<pdfrwt beam="1">  1       21 0.87005912E-01 0.21660440E+03</pdfrwt>
<pdfrwt beam="2">  1       21 0.14924714E-01 0.21660440E+03</pdfrwt>
<totfact> 0.44425594E+04</totfact>
</mgrwt>
</event>
<event>
 4    1  0.4023583E+000  0.1897753E+03  0.7546771E-02  0.1158664E+00
         21   -1    0    0  501  502  0.00000000000E+00  0.00000000000E+00  0.21848591185E+03  0.21848591185E+03  0.00000000000E+00 0. -1.
         21   -1    0    0  502  503 -0.00000000000E+00 -0.00000000000E+00 -0.17588521886E+03  0.17588521886E+03  0.00000000000E+00 0. -1.
          6    1    1    2  501    0  0.57415270214E+02  0.52812408548E+02  0.70719744633E+02  0.20252393940E+03  0.17300000000E+03 0. -1.
         -6    1    1    2    0  503 -0.57415270214E+02 -0.52812408548E+02 -0.28119051643E+02  0.19184719132E+03  0.17300000000E+03 0. -1.
<mgrwt>
<rscale>  2 0.18977530E+03</rscale>
<asrwt>0</asrwt>
<pdfrwt beam="1">  1       21 0.33613217E-01 0.18977530E+03</pdfrwt>
<pdfrwt beam="2">  1       21 0.27059264E-01 0.18977530E+03</pdfrwt>
<totfact> 0.11106706E+05</totfact>
</mgrwt>
</event>
<event>
 4    1  0.4023583E+000  0.3468068E+03  0.7546771E-02  0.1063933E+00
         21   -1    0    0  501  502  0.00000000000E+00  0.00000000000E+00  0.22775290442E+04  0.22775290442E+04  0.00000000000E+00 0.  1.
         21   -1    0    0  502  503 -0.00000000000E+00 -0.00000000000E+00 -0.77137684898E+02  0.77137684898E+02  0.00000000000E+00 0. -1.
          6    1    1    2  501    0  0.15822781112E+03  0.25555807024E+03  0.17613788633E+04  0.17951964983E+04  0.17300000000E+03 0.  1.
         -6    1    1    2    0  503 -0.15822781112E+03 -0.25555807024E+03  0.43901249593E+03  0.55947023072E+03  0.17300000000E+03 0. -1.
<mgrwt>
<rscale>  2 0.34680682E+03</rscale>
<asrwt>0</asrwt>
<pdfrwt beam="1">  1       21 0.35038903E+00 0.34680682E+03</pdfrwt>
<pdfrwt beam="2">  1       21 0.11867338E-01 0.34680682E+03</pdfrwt>
<totfact> 0.88385093E+02</totfact>
</mgrwt>
</event>
<event>
 4    1  0.4023583E+000  0.1928180E+03  0.7546771E-02  0.1155944E+00
         21   -1    0    0  503  502  0.00000000000E+00  0.00000000000E+00  0.10686173549E+03  0.10686173549E+03  0.00000000000E+00 0.  1.
         21   -1    0    0  501  503 -0.00000000000E+00 -0.00000000000E+00 -0.63372384996E+03  0.63372384996E+03  0.00000000000E+00 0.  1.
          6    1    1    2  501    0 -0.83078922116E+02 -0.18645721104E+02 -0.51210672118E+03  0.54720385972E+03  0.17300000000E+03 0.  1.
         -6    1    1    2    0  502  0.83078922116E+02  0.18645721104E+02 -0.14755393281E+02  0.19338172573E+03  0.17300000000E+03 0.  1.
<mgrwt>
<rscale>  2 0.19281797E+03</rscale>
<asrwt>0</asrwt>
<pdfrwt beam="1">  1       21 0.16440267E-01 0.19281797E+03</pdfrwt>
<pdfrwt beam="2">  1       21 0.97495978E-01 0.19281797E+03</pdfrwt>
<totfact> 0.28916326E+04</totfact>
</mgrwt>
</event>
<event>
 4    1  0.4023583E+000  0.1852585E+03  0.7546771E-02  0.1162809E+00
         21   -1    0    0  503  502  0.00000000000E+00  0.00000000000E+00  0.17314164085E+03  0.17314164085E+03  0.00000000000E+00 0. -1.
         21   -1    0    0  501  503 -0.00000000000E+00 -0.00000000000E+00 -0.21757992230E+03  0.21757992230E+03  0.00000000000E+00 0. -1.
          6    1    1    2  501    0  0.66264634884E+02 -0.84752316756E+00 -0.80488727658E+02  0.20198800809E+03  0.17300000000E+03 0. -1.
         -6    1    1    2    0  502 -0.66264634884E+02  0.84752316756E+00  0.36050446209E+02  0.18873355505E+03  0.17300000000E+03 0. -1.
<mgrwt>
<rscale>  2 0.18525852E+03</rscale>
<asrwt>0</asrwt>
<pdfrwt beam="1">  1       21 0.26637176E-01 0.18525852E+03</pdfrwt>
<pdfrwt beam="2">  1       21 0.33473834E-01 0.18525852E+03</pdfrwt>
<totfact> 0.11560029E+05</totfact>
</mgrwt>
</event>
<event>
 4    1  0.4023583E+000  0.2377201E+03  0.7546771E-02  0.1121321E+00
         21   -1    0    0  503  502  0.00000000000E+00  0.00000000000E+00  0.66186003887E+02  0.66186003887E+02  0.00000000000E+00 0. -1.
         21   -1    0    0  501  503 -0.00000000000E+00 -0.00000000000E+00 -0.85398612549E+03  0.85398612549E+03  0.00000000000E+00 0. -1.
          6    1    1    2  501    0 -0.90071993044E+02  0.13590026402E+03 -0.38745739339E+03  0.45457021172E+03  0.17300000000E+03 0. -1.
         -6    1    1    2    0  502  0.90071993044E+02 -0.13590026402E+03 -0.40034272821E+03  0.46560191765E+03  0.17300000000E+03 0. -1.
<mgrwt>
<rscale>  2 0.23772010E+03</rscale>
<asrwt>0</asrwt>
<pdfrwt beam="1">  1       21 0.10182463E-01 0.23772010E+03</pdfrwt>
<pdfrwt beam="2">  1       21 0.13138247E+00 0.23772010E+03</pdfrwt>
<totfact> 0.32257778E+04</totfact>
</mgrwt>
</event>
<event>
 4    1  0.4023583E+000  0.1930945E+03  0.7546771E-02  0.1155700E+00
         21   -1    0    0  503  502  0.00000000000E+00  0.00000000000E+00  0.15872370840E+03  0.15872370840E+03  0.00000000000E+00 0. -1.
         21   -1    0    0  501  503 -0.00000000000E+00 -0.00000000000E+00 -0.91046475002E+03  0.91046475002E+03  0.00000000000E+00 0. -1.
          6    1    1    2  501    0 -0.21108802783E+02  0.83131882895E+02 -0.83636409184E+03  0.85836494897E+03  0.17300000000E+03 0. -1.
         -6    1    1    2    0  502  0.21108802783E+02 -0.83131882895E+02  0.84623050210E+02  0.21082350945E+03  0.17300000000E+03 0. -1.
<mgrwt>
<rscale>  2 0.19309451E+03</rscale>
<asrwt>0</asrwt>
<pdfrwt beam="1">  1       21 0.24419032E-01 0.19309451E+03</pdfrwt>
<pdfrwt beam="2">  1       21 0.14007150E+00 0.19309451E+03</pdfrwt>
<totfact> 0.56593143E+03</totfact>
</mgrwt>
</event>
<event>
 4    1  0.4023583E+000  0.2678974E+03  0.7546771E-02  0.1102489E+00
         21   -1    0    0  501  502  0.00000000000E+00  0.00000000000E+00  0.10491935961E+04  0.10491935961E+04  0.00000000000E+00 0.  1.
         21   -1    0    0  502  503 -0.00000000000E+00 -0.00000000000E+00 -0.11264942831E+03  0.11264942831E+03  0.00000000000E+00 0. -1.
          6    1    1    2  501    0 -0.19038886826E+03 -0.74780367794E+02  0.83234404344E+03  0.87439443686E+03  0.17300000000E+03 0.  1.
         -6    1    1    2    0  503  0.19038886826E+03  0.74780367794E+02  0.10420012433E+03  0.28744858753E+03  0.17300000000E+03 0. -1.
<mgrwt>
<rscale>  2 0.26789741E+03</rscale>
<asrwt>0</asrwt>
<pdfrwt beam="1">  1       21 0.16141439E+00 0.26789741E+03</pdfrwt>
<pdfrwt beam="2">  1       21 0.17330682E-01 0.26789741E+03</pdfrwt>
<totfact> 0.70166241E+03</totfact>
</mgrwt>
</event>
<event>
 4    1  0.4023583E+000  0.2345719E+03  0.7546771E-02  0.1123463E+00
         21   -1    0    0  501  502  0.00000000000E+00  0.00000000000E+00  0.35571705869E+03  0.35571705869E+03  0.00000000000E+00 0.  1.
         21   -1    0    0  502  503 -0.00000000000E+00 -0.00000000000E+00 -0.15585562612E+03  0.15585562612E+03  0.00000000000E+00 0. -1.
          6    1    1    2  501    0 -0.15837617724E+03  0.34554946871E+01  0.12210235664E+03  0.26444836822E+03  0.17300000000E+03 0. -1.
         -6    1    1    2    0  503  0.15837617724E+03 -0.34554946871E+01  0.77759075932E+02  0.24712431659E+03  0.17300000000E+03 0.  1.
<mgrwt>
<rscale>  2 0.23457185E+03</rscale>
<asrwt>0</asrwt>
<pdfrwt beam="1">  1       21 0.54725701E-01 0.23457185E+03</pdfrwt>
<pdfrwt beam="2">  1       21 0.23977789E-01 0.23457185E+03</pdfrwt>
<totfact> 0.50713726E+04</totfact>
</mgrwt>
</event>
<event>
 4    1  0.4023583E+000  0.2205662E+03  0.7546771E-02  0.1133462E+00
         21   -1    0    0  503  502  0.00000000000E+00  0.00000000000E+00  0.29160208687E+03  0.29160208687E+03  0.00000000000E+00 0. -1.
         21   -1    0    0  501  503 -0.00000000000E+00 -0.00000000000E+00 -0.17611327222E+03  0.17611327222E+03  0.00000000000E+00 0.  1.
          6    1    1    2  501    0  0.96364059241E+02  0.97130983479E+02  0.11142126521E+03  0.24711163106E+03  0.17300000000E+03 0. -1.
         -6    1    1    2    0  502 -0.96364059241E+02 -0.97130983479E+02  0.40675494390E+01  0.22060372804E+03  0.17300000000E+03 0.  1.
<mgrwt>
<rscale>  2 0.22056623E+03</rscale>
<asrwt>0</asrwt>
<pdfrwt beam="1">  1       21 0.44861859E-01 0.22056623E+03</pdfrwt>
<pdfrwt beam="2">  1       21 0.27094350E-01 0.22056623E+03</pdfrwt>
<totfact> 0.61133800E+04</totfact>
</mgrwt>
</event>
<event>
 4    1  0.4023583E+000  0.2807683E+03  0.7546771E-02  0.1095270E+00
         21   -1    0    0  503  502  0.00000000000E+00  0.00000000000E+00  0.66397264807E+02  0.66397264807E+02  0.00000000000E+00 0. -1.
         21   -1    0    0  501  503 -0.00000000000E+00 -0.00000000000E+00 -0.11980489643E+04  0.11980489643E+04  0.00000000000E+00 0. -1.
          6    1    1    2  501    0 -0.17620066812E+03 -0.13362317790E+03 -0.62582141848E+03  0.68591783542E+03  0.17300000000E+03 0. -1.
         -6    1    1    2    0  502  0.17620066812E+03  0.13362317790E+03 -0.50583028105E+03  0.57852839372E+03  0.17300000000E+03 0. -1.
<mgrwt>
<rscale>  2 0.28076828E+03</rscale>
<asrwt>0</asrwt>
<pdfrwt beam="1">  1       21 0.10214964E-01 0.28076828E+03</pdfrwt>
<pdfrwt beam="2">  1       21 0.18431522E+00 0.28076828E+03</pdfrwt>
<totfact> 0.12540261E+04</totfact>
</mgrwt>
</event>
<event>
 4    1  0.4023583E+000  0.1855487E+03  0.7546771E-02  0.1162539E+00
         21   -1    0    0  503  502  0.00000000000E+00  0.00000000000E+00  0.17520377541E+04  0.17520377541E+04  0.00000000000E+00 0.  1.
         21   -1    0    0  501  503 -0.00000000000E+00 -0.00000000000E+00 -0.20344858134E+02  0.20344858134E+02  0.00000000000E+00 0. -1.
          6    1    1    2  501    0  0.17556735160E+02  0.64738454826E+02  0.10295702419E+04  0.10461563886E+04  0.17300000000E+03 0.  1.
         -6    1    1    2    0  502 -0.17556735160E+02 -0.64738454826E+02  0.70212265403E+03  0.72622622356E+03  0.17300000000E+03 0. -1.
<mgrwt>
<rscale>  2 0.18554866E+03</rscale>
<asrwt>0</asrwt>
<pdfrwt beam="1">  1       21 0.26954415E+00 0.18554866E+03</pdfrwt>
<pdfrwt beam="2">  1       21 0.31299796E-02 0.18554866E+03</pdfrwt>
<totfact> 0.30356088E+04</totfact>
</mgrwt>
</event>
<event>
 4    1  0.4023583E+000  0.1986063E+03  0.7546771E-02  0.1150920E+00
         21   -1    0    0  501  502  0.00000000000E+00  0.00000000000E+00  0.13484433815E+03  0.13484433815E+03  0.00000000000E+00 0. -1.
         21   -1    0    0  502  503 -0.00000000000E+00 -0.00000000000E+00 -0.46222785381E+03  0.46222785381E+03  0.00000000000E+00 0. -1.
          6    1    1    2  501    0 -0.62431390799E+02 -0.74951898298E+02  0.17201201230E+02  0.19934981048E+03  0.17300000000E+03 0. -1.
         -6    1    1    2    0  503  0.62431390799E+02  0.74951898298E+02 -0.34458471689E+03  0.39772238148E+03  0.17300000000E+03 0. -1.
<mgrwt>
<rscale>  2 0.19860631E+03</rscale>
<asrwt>0</asrwt>
<pdfrwt beam="1">  1       21 0.20745283E-01 0.19860631E+03</pdfrwt>
<pdfrwt beam="2">  1       21 0.71111978E-01 0.19860631E+03</pdfrwt>
<totfact> 0.38454144E+04</totfact>
</mgrwt>
</event>
<event>
 4    1  0.4023583E+000  0.1857149E+03  0.7546771E-02  0.1162384E+00
         21   -1    0    0  503  502  0.00000000000E+00  0.00000000000E+00  0.80669336698E+03  0.80669336698E+03  0.00000000000E+00 0.  1.
         21   -1    0    0  501  503 -0.00000000000E+00 -0.00000000000E+00 -0.60017976103E+02  0.60017976103E+02  0.00000000000E+00 0.  1.
          6    1    1    2  501    0 -0.21155493713E+00  0.67535137598E+02  0.14092290802E+03  0.23312937518E+03  0.17300000000E+03 0. -1.
         -6    1    1    2    0  502  0.21155493713E+00 -0.67535137598E+02  0.60575248285E+03  0.63358196790E+03  0.17300000000E+03 0. -1.
<mgrwt>
<rscale>  2 0.18571494E+03</rscale>
<asrwt>0</asrwt>
<pdfrwt beam="1">  1       21 0.12410666E+00 0.18571494E+03</pdfrwt>
<pdfrwt beam="2">  1       21 0.92335353E-02 0.18571494E+03</pdfrwt>
<totfact> 0.45521623E+04</totfact>
</mgrwt>
</event>
<event>
 4    1  0.4023583E+000  0.3444600E+03  0.7546771E-02  0.1064912E+00
         21   -1    0    0  501  502  0.00000000000E+00  0.00000000000E+00  0.87660917645E+03  0.87660917645E+03  0.00000000000E+00 0.  1.
         21   -1    0    0  502  503 -0.00000000000E+00 -0.00000000000E+00 -0.15614813620E+03  0.15614813620E+03  0.00000000000E+00 0. -1.
          6    1    1    2  501    0  0.29682705151E+03  0.24846760161E+02  0.17179224802E+03  0.38492237721E+03  0.17300000000E+03 0. -1.
         -6    1    1    2    0  503 -0.29682705151E+03 -0.24846760161E+02  0.54866879223E+03  0.64783493544E+03  0.17300000000E+03 0.  1.
<mgrwt>
<rscale>  2 0.34445995E+03</rscale>
<asrwt>0</asrwt>
<pdfrwt beam="1">  1       21 0.13486295E+00 0.34445995E+03</pdfrwt>
<pdfrwt beam="2">  1       21 0.24022791E-01 0.34445995E+03</pdfrwt>
<totfact> 0.58741042E+03</totfact>
</mgrwt>
</event>
<event>
 4    1  0.4023583E+000  0.1839392E+03  0.7546771E-02  0.1164044E+00
         21   -1    0    0  503  502  0.00000000000E+00  0.00000000000E+00  0.91271101649E+02  0.91271101649E+02  0.00000000000E+00 0. -1.
         21   -1    0    0  501  503 -0.00000000000E+00 -0.00000000000E+00 -0.58864486357E+03  0.58864486357E+03  0.00000000000E+00 0.  1.
          6    1    1    2  501    0  0.46457000816E+02 -0.41789476762E+02 -0.45554770913E+03  0.49128131309E+03  0.17300000000E+03 0.  1.
         -6    1    1    2    0  502 -0.46457000816E+02  0.41789476762E+02 -0.41826052787E+02  0.18863465213E+03  0.17300000000E+03 0. -1.
<mgrwt>
<rscale>  2 0.18393916E+03</rscale>
<asrwt>0</asrwt>
<pdfrwt beam="1">  1       21 0.14041708E-01 0.18393916E+03</pdfrwt>
<pdfrwt beam="2">  1       21 0.90560748E-01 0.18393916E+03</pdfrwt>
<totfact> 0.45998465E+04</totfact>
</mgrwt>
</event>
<event>
 4    1  0.4023583E+000  0.2645003E+03  0.7546771E-02  0.1104469E+00
         21   -1    0    0  501  502  0.00000000000E+00  0.00000000000E+00  0.21104518739E+03  0.21104518739E+03  0.00000000000E+00 0. -1.
         21   -1    0    0  502  503 -0.00000000000E+00 -0.00000000000E+00 -0.33859657918E+03  0.33859657918E+03  0.00000000000E+00 0. -1.
          6    1    1    2  501    0 -0.19930771163E+03 -0.17545976012E+02 -0.10357594585E+03  0.28405703961E+03  0.17300000000E+03 0. -1.
         -6    1    1    2    0  503  0.19930771163E+03  0.17545976012E+02 -0.23975445938E+02  0.26558472697E+03  0.17300000000E+03 0. -1.
<mgrwt>
<rscale>  2 0.26450033E+03</rscale>
<asrwt>0</asrwt>
<pdfrwt beam="1">  1       21 0.32468490E-01 0.26450033E+03</pdfrwt>
<pdfrwt beam="2">  1       21 0.52091782E-01 0.26450033E+03</pdfrwt>
<totfact> 0.30835025E+04</totfact>
</mgrwt>
</event>
<event>
 4    1  0.4023583E+000  0.2532567E+03  0.7546771E-02  0.1111264E+00
         21   -1    0    0  503  502  0.00000000000E+00  0.00000000000E+00  0.27695113729E+03  0.27695113729E+03  0.00000000000E+00 0. -1.
         21   -1    0    0  501  503 -0.00000000000E+00 -0.00000000000E+00 -0.23171952324E+03  0.23171952324E+03  0.00000000000E+00 0. -1.
          6    1    1    2  501    0 -0.13918922941E+02  0.18443483947E+03  0.16588677047E+02  0.25379939053E+03  0.17300000000E+03 0. -1.
         -6    1    1    2    0  502  0.13918922941E+02 -0.18443483947E+03  0.28642937005E+02  0.25487126999E+03  0.17300000000E+03 0. -1.
<mgrwt>
<rscale>  2 0.25325668E+03</rscale>
<asrwt>0</asrwt>
<pdfrwt beam="1">  1       21 0.42607867E-01 0.25325668E+03</pdfrwt>
<pdfrwt beam="2">  1       21 0.35649157E-01 0.25325668E+03</pdfrwt>
<totfact> 0.39080873E+04</totfact>
</mgrwt>
</event>
<event>
 4    1  0.4023583E+000  0.2040268E+03  0.7546771E-02  0.1146385E+00
         21   -1    0    0  503  502  0.00000000000E+00  0.00000000000E+00  0.23044812119E+03  0.23044812119E+03  0.00000000000E+00 0. -1.
         21   -1    0    0  501  503 -0.00000000000E+00 -0.00000000000E+00 -0.24785835307E+03  0.24785835307E+03  0.00000000000E+00 0.  1.
          6    1    1    2  501    0  0.10617485707E+03  0.20611923334E+02 -0.13325266807E+03  0.24368673580E+03  0.17300000000E+03 0.  1.
         -6    1    1    2    0  502 -0.10617485707E+03 -0.20611923334E+02  0.11584243618E+03  0.23461973847E+03  0.17300000000E+03 0. -1.
<mgrwt>
<rscale>  2 0.20402684E+03</rscale>
<asrwt>0</asrwt>
<pdfrwt beam="1">  1       21 0.35453557E-01 0.20402684E+03</pdfrwt>
<pdfrwt beam="2">  1       21 0.38132054E-01 0.20402684E+03</pdfrwt>
<totfact> 0.50593947E+04</totfact>
</mgrwt>
</event>
<event>
 4    1  0.4023583E+000  0.2582260E+03  0.7546771E-02  0.1108214E+00
         21   -1    0    0  501  502  0.00000000000E+00  0.00000000000E+00  0.64279763827E+03  0.64279763827E+03  0.00000000000E+00 0.  1.
         21   -1    0    0  502  503 -0.00000000000E+00 -0.00000000000E+00 -0.15063363667E+03  0.15063363667E+03  0.00000000000E+00 0. -1.
          6    1    1    2  501    0 -0.75838240397E+02 -0.17606881978E+03  0.46744144304E+03  0.53402450381E+03  0.17300000000E+03 0. -1.
         -6    1    1    2    0  503  0.75838240397E+02  0.17606881978E+03  0.24722558568E+02  0.25940677113E+03  0.17300000000E+03 0.  1.
<mgrwt>
<rscale>  2 0.25822600E+03</rscale>
<asrwt>0</asrwt>
<pdfrwt beam="1">  1       21 0.98891943E-01 0.25822600E+03</pdfrwt>
<pdfrwt beam="2">  1       21 0.23174406E-01 0.25822600E+03</pdfrwt>
<totfact> 0.14188689E+04</totfact>
</mgrwt>
</event>
<event>
 4    1  0.4023583E+000  0.1777327E+03  0.7546771E-02  0.1170016E+00
         21   -1    0    0  503  502  0.00000000000E+00  0.00000000000E+00  0.59731035056E+03  0.59731035056E+03  0.00000000000E+00 0. -1.
         21   -1    0    0  501  503 -0.00000000000E+00 -0.00000000000E+00 -0.69200341320E+02  0.69200341320E+02  0.00000000000E+00 0. -1.
          6    1    1    2  501    0  0.29473506036E+02 -0.28128766603E+02  0.10224044852E+03  0.20504151868E+03  0.17300000000E+03 0. -1.
         -6    1    1    2    0  502 -0.29473506036E+02  0.28128766603E+02  0.42586956072E+03  0.46146917320E+03  0.17300000000E+03 0. -1.
<mgrwt>
<rscale>  2 0.17773271E+03</rscale>
<asrwt>0</asrwt>
<pdfrwt beam="1">  1       21 0.91893897E-01 0.17773271E+03</pdfrwt>
<pdfrwt beam="2">  1       21 0.10646207E-01 0.17773271E+03</pdfrwt>
<totfact> 0.73190801E+04</totfact>
</mgrwt>
</event>
<event>
 4    1  0.4023583E+000  0.2167353E+03  0.7546771E-02  0.1136341E+00
         21   -1    0    0  503  502  0.00000000000E+00  0.00000000000E+00  0.18258503269E+04  0.18258503269E+04  0.00000000000E+00 0.  1.
         21   -1    0    0  501  503 -0.00000000000E+00 -0.00000000000E+00 -0.42266188491E+02  0.42266188491E+02  0.00000000000E+00 0.  1.
          6    1    1    2  501    0  0.75622516126E+02  0.10642563490E+03  0.30749902880E+03  0.37620451010E+03  0.17300000000E+03 0.  1.
         -6    1    1    2    0  502 -0.75622516126E+02 -0.10642563490E+03  0.14760851096E+04  0.14919120053E+04  0.17300000000E+03 0.  1.
<mgrwt>
<rscale>  2 0.21673528E+03</rscale>
<asrwt>0</asrwt>
<pdfrwt beam="1">  1       21 0.28089999E+00 0.21673528E+03</pdfrwt>
<pdfrwt beam="2">  1       21 0.65024919E-02 0.21673528E+03</pdfrwt>
<totfact> 0.73699073E+03</totfact>
</mgrwt>
</event>
<event>
 4    1  0.4023583E+000  0.2621399E+03  0.7546771E-02  0.1105864E+00
         21   -1    0    0  501  502  0.00000000000E+00  0.00000000000E+00  0.24535550380E+03  0.24535550380E+03  0.00000000000E+00 0.  1.
         21   -1    0    0  502  503 -0.00000000000E+00 -0.00000000000E+00 -0.32643688266E+03  0.32643688266E+03  0.00000000000E+00 0.  1.
          6    1    1    2  501    0 -0.22632382589E+02  0.19564276820E+03 -0.14828670741E+03  0.30117480818E+03  0.17300000000E+03 0.  1.
         -6    1    1    2    0  503  0.22632382589E+02 -0.19564276820E+03  0.67205328549E+02  0.27061757828E+03  0.17300000000E+03 0.  1.
<mgrwt>
<rscale>  2 0.26213988E+03</rscale>
<asrwt>0</asrwt>
<pdfrwt beam="1">  1       21 0.37747001E-01 0.26213988E+03</pdfrwt>
<pdfrwt beam="2">  1       21 0.50221058E-01 0.26213988E+03</pdfrwt>
<totfact> 0.24667808E+04</totfact>
</mgrwt>
</event>
<event>
 4    1  0.4023583E+000  0.1842295E+03  0.7546771E-02  0.1163771E+00
         21   -1    0    0  503  502  0.00000000000E+00  0.00000000000E+00  0.19822086637E+03  0.19822086637E+03  0.00000000000E+00 0. -1.
         21   -1    0    0  501  503 -0.00000000000E+00 -0.00000000000E+00 -0.18273288411E+03  0.18273288411E+03  0.00000000000E+00 0. -1.
          6    1    1    2  501    0 -0.59352366918E+02 -0.22108904354E+02 -0.40054962061E+02  0.18853357021E+03  0.17300000000E+03 0. -1.
         -6    1    1    2    0  502  0.59352366918E+02  0.22108904354E+02  0.55542944323E+02  0.19242018027E+03  0.17300000000E+03 0. -1.
<mgrwt>
<rscale>  2 0.18422950E+03</rscale>
<asrwt>0</asrwt>
<pdfrwt beam="1">  1       21 0.30495518E-01 0.18422950E+03</pdfrwt>
<pdfrwt beam="2">  1       21 0.28112751E-01 0.18422950E+03</pdfrwt>
<totfact> 0.12513423E+05</totfact>
</mgrwt>
</event>
<event>
 4    1  0.4023583E+000  0.1784602E+03  0.7546771E-02  0.1169302E+00
         21   -1    0    0  501  502  0.00000000000E+00  0.00000000000E+00  0.16892220820E+03  0.16892220820E+03  0.00000000000E+00 0. -1.
         21   -1    0    0  502  503 -0.00000000000E+00 -0.00000000000E+00 -0.19057365432E+03  0.19057365432E+03  0.00000000000E+00 0. -1.
          6    1    1    2  501    0  0.99328400686E+01 -0.42665998834E+02  0.77572356254E+01  0.17862873082E+03  0.17300000000E+03 0.  1.
         -6    1    1    2    0  503 -0.99328400686E+01  0.42665998834E+02 -0.29408681755E+02  0.18086713170E+03  0.17300000000E+03 0.  1.
<mgrwt>
<rscale>  2 0.17846022E+03</rscale>
<asrwt>0</asrwt>
<pdfrwt beam="1">  1       21 0.25988032E-01 0.17846022E+03</pdfrwt>
<pdfrwt beam="2">  1       21 0.29319024E-01 0.17846022E+03</pdfrwt>
<totfact> 0.15742346E+05</totfact>
</mgrwt>
</event>
<event>
 4    1  0.4023583E+000  0.1988223E+03  0.7546771E-02  0.1150736E+00
         21   -1    0    0  503  502  0.00000000000E+00  0.00000000000E+00  0.46417408457E+03  0.46417408457E+03  0.00000000000E+00 0.  1.
         21   -1    0    0  501  503 -0.00000000000E+00 -0.00000000000E+00 -0.10540420680E+03  0.10540420680E+03  0.00000000000E+00 0.  1.
          6    1    1    2  501    0  0.67288773712E+02  0.71228756019E+02  0.30418533456E+03  0.36339927424E+03  0.17300000000E+03 0.  1.
         -6    1    1    2    0  502 -0.67288773712E+02 -0.71228756019E+02  0.54584543205E+02  0.20617901714E+03  0.17300000000E+03 0.  1.
<mgrwt>
<rscale>  2 0.19882232E+03</rscale>
<asrwt>0</asrwt>
<pdfrwt beam="1">  1       21 0.71411397E-01 0.19882232E+03</pdfrwt>
<pdfrwt beam="2">  1       21 0.16216032E-01 0.19882232E+03</pdfrwt>
<totfact> 0.60144915E+04</totfact>
</mgrwt>
</event>
<event>
 4    1  0.4023583E+000  0.1869553E+03  0.7546771E-02  0.1161236E+00
         21   -1    0    0  501  502  0.00000000000E+00  0.00000000000E+00  0.20840747321E+04  0.20840747321E+04  0.00000000000E+00 0. -1.
         21   -1    0    0  502  503 -0.00000000000E+00 -0.00000000000E+00 -0.22812771929E+02  0.22812771929E+02  0.00000000000E+00 0. -1.
          6    1    1    2  501    0 -0.63385873679E+02  0.31709847655E+02  0.15727565566E+04  0.15838293689E+04  0.17300000000E+03 0. -1.
         -6    1    1    2    0  503  0.63385873679E+02 -0.31709847655E+02  0.48850540357E+03  0.52305813514E+03  0.17300000000E+03 0. -1.
<mgrwt>
<rscale>  2 0.18695530E+03</rscale>
<asrwt>0</asrwt>
<pdfrwt beam="1">  1       21 0.32062673E+00 0.18695530E+03</pdfrwt>
<pdfrwt beam="2">  1       21 0.35096588E-02 0.18695530E+03</pdfrwt>
<totfact> 0.12736419E+04</totfact>
</mgrwt>
</event>
<event>
 4    1  0.4023583E+000  0.2637678E+03  0.7546771E-02  0.1104900E+00
         21   -1    0    0  503  502  0.00000000000E+00  0.00000000000E+00  0.41743883787E+03  0.41743883787E+03  0.00000000000E+00 0.  1.
         21   -1    0    0  501  503 -0.00000000000E+00 -0.00000000000E+00 -0.18908105063E+03  0.18908105063E+03  0.00000000000E+00 0. -1.
          6    1    1    2  501    0 -0.21018267039E+02 -0.19799667367E+03  0.97676567543E+01  0.26394858865E+03  0.17300000000E+03 0. -1.
         -6    1    1    2    0  502  0.21018267039E+02  0.19799667367E+03  0.21859013048E+03  0.34257129984E+03  0.17300000000E+03 0.  1.
<mgrwt>
<rscale>  2 0.26376780E+03</rscale>
<asrwt>0</asrwt>
<pdfrwt beam="1">  1       21 0.64221359E-01 0.26376780E+03</pdfrwt>
<pdfrwt beam="2">  1       21 0.29089393E-01 0.26376780E+03</pdfrwt>
<totfact> 0.24412451E+04</totfact>
</mgrwt>
</event>
<event>
 4    1  0.4023583E+000  0.2067049E+03  0.7546771E-02  0.1144202E+00
         21   -1    0    0  503  502  0.00000000000E+00  0.00000000000E+00  0.19411359461E+03  0.19411359461E+03  0.00000000000E+00 0. -1.
         21   -1    0    0  501  503 -0.00000000000E+00 -0.00000000000E+00 -0.61498102348E+03  0.61498102348E+03  0.00000000000E+00 0. -1.
          6    1    1    2  501    0 -0.45209520940E+02 -0.10370159111E+03 -0.53459747059E+03  0.57316784308E+03  0.17300000000E+03 0. -1.
         -6    1    1    2    0  502  0.45209520940E+02  0.10370159111E+03  0.11373004171E+03  0.23592677502E+03  0.17300000000E+03 0. -1.
<mgrwt>
<rscale>  2 0.20670491E+03</rscale>
<asrwt>0</asrwt>
<pdfrwt beam="1">  1       21 0.29863630E-01 0.20670491E+03</pdfrwt>
<pdfrwt beam="2">  1       21 0.94612464E-01 0.20670491E+03</pdfrwt>
<totfact> 0.99569615E+03</totfact>
</mgrwt>
</event>
<event>
 4    1  0.4023583E+000  0.1976761E+03  0.7546771E-02  0.1151715E+00
         21   -1    0    0  503  502  0.00000000000E+00  0.00000000000E+00  0.88994713150E+03  0.88994713150E+03  0.00000000000E+00 0. -1.
         21   -1    0    0  501  503 -0.00000000000E+00 -0.00000000000E+00 -0.77567413902E+02  0.77567413902E+02  0.00000000000E+00 0. -1.
          6    1    1    2  501    0 -0.81552825056E+02 -0.49959858771E+02  0.87520176056E+02  0.21618425470E+03  0.17300000000E+03 0. -1.
         -6    1    1    2    0  502  0.81552825056E+02  0.49959858771E+02  0.72485954155E+03  0.75133029071E+03  0.17300000000E+03 0. -1.
<mgrwt>
<rscale>  2 0.19767613E+03</rscale>
<asrwt>0</asrwt>
<pdfrwt beam="1">  1       21 0.13691494E+00 0.19767613E+03</pdfrwt>
<pdfrwt beam="2">  1       21 0.11933449E-01 0.19767613E+03</pdfrwt>
<totfact> 0.22388839E+04</totfact>
</mgrwt>
</event>
<event>
 4    1  0.4023583E+000  0.1951837E+03  0.7546771E-02  0.1153867E+00
         21   -1    0    0  501  502  0.00000000000E+00  0.00000000000E+00  0.53301813919E+03  0.53301813919E+03  0.00000000000E+00 0. -1.
         21   -1    0    0  502  503 -0.00000000000E+00 -0.00000000000E+00 -0.32593089539E+03  0.32593089539E+03  0.00000000000E+00 0.  1.
          6    1    1    2  501    0  0.51105433519E+02  0.74538055768E+02  0.48301773087E+03  0.52096335325E+03  0.17300000000E+03 0. -1.
         -6    1    1    2    0  503 -0.51105433519E+02 -0.74538055768E+02 -0.27593048706E+03  0.33798568133E+03  0.17300000000E+03 0.  1.
<mgrwt>
<rscale>  2 0.19518373E+03</rscale>
<asrwt>0</asrwt>
<pdfrwt beam="1">  1       21 0.82002790E-01 0.19518373E+03</pdfrwt>
<pdfrwt beam="2">  1       21 0.50143215E-01 0.19518373E+03</pdfrwt>
<totfact> 0.49160617E+03</totfact>
</mgrwt>
</event>
<event>
 4    1  0.4023583E+000  0.1936520E+03  0.7546771E-02  0.1155208E+00
         21   -1    0    0  501  502  0.00000000000E+00  0.00000000000E+00  0.21660066999E+03  0.21660066999E+03  0.00000000000E+00 0.  1.
         21   -1    0    0  502  503 -0.00000000000E+00 -0.00000000000E+00 -0.23640628232E+03  0.23640628232E+03  0.00000000000E+00 0.  1.
          6    1    1    2  501    0  0.15525577274E+02 -0.85621653375E+02  0.10727609217E+03  0.22138037634E+03  0.17300000000E+03 0.  1.
         -6    1    1    2    0  503 -0.15525577274E+02  0.85621653375E+02 -0.12708170450E+03  0.23162657597E+03  0.17300000000E+03 0.  1.
<mgrwt>
<rscale>  2 0.19365204E+03</rscale>
<asrwt>0</asrwt>
<pdfrwt beam="1">  1       21 0.33323180E-01 0.19365204E+03</pdfrwt>
<pdfrwt beam="2">  1       21 0.36370197E-01 0.19365204E+03</pdfrwt>
<totfact> 0.63201380E+04</totfact>
</mgrwt>
</event>
<event>
 4    1  0.4023583E+000  0.1881583E+03  0.7546771E-02  0.1160133E+00
         21   -1    0    0  503  502  0.00000000000E+00  0.00000000000E+00  0.47884290135E+02  0.47884290135E+02  0.00000000000E+00 0. -1.
         21   -1    0    0  501  503 -0.00000000000E+00 -0.00000000000E+00 -0.11014750871E+04  0.11014750871E+04  0.00000000000E+00 0. -1.
          6    1    1    2  501    0  0.21073582150E+02  0.70925622114E+02 -0.85630204953E+03  0.87673071109E+03  0.17300000000E+03 0. -1.
         -6    1    1    2    0  502 -0.21073582150E+02 -0.70925622114E+02 -0.19728874741E+03  0.27262866612E+03  0.17300000000E+03 0. -1.
<mgrwt>
<rscale>  2 0.18815828E+03</rscale>
<asrwt>0</asrwt>
<pdfrwt beam="1">  1       21 0.73668141E-02 0.18815828E+03</pdfrwt>
<pdfrwt beam="2">  1       21 0.16945770E+00 0.18815828E+03</pdfrwt>
<totfact> 0.29896457E+04</totfact>
</mgrwt>
</event>
<event>
 4    1  0.4023583E+000  0.2167567E+03  0.7546771E-02  0.1136324E+00
         21   -1    0    0  501  502  0.00000000000E+00  0.00000000000E+00  0.10270883973E+04  0.10270883973E+04  0.00000000000E+00 0. -1.
         21   -1    0    0  502  503 -0.00000000000E+00 -0.00000000000E+00 -0.65603875959E+02  0.65603875959E+02  0.00000000000E+00 0. -1.
          6    1    1    2  501    0 -0.53345517977E+02 -0.11920038421E+03  0.78134139684E+03  0.81085008127E+03  0.17300000000E+03 0. -1.
         -6    1    1    2    0  503  0.53345517977E+02  0.11920038421E+03  0.18014312453E+03  0.28184219201E+03  0.17300000000E+03 0. -1.
<mgrwt>
<rscale>  2 0.21675672E+03</rscale>
<asrwt>0</asrwt>
<pdfrwt beam="1">  1       21 0.15801359E+00 0.21675672E+03</pdfrwt>
<pdfrwt beam="2">  1       21 0.10092905E-01 0.21675672E+03</pdfrwt>
<totfact> 0.20449106E+04</totfact>
</mgrwt>
</event>
<event>
 4    1  0.4023583E+000  0.1958244E+03  0.7546771E-02  0.1153311E+00
         21   -1    0    0  503  502  0.00000000000E+00  0.00000000000E+00  0.31255497806E+02  0.31255497806E+02  0.00000000000E+00 0. -1.
         21   -1    0    0  501  503 -0.00000000000E+00 -0.00000000000E+00 -0.12268946271E+04  0.12268946271E+04  0.00000000000E+00 0.  1.
          6    1    1    2  501    0  0.39782608442E+02 -0.82677362845E+02 -0.59779402953E+03  0.62905079604E+03  0.17300000000E+03 0.  1.
         -6    1    1    2    0  502 -0.39782608442E+02  0.82677362845E+02 -0.59784509974E+03  0.62909932884E+03  0.17300000000E+03 0.  1.
<mgrwt>
<rscale>  2 0.19582442E+03</rscale>
<asrwt>0</asrwt>
<pdfrwt beam="1">  1       21 0.48085382E-02 0.19582442E+03</pdfrwt>
<pdfrwt beam="2">  1       21 0.18875302E+00 0.19582442E+03</pdfrwt>
<totfact> 0.45587086E+04</totfact>
</mgrwt>
</event>
<event>
 4    1  0.4023583E+000  0.3028701E+03  0.7546771E-02  0.1083815E+00
         21   -1    0    0  503  502  0.00000000000E+00  0.00000000000E+00  0.14265210975E+03  0.14265210975E+03  0.00000000000E+00 0. -1.
         21   -1    0    0  501  503 -0.00000000000E+00 -0.00000000000E+00 -0.66103936995E+03  0.66103936995E+03  0.00000000000E+00 0.  1.
          6    1    1    2  501    0 -0.14141639988E+03 -0.20445713197E+03 -0.32551189937E+03  0.44462153974E+03  0.17300000000E+03 0. -1.
         -6    1    1    2    0  502  0.14141639988E+03  0.20445713197E+03 -0.19287536083E+03  0.35906993996E+03  0.17300000000E+03 0.  1.
<mgrwt>
<rscale>  2 0.30287013E+03</rscale>
<asrwt>0</asrwt>
<pdfrwt beam="1">  1       21 0.21946478E-01 0.30287013E+03</pdfrwt>
<pdfrwt beam="2">  1       21 0.10169836E+00 0.30287013E+03</pdfrwt>
<totfact> 0.14411757E+04</totfact>
</mgrwt>
</event>
<event>
 4    1  0.4023583E+000  0.2374212E+03  0.7546771E-02  0.1121523E+00
         21   -1    0    0  501  502  0.00000000000E+00  0.00000000000E+00  0.17515592405E+03  0.17515592405E+03  0.00000000000E+00 0. -1.
         21   -1    0    0  502  503 -0.00000000000E+00 -0.00000000000E+00 -0.53204338550E+03  0.53204338550E+03  0.00000000000E+00 0.  1.
          6    1    1    2  501    0 -0.76788745441E+02 -0.14332943570E+03  0.43824750990E+02  0.24143207609E+03  0.17300000000E+03 0. -1.
         -6    1    1    2    0  503  0.76788745441E+02  0.14332943570E+03 -0.40071221245E+03  0.46576723346E+03  0.17300000000E+03 0.  1.
<mgrwt>
<rscale>  2 0.23742123E+03</rscale>
<asrwt>0</asrwt>
<pdfrwt beam="1">  1       21 0.26947065E-01 0.23742123E+03</pdfrwt>
<pdfrwt beam="2">  1       21 0.81852828E-01 0.23742123E+03</pdfrwt>
<totfact> 0.16684779E+04</totfact>
</mgrwt>
</event>
<event>
 4    1  0.4023583E+000  0.1825342E+03  0.7546771E-02  0.1165373E+00
         21   -1    0    0  503  502  0.00000000000E+00  0.00000000000E+00  0.12131472263E+03  0.12131472263E+03  0.00000000000E+00 0. -1.
         21   -1    0    0  501  503 -0.00000000000E+00 -0.00000000000E+00 -0.32491612159E+03  0.32491612159E+03  0.00000000000E+00 0. -1.
          6    1    1    2  501    0  0.54057228989E+01 -0.57969938442E+02 -0.18956021509E+03  0.26315738779E+03  0.17300000000E+03 0. -1.
         -6    1    1    2    0  502 -0.54057228989E+01  0.57969938442E+02 -0.14041183867E+02  0.18307345643E+03  0.17300000000E+03 0. -1.
<mgrwt>
<rscale>  2 0.18253420E+03</rscale>
<asrwt>0</asrwt>
<pdfrwt beam="1">  1       21 0.18663804E-01 0.18253420E+03</pdfrwt>
<pdfrwt beam="2">  1       21 0.49987094E-01 0.18253420E+03</pdfrwt>
<totfact> 0.10047745E+05</totfact>
</mgrwt>
</event>
<event>
 4    1  0.4023583E+000  0.1829511E+03  0.7546771E-02  0.1164977E+00
         21   -1    0    0  503  502  0.00000000000E+00  0.00000000000E+00  0.14731106088E+04  0.14731106088E+04  0.00000000000E+00 0.  1.
         21   -1    0    0  501  503 -0.00000000000E+00 -0.00000000000E+00 -0.76140974512E+02  0.76140974512E+02  0.00000000000E+00 0.  1.
          6    1    1    2  501    0  0.14607047205E+02  0.57695377135E+02  0.49651734246E+02  0.18956902987E+03  0.17300000000E+03 0.  1.
         -6    1    1    2    0  502 -0.14607047205E+02 -0.57695377135E+02  0.13473179001E+04  0.13596825535E+04  0.17300000000E+03 0.  1.
<mgrwt>
<rscale>  2 0.18295115E+03</rscale>
<asrwt>0</asrwt>
<pdfrwt beam="1">  1       21 0.22663238E+00 0.18295115E+03</pdfrwt>
<pdfrwt beam="2">  1       21 0.11713997E-01 0.18295115E+03</pdfrwt>
<totfact> 0.56694097E+03</totfact>
</mgrwt>
</event>
<event>
 4    1  0.4023583E+000  0.1861065E+03  0.7546771E-02  0.1162021E+00
         21   -1    0    0  503  502  0.00000000000E+00  0.00000000000E+00  0.21209707586E+03  0.21209707586E+03  0.00000000000E+00 0. -1.
         21   -1    0    0  501  503 -0.00000000000E+00 -0.00000000000E+00 -0.23081874713E+03  0.23081874713E+03  0.00000000000E+00 0. -1.
          6    1    1    2  501    0 -0.41582835025E+01  0.68478740011E+02 -0.12913555688E+03  0.22652068605E+03  0.17300000000E+03 0. -1.
         -6    1    1    2    0  502  0.41582835025E+01 -0.68478740011E+02  0.11041388561E+03  0.21639513694E+03  0.17300000000E+03 0. -1.
<mgrwt>
<rscale>  2 0.18610650E+03</rscale>
<asrwt>0</asrwt>
<pdfrwt beam="1">  1       21 0.32630319E-01 0.18610650E+03</pdfrwt>
<pdfrwt beam="2">  1       21 0.35510576E-01 0.18610650E+03</pdfrwt>
<totfact> 0.69305147E+04</totfact>
</mgrwt>
</event>
<event>
 4    1  0.4023583E+000  0.2002908E+03  0.7546771E-02  0.1149494E+00
         21   -1    0    0  503  502  0.00000000000E+00  0.00000000000E+00  0.12765577551E+04  0.12765577551E+04  0.00000000000E+00 0. -1.
         21   -1    0    0  501  503 -0.00000000000E+00 -0.00000000000E+00 -0.53338799488E+02  0.53338799488E+02  0.00000000000E+00 0. -1.
          6    1    1    2  501    0 -0.30263765914E+02  0.96288691204E+02  0.18540247079E+03  0.27292944831E+03  0.17300000000E+03 0. -1.
         -6    1    1    2    0  502  0.30263765914E+02 -0.96288691204E+02  0.10378164848E+04  0.10569671063E+04  0.17300000000E+03 0. -1.
<mgrwt>
<rscale>  2 0.20029081E+03</rscale>
<asrwt>0</asrwt>
<pdfrwt beam="1">  1       21 0.19639348E+00 0.20029081E+03</pdfrwt>
<pdfrwt beam="2">  1       21 0.82059701E-02 0.20029081E+03</pdfrwt>
<totfact> 0.16166634E+04</totfact>
</mgrwt>
</event>
<event>
 4    1  0.4023583E+000  0.2577044E+03  0.7546771E-02  0.1108530E+00
         21   -1    0    0  501  502  0.00000000000E+00  0.00000000000E+00  0.25987543249E+03  0.25987543249E+03  0.00000000000E+00 0. -1.
         21   -1    0    0  502  503 -0.00000000000E+00 -0.00000000000E+00 -0.53544546751E+03  0.53544546751E+03  0.00000000000E+00 0.  1.
          6    1    1    2  501    0  0.10318915290E+03  0.16073131999E+03  0.14972404579E+03  0.29804168901E+03  0.17300000000E+03 0. -1.
         -6    1    1    2    0  503 -0.10318915290E+03 -0.16073131999E+03 -0.42529408081E+03  0.49727921098E+03  0.17300000000E+03 0.  1.
<mgrwt>
<rscale>  2 0.25770440E+03</rscale>
<asrwt>0</asrwt>
<pdfrwt beam="1">  1       21 0.39980836E-01 0.25770440E+03</pdfrwt>
<pdfrwt beam="2">  1       21 0.82376225E-01 0.25770440E+03</pdfrwt>
<totfact> 0.74389897E+03</totfact>
</mgrwt>
</event>
<event>
 4    1  0.4023583E+000  0.1760565E+03  0.7546771E-02  0.1171675E+00
         21   -1    0    0  501  502  0.00000000000E+00  0.00000000000E+00  0.36058074116E+03  0.36058074116E+03  0.00000000000E+00 0.  1.
         21   -1    0    0  502  503 -0.00000000000E+00 -0.00000000000E+00 -0.19857097103E+03  0.19857097103E+03  0.00000000000E+00 0.  1.
          6    1    1    2  501    0 -0.24323464098E+02 -0.21800435692E+02  0.29154272356E+03  0.34057752358E+03  0.17300000000E+03 0.  1.
         -6    1    1    2    0  503  0.24323464098E+02  0.21800435692E+02 -0.12953295344E+03  0.21857418861E+03  0.17300000000E+03 0.  1.
<mgrwt>
<rscale>  2 0.17605650E+03</rscale>
<asrwt>0</asrwt>
<pdfrwt beam="1">  1       21 0.55473960E-01 0.17605650E+03</pdfrwt>
<pdfrwt beam="2">  1       21 0.30549380E-01 0.17605650E+03</pdfrwt>
<totfact> 0.31787570E+04</totfact>
</mgrwt>
</event>
<event>
 4    1  0.4023583E+000  0.1782622E+03  0.7546771E-02  0.1169496E+00
         21   -1    0    0  501  502  0.00000000000E+00  0.00000000000E+00  0.38294954898E+03  0.38294954898E+03  0.00000000000E+00 0. -1.
         21   -1    0    0  502  503 -0.00000000000E+00 -0.00000000000E+00 -0.14958037581E+03  0.14958037581E+03  0.00000000000E+00 0. -1.
          6    1    1    2  501    0 -0.19646693393E+02 -0.38241599473E+02  0.29435407309E+03  0.34412458912E+03  0.17300000000E+03 0. -1.
         -6    1    1    2    0  503  0.19646693393E+02  0.38241599473E+02 -0.60984899922E+02  0.18840533567E+03  0.17300000000E+03 0. -1.
<mgrwt>
<rscale>  2 0.17826220E+03</rscale>
<asrwt>0</asrwt>
<pdfrwt beam="1">  1       21 0.58915315E-01 0.17826220E+03</pdfrwt>
<pdfrwt beam="2">  1       21 0.23012366E-01 0.17826220E+03</pdfrwt>
<totfact> 0.48107325E+04</totfact>
</mgrwt>
</event>
<event>
 4    1  0.4023583E+000  0.1758619E+03  0.7546771E-02  0.1171869E+00
         21   -1    0    0  501  502  0.00000000000E+00  0.00000000000E+00  0.16144425711E+03  0.16144425711E+03  0.00000000000E+00 0.  1.
         21   -1    0    0  502  503 -0.00000000000E+00 -0.00000000000E+00 -0.19156760807E+03  0.19156760807E+03  0.00000000000E+00 0.  1.
          6    1    1    2  501    0 -0.24765863338E+02 -0.19623071938E+02 -0.14782752029E+02  0.17648213138E+03  0.17300000000E+03 0.  1.
         -6    1    1    2    0  503  0.24765863338E+02  0.19623071938E+02 -0.15340598934E+02  0.17652973380E+03  0.17300000000E+03 0.  1.
<mgrwt>
<rscale>  2 0.17586191E+03</rscale>
<asrwt>0</asrwt>
<pdfrwt beam="1">  1       21 0.24837578E-01 0.17586191E+03</pdfrwt>
<pdfrwt beam="2">  1       21 0.29471940E-01 0.17586191E+03</pdfrwt>
<totfact> 0.17004804E+05</totfact>
</mgrwt>
</event>
<event>
 4    1  0.4023583E+000  0.1982257E+03  0.7546771E-02  0.1151245E+00
         21   -1    0    0  501  502  0.00000000000E+00  0.00000000000E+00  0.80959629304E+02  0.80959629304E+02  0.00000000000E+00 0.  1.
         21   -1    0    0  502  503 -0.00000000000E+00 -0.00000000000E+00 -0.49248351506E+03  0.49248351506E+03  0.00000000000E+00 0.  1.
          6    1    1    2  501    0 -0.96532340977E+02 -0.67764578612E+01 -0.17124397802E+03  0.26195021139E+03  0.17300000000E+03 0.  1.
         -6    1    1    2    0  503  0.96532340977E+02  0.67764578612E+01 -0.24027990773E+03  0.31149293298E+03  0.17300000000E+03 0.  1.
<mgrwt>
<rscale>  2 0.19822566E+03</rscale>
<asrwt>0</asrwt>
<pdfrwt beam="1">  1       21 0.12455328E-01 0.19822566E+03</pdfrwt>
<pdfrwt beam="2">  1       21 0.75766693E-01 0.19822566E+03</pdfrwt>
<totfact> 0.85111076E+04</totfact>
</mgrwt>
</event>
<event>
 4    1  0.4023583E+000  0.1955077E+03  0.7546771E-02  0.1153585E+00
         21   -1    0    0  503  502  0.00000000000E+00  0.00000000000E+00  0.25734403043E+02  0.25734403043E+02  0.00000000000E+00 0.  1.
         21   -1    0    0  501  503 -0.00000000000E+00 -0.00000000000E+00 -0.18720213159E+04  0.18720213159E+04  0.00000000000E+00 0. -1.
          6    1    1    2  501    0  0.19365842447E+02 -0.88990020009E+02 -0.49186769552E+03  0.52929867694E+03  0.17300000000E+03 0.  1.
         -6    1    1    2    0  502 -0.19365842447E+02  0.88990020009E+02 -0.13544192173E+04  0.13684570420E+04  0.17300000000E+03 0. -1.
<mgrwt>
<rscale>  2 0.19550770E+03</rscale>
<asrwt>0</asrwt>
<pdfrwt beam="1">  1       21 0.39591382E-02 0.19550770E+03</pdfrwt>
<pdfrwt beam="2">  1       21 0.28800333E+00 0.19550770E+03</pdfrwt>
<totfact> 0.15908128E+04</totfact>
</mgrwt>
</event>
<event>
 4    1  0.4023583E+000  0.1797626E+03  0.7546771E-02  0.1168033E+00
         21   -1    0    0  501  502  0.00000000000E+00  0.00000000000E+00  0.10184438689E+04  0.10184438689E+04  0.00000000000E+00 0. -1.
         21   -1    0    0  502  503 -0.00000000000E+00 -0.00000000000E+00 -0.32474241895E+02  0.32474241895E+02  0.00000000000E+00 0. -1.
          6    1    1    2  501    0  0.36400429167E+01  0.48706731453E+02  0.41340436755E+03  0.45079681311E+03  0.17300000000E+03 0. -1.
         -6    1    1    2    0  503 -0.36400429167E+01 -0.48706731453E+02  0.57256525949E+03  0.60012129772E+03  0.17300000000E+03 0. -1.
<mgrwt>
<rscale>  2 0.17976261E+03</rscale>
<asrwt>0</asrwt>
<pdfrwt beam="1">  1       21 0.15668365E+00 0.17976261E+03</pdfrwt>
<pdfrwt beam="2">  1       21 0.49960380E-02 0.17976261E+03</pdfrwt>
<totfact> 0.72211179E+04</totfact>
</mgrwt>
</event>
<event>
 4    1  0.4023583E+000  0.2113003E+03  0.7546771E-02  0.1140540E+00
         21   -1    0    0  503  502  0.00000000000E+00  0.00000000000E+00  0.87656886312E+03  0.87656886312E+03  0.00000000000E+00 0. -1.
         21   -1    0    0  501  503 -0.00000000000E+00 -0.00000000000E+00 -0.51806509754E+02  0.51806509754E+02  0.00000000000E+00 0. -1.
          6    1    1    2  501    0  0.99313349357E+02  0.69682634677E+02  0.47259570198E+03  0.51768186029E+03  0.17300000000E+03 0. -1.
         -6    1    1    2    0  502 -0.99313349357E+02 -0.69682634677E+02  0.35216665139E+03  0.41069351259E+03  0.17300000000E+03 0. -1.
<mgrwt>
<rscale>  2 0.21130029E+03</rscale>
<asrwt>0</asrwt>
<pdfrwt beam="1">  1       21 0.13485674E+00 0.21130029E+03</pdfrwt>
<pdfrwt beam="2">  1       21 0.79702329E-02 0.21130029E+03</pdfrwt>
<totfact> 0.47092822E+04</totfact>
</mgrwt>
</event>
<event>
 4    1  0.4023583E+000  0.3233205E+03  0.7546771E-02  0.1074131E+00
         21   -1    0    0  501  502  0.00000000000E+00  0.00000000000E+00  0.12347931972E+04  0.12347931972E+04  0.00000000000E+00 0. -1.
         21   -1    0    0  502  503 -0.00000000000E+00 -0.00000000000E+00 -0.12160521253E+03  0.12160521253E+03  0.00000000000E+00 0.  1.
          6    1    1    2  501    0 -0.21032813209E+03 -0.17426768072E+03  0.93041795808E+03  0.98499427633E+03  0.17300000000E+03 0. -1.
         -6    1    1    2    0  503  0.21032813209E+03  0.17426768072E+03  0.18277002661E+03  0.37140413342E+03  0.17300000000E+03 0.  1.
<mgrwt>
<rscale>  2 0.32332050E+03</rscale>
<asrwt>0</asrwt>
<pdfrwt beam="1">  1       21 0.18996818E+00 0.32332050E+03</pdfrwt>
<pdfrwt beam="2">  1       21 0.18708495E-01 0.32332050E+03</pdfrwt>
<totfact> 0.37086707E+03</totfact>
</mgrwt>
</event>
<event>
 4    1  0.4023583E+000  0.1801268E+03  0.7546771E-02  0.1167680E+00
         21   -1    0    0  503  502  0.00000000000E+00  0.00000000000E+00  0.85967416562E+02  0.85967416562E+02  0.00000000000E+00 0.  1.
         21   -1    0    0  501  503 -0.00000000000E+00 -0.00000000000E+00 -0.39592601365E+03  0.39592601365E+03  0.00000000000E+00 0. -1.
          6    1    1    2  501    0 -0.47747533871E+02 -0.15389832674E+02 -0.10288494090E+03  0.20743911156E+03  0.17300000000E+03 0.  1.
         -6    1    1    2    0  502  0.47747533871E+02  0.15389832674E+02 -0.20707365619E+03  0.27445431865E+03  0.17300000000E+03 0. -1.
<mgrwt>
<rscale>  2 0.18012683E+03</rscale>
<asrwt>0</asrwt>
<pdfrwt beam="1">  1       21 0.13225757E-01 0.18012683E+03</pdfrwt>
<pdfrwt beam="2">  1       21 0.60911693E-01 0.18012683E+03</pdfrwt>
<totfact> 0.12416718E+05</totfact>
</mgrwt>
</event>
<event>
 4    1  0.4023583E+000  0.2079067E+03  0.7546771E-02  0.1143234E+00
         21   -1    0    0  501  502  0.00000000000E+00  0.00000000000E+00  0.14205407470E+03  0.14205407470E+03  0.00000000000E+00 0.  1.
         21   -1    0    0  502  503 -0.00000000000E+00 -0.00000000000E+00 -0.51818635433E+03  0.51818635433E+03  0.00000000000E+00 0.  1.
          6    1    1    2  501    0 -0.11428781440E+03  0.15313620645E+02 -0.40016280785E+03  0.45094953629E+03  0.17300000000E+03 0.  1.
         -6    1    1    2    0  503  0.11428781440E+03 -0.15313620645E+02  0.24030528224E+02  0.20929089274E+03  0.17300000000E+03 0.  1.
<mgrwt>
<rscale>  2 0.20790674E+03</rscale>
<asrwt>0</asrwt>
<pdfrwt beam="1">  1       21 0.21854473E-01 0.20790674E+03</pdfrwt>
<pdfrwt beam="2">  1       21 0.79720978E-01 0.20790674E+03</pdfrwt>
<totfact> 0.26861382E+04</totfact>
</mgrwt>
</event>
<event>
 4    1  0.4023583E+000  0.2191133E+03  0.7546771E-02  0.1134546E+00
         21   -1    0    0  501  502  0.00000000000E+00  0.00000000000E+00  0.16345926161E+03  0.16345926161E+03  0.00000000000E+00 0. -1.
         21   -1    0    0  502  503 -0.00000000000E+00 -0.00000000000E+00 -0.10703986197E+04  0.10703986197E+04  0.00000000000E+00 0.  1.
          6    1    1    2  501    0  0.13445126218E+03  0.21217599125E+01  0.72044082126E+02  0.23065340564E+03  0.17300000000E+03 0. -1.
         -6    1    1    2    0  503 -0.13445126218E+03 -0.21217599125E+01 -0.97898344024E+03  0.10032044757E+04  0.17300000000E+03 0.  1.
<mgrwt>
<rscale>  2 0.21911331E+03</rscale>
<asrwt>0</asrwt>
<pdfrwt beam="1">  1       21 0.25147578E-01 0.21911331E+03</pdfrwt>
<pdfrwt beam="2">  1       21 0.16467672E+00 0.21911331E+03</pdfrwt>
<totfact> 0.34067268E+03</totfact>
</mgrwt>
</event>
<event>
 4    1  0.4023583E+000  0.1927164E+03  0.7546771E-02  0.1156034E+00
         21   -1    0    0  501  502  0.00000000000E+00  0.00000000000E+00  0.54296551477E+03  0.54296551477E+03  0.00000000000E+00 0.  1.
         21   -1    0    0  502  503 -0.00000000000E+00 -0.00000000000E+00 -0.23589954611E+03  0.23589954611E+03  0.00000000000E+00 0.  1.
          6    1    1    2  501    0 -0.40221655818E+02 -0.74785112481E+02  0.48168395428E+03  0.51880538399E+03  0.17300000000E+03 0.  1.
         -6    1    1    2    0  503  0.40221655818E+02  0.74785112481E+02 -0.17461798561E+03  0.26005967689E+03  0.17300000000E+03 0.  1.
<mgrwt>
<rscale>  2 0.19271636E+03</rscale>
<asrwt>0</asrwt>
<pdfrwt beam="1">  1       21 0.83533156E-01 0.19271636E+03</pdfrwt>
<pdfrwt beam="2">  1       21 0.36292238E-01 0.19271636E+03</pdfrwt>
<totfact> 0.91293549E+03</totfact>
</mgrwt>
</event>
<event>
 4    1  0.4023583E+000  0.1885833E+03  0.7546771E-02  0.1159745E+00
         21   -1    0    0  501  502  0.00000000000E+00  0.00000000000E+00  0.55946930539E+02  0.55946930539E+02  0.00000000000E+00 0. -1.
         21   -1    0    0  502  503 -0.00000000000E+00 -0.00000000000E+00 -0.69316506514E+03  0.69316506514E+03  0.00000000000E+00 0.  1.
          6    1    1    2  501    0  0.51624107925E+02  0.54494211470E+02 -0.21073385698E+03  0.28279396401E+03  0.17300000000E+03 0.  1.
         -6    1    1    2    0  503 -0.51624107925E+02 -0.54494211470E+02 -0.42648427762E+03  0.46631803167E+03  0.17300000000E+03 0.  1.
<mgrwt>
<rscale>  2 0.18858332E+03</rscale>
<asrwt>0</asrwt>
<pdfrwt beam="1">  1       21 0.86072197E-02 0.18858332E+03</pdfrwt>
<pdfrwt beam="2">  1       21 0.10664078E+00 0.18858332E+03</pdfrwt>
<totfact> 0.74482820E+04</totfact>
</mgrwt>
</event>
<event>
 4    1  0.4023583E+000  0.1767961E+03  0.7546771E-02  0.1170940E+00
         21   -1    0    0  503  502  0.00000000000E+00  0.00000000000E+00  0.44055900817E+03  0.44055900817E+03  0.00000000000E+00 0. -1.
         21   -1    0    0  501  503 -0.00000000000E+00 -0.00000000000E+00 -0.82734997886E+02  0.82734997886E+02  0.00000000000E+00 0. -1.
          6    1    1    2  501    0 -0.33443792897E+02  0.14469184096E+02  0.80154511708E+02  0.19411746526E+03  0.17300000000E+03 0. -1.
         -6    1    1    2    0  502  0.33443792897E+02 -0.14469184096E+02  0.27766949858E+03  0.32917654080E+03  0.17300000000E+03 0. -1.
<mgrwt>
<rscale>  2 0.17679605E+03</rscale>
<asrwt>0</asrwt>
<pdfrwt beam="1">  1       21 0.67778308E-01 0.17679605E+03</pdfrwt>
<pdfrwt beam="2">  1       21 0.12728461E-01 0.17679605E+03</pdfrwt>
<totfact> 0.10565639E+05</totfact>
</mgrwt>
</event>
<event>
 4    1  0.4023583E+000  0.2623363E+03  0.7546771E-02  0.1105748E+00
         21   -1    0    0  501  502  0.00000000000E+00  0.00000000000E+00  0.19291134617E+03  0.19291134617E+03  0.00000000000E+00 0.  1.
         21   -1    0    0  502  503 -0.00000000000E+00 -0.00000000000E+00 -0.35835893776E+03  0.35835893776E+03  0.00000000000E+00 0.  1.
          6    1    1    2  501    0 -0.19117924629E+03 -0.48392559691E+02 -0.64231569607E+02  0.27008524317E+03  0.17300000000E+03 0.  1.
         -6    1    1    2    0  503  0.19117924629E+03  0.48392559691E+02 -0.10121602198E+03  0.28118504077E+03  0.17300000000E+03 0.  1.
<mgrwt>
<rscale>  2 0.26233632E+03</rscale>
<asrwt>0</asrwt>
<pdfrwt beam="1">  1       21 0.29678669E-01 0.26233632E+03</pdfrwt>
<pdfrwt beam="2">  1       21 0.55132144E-01 0.26233632E+03</pdfrwt>
<totfact> 0.32661663E+04</totfact>
</mgrwt>
</event>
<event>
 4    1  0.4023583E+000  0.2561326E+03  0.7546771E-02  0.1109489E+00
         21   -1    0    0  501  502  0.00000000000E+00  0.00000000000E+00  0.27215687043E+02  0.27215687043E+02  0.00000000000E+00 0. -1.
         21   -1    0    0  502  503 -0.00000000000E+00 -0.00000000000E+00 -0.24710454727E+04  0.24710454727E+04  0.00000000000E+00 0.  1.
          6    1    1    2  501    0 -0.11815486718E+03 -0.14735792175E+03 -0.14174119763E+04  0.14403682308E+04  0.17300000000E+03 0. -1.
         -6    1    1    2    0  503  0.11815486718E+03  0.14735792175E+03 -0.10264178093E+04  0.10578929289E+04  0.17300000000E+03 0.  1.
<mgrwt>
<rscale>  2 0.25613264E+03</rscale>
<asrwt>0</asrwt>
<pdfrwt beam="1">  1       21 0.41870287E-02 0.25613264E+03</pdfrwt>
<pdfrwt beam="2">  1       21 0.38016085E+00 0.25613264E+03</pdfrwt>
<totfact> 0.38871499E+03</totfact>
</mgrwt>
</event>
<event>
 4    1  0.4023583E+000  0.1794772E+03  0.7546771E-02  0.1168310E+00
         21   -1    0    0  501  502  0.00000000000E+00  0.00000000000E+00  0.25480636981E+03  0.25480636981E+03  0.00000000000E+00 0. -1.
         21   -1    0    0  502  503 -0.00000000000E+00 -0.00000000000E+00 -0.16272222609E+03  0.16272222609E+03  0.00000000000E+00 0. -1.
          6    1    1    2  501    0  0.13885813596E+02 -0.45719421102E+02  0.14465005938E+03  0.23051186730E+03  0.17300000000E+03 0. -1.
         -6    1    1    2    0  503 -0.13885813596E+02  0.45719421102E+02 -0.52565915667E+02  0.18701672860E+03  0.17300000000E+03 0. -1.
<mgrwt>
<rscale>  2 0.17947724E+03</rscale>
<asrwt>0</asrwt>
<pdfrwt beam="1">  1       21 0.39200980E-01 0.17947724E+03</pdfrwt>
<pdfrwt beam="2">  1       21 0.25034189E-01 0.17947724E+03</pdfrwt>
<totfact> 0.95259132E+04</totfact>
</mgrwt>
</event>
<event>
 4    1  0.4023583E+000  0.1983165E+03  0.7546771E-02  0.1151167E+00
         21   -1    0    0  501  502  0.00000000000E+00  0.00000000000E+00  0.16985968675E+03  0.16985968675E+03  0.00000000000E+00 0.  1.
         21   -1    0    0  502  503 -0.00000000000E+00 -0.00000000000E+00 -0.55079348091E+03  0.55079348091E+03  0.00000000000E+00 0.  1.
          6    1    1    2  501    0 -0.50047232681E+02  0.83040341649E+02  0.83860561935E+02  0.21531841001E+03  0.17300000000E+03 0.  1.
         -6    1    1    2    0  503  0.50047232681E+02 -0.83040341649E+02 -0.46479435609E+03  0.50533475765E+03  0.17300000000E+03 0.  1.
<mgrwt>
<rscale>  2 0.19831647E+03</rscale>
<asrwt>0</asrwt>
<pdfrwt beam="1">  1       21 0.26132260E-01 0.19831647E+03</pdfrwt>
<pdfrwt beam="2">  1       21 0.84737459E-01 0.19831647E+03</pdfrwt>
<totfact> 0.16732904E+04</totfact>
</mgrwt>
</event>
<event>
 4    1  0.4023583E+000  0.2367174E+03  0.7546771E-02  0.1121999E+00
         21   -1    0    0  503  502  0.00000000000E+00  0.00000000000E+00  0.94091427938E+03  0.94091427938E+03  0.00000000000E+00 0.  1.
         21   -1    0    0  501  503 -0.00000000000E+00 -0.00000000000E+00 -0.15915172847E+03  0.15915172847E+03  0.00000000000E+00 0.  1.
          6    1    1    2  501    0  0.16150635649E+03 -0.46713035593E+01 -0.44237659496E+02  0.24081547870E+03  0.17300000000E+03 0.  1.
         -6    1    1    2    0  502 -0.16150635649E+03  0.46713035593E+01  0.82600021041E+03  0.85925052916E+03  0.17300000000E+03 0.  1.
<mgrwt>
<rscale>  2 0.23671739E+03</rscale>
<asrwt>0</asrwt>
<pdfrwt beam="1">  1       21 0.14475604E+00 0.23671739E+03</pdfrwt>
<pdfrwt beam="2">  1       21 0.24484882E-01 0.23671739E+03</pdfrwt>
<totfact> 0.49973212E+03</totfact>
</mgrwt>
</event>
<event>
 4    1  0.4023583E+000  0.1993374E+03  0.7546771E-02  0.1150299E+00
         21   -1    0    0  503  502  0.00000000000E+00  0.00000000000E+00  0.16821259964E+04  0.16821259964E+04  0.00000000000E+00 0.  1.
         21   -1    0    0  501  503 -0.00000000000E+00 -0.00000000000E+00 -0.26457758617E+02  0.26457758617E+02  0.00000000000E+00 0.  1.
          6    1    1    2  501    0  0.53175289899E+02  0.83539209877E+02  0.54815897023E+03  0.58327837924E+03  0.17300000000E+03 0.  1.
         -6    1    1    2    0  502 -0.53175289899E+02 -0.83539209877E+02  0.11075092676E+04  0.11253053758E+04  0.17300000000E+03 0.  1.
<mgrwt>
<rscale>  2 0.19933743E+03</rscale>
<asrwt>0</asrwt>
<pdfrwt beam="1">  1       21 0.25878853E+00 0.19933743E+03</pdfrwt>
<pdfrwt beam="2">  1       21 0.40704257E-02 0.19933743E+03</pdfrwt>
<totfact> 0.22344316E+04</totfact>
</mgrwt>
</event>
<event>
 4    1  0.4023583E+000  0.2813012E+03  0.7546771E-02  0.1094980E+00
         21   -1    0    0  503  502  0.00000000000E+00  0.00000000000E+00  0.37204197557E+03  0.37204197557E+03  0.00000000000E+00 0.  1.
         21   -1    0    0  501  503 -0.00000000000E+00 -0.00000000000E+00 -0.22157962376E+03  0.22157962376E+03  0.00000000000E+00 0. -1.
          6    1    1    2  501    0  0.19150168490E+03 -0.11193060670E+03  0.15787268960E+02  0.28174384447E+03  0.17300000000E+03 0.  1.
         -6    1    1    2    0  502 -0.19150168490E+03  0.11193060670E+03  0.13467508286E+03  0.31187775486E+03  0.17300000000E+03 0. -1.
<mgrwt>
<rscale>  2 0.28130118E+03</rscale>
<asrwt>0</asrwt>
<pdfrwt beam="1">  1       21 0.57237227E-01 0.28130118E+03</pdfrwt>
<pdfrwt beam="2">  1       21 0.34089173E-01 0.28130118E+03</pdfrwt>
<totfact> 0.22736216E+04</totfact>
</mgrwt>
</event>
<event>
 4    1  0.4023583E+000  0.2091063E+03  0.7546771E-02  0.1142276E+00
         21   -1    0    0  501  502  0.00000000000E+00  0.00000000000E+00  0.75387134285E+02  0.75387134285E+02  0.00000000000E+00 0. -1.
         21   -1    0    0  502  503 -0.00000000000E+00 -0.00000000000E+00 -0.99090039103E+03  0.99090039103E+03  0.00000000000E+00 0.  1.
          6    1    1    2  501    0 -0.11735927587E+03  0.48210408915E+01 -0.11444281988E+03  0.23837491708E+03  0.17300000000E+03 0. -1.
         -6    1    1    2    0  503  0.11735927587E+03 -0.48210408915E+01 -0.80107043686E+03  0.82791260824E+03  0.17300000000E+03 0.  1.
<mgrwt>
<rscale>  2 0.20910629E+03</rscale>
<asrwt>0</asrwt>
<pdfrwt beam="1">  1       21 0.11598021E-01 0.20910629E+03</pdfrwt>
<pdfrwt beam="2">  1       21 0.15244621E+00 0.20910629E+03</pdfrwt>
<totfact> 0.17662390E+04</totfact>
</mgrwt>
</event>
<event>
 4    1  0.4023583E+000  0.1769789E+03  0.7546771E-02  0.1170759E+00
         21   -1    0    0  501  502  0.00000000000E+00  0.00000000000E+00  0.14845213083E+04  0.14845213083E+04  0.00000000000E+00 0. -1.
         21   -1    0    0  502  503 -0.00000000000E+00 -0.00000000000E+00 -0.28397222788E+02  0.28397222788E+02  0.00000000000E+00 0. -1.
          6    1    1    2  501    0  0.13847479819E+01  0.37290887347E+02  0.11115607750E+04  0.11255615862E+04  0.17300000000E+03 0. -1.
         -6    1    1    2    0  503 -0.13847479819E+01 -0.37290887347E+02  0.34456331055E+03  0.38735694493E+03  0.17300000000E+03 0. -1.
<mgrwt>
<rscale>  2 0.17697889E+03</rscale>
<asrwt>0</asrwt>
<pdfrwt beam="1">  1       21 0.22838783E+00 0.17697889E+03</pdfrwt>
<pdfrwt beam="2">  1       21 0.43688047E-02 0.17697889E+03</pdfrwt>
<totfact> 0.30597414E+04</totfact>
</mgrwt>
</event>
<event>
 4    1  0.4023583E+000  0.1774252E+03  0.7546771E-02  0.1170318E+00
         21   -1    0    0  501  502  0.00000000000E+00  0.00000000000E+00  0.67486696824E+03  0.67486696824E+03  0.00000000000E+00 0. -1.
         21   -1    0    0  502  503 -0.00000000000E+00 -0.00000000000E+00 -0.37185328427E+03  0.37185328427E+03  0.00000000000E+00 0. -1.
          6    1    1    2  501    0 -0.34401162565E+02 -0.19164138484E+02  0.64094191982E+03  0.66504605011E+03  0.17300000000E+03 0. -1.
         -6    1    1    2    0  503  0.34401162565E+02  0.19164138484E+02 -0.33792823585E+03  0.38167420239E+03  0.17300000000E+03 0. -1.
<mgrwt>
<rscale>  2 0.17742521E+03</rscale>
<asrwt>0</asrwt>
<pdfrwt beam="1">  1       21 0.10382569E+00 0.17742521E+03</pdfrwt>
<pdfrwt beam="2">  1       21 0.57208198E-01 0.17742521E+03</pdfrwt>
<totfact> 0.21843093E+03</totfact>
</mgrwt>
</event>
<event>
 4    1  0.4023583E+000  0.1867859E+03  0.7546771E-02  0.1161393E+00
         21   -1    0    0  501  502  0.00000000000E+00  0.00000000000E+00  0.32378261508E+03  0.32378261508E+03  0.00000000000E+00 0.  1.
         21   -1    0    0  502  503 -0.00000000000E+00 -0.00000000000E+00 -0.10802386122E+03  0.10802386122E+03  0.00000000000E+00 0.  1.
          6    1    1    2  501    0 -0.52130275056E+02 -0.47354186043E+02  0.11866361612E+03  0.22129174929E+03  0.17300000000E+03 0.  1.
         -6    1    1    2    0  503  0.52130275056E+02  0.47354186043E+02  0.97095137733E+02  0.21051472700E+03  0.17300000000E+03 0.  1.
<mgrwt>
<rscale>  2 0.18678593E+03</rscale>
<asrwt>0</asrwt>
<pdfrwt beam="1">  1       21 0.49812710E-01 0.18678593E+03</pdfrwt>
<pdfrwt beam="2">  1       21 0.16619056E-01 0.18678593E+03</pdfrwt>
<totfact> 0.12515929E+05</totfact>
</mgrwt>
</event>
<event>
 4    1  0.4023583E+000  0.1792934E+03  0.7546771E-02  0.1168489E+00
         21   -1    0    0  503  502  0.00000000000E+00  0.00000000000E+00  0.72605471281E+02  0.72605471281E+02  0.00000000000E+00 0. -1.
         21   -1    0    0  501  503 -0.00000000000E+00 -0.00000000000E+00 -0.13055536511E+04  0.13055536511E+04  0.00000000000E+00 0. -1.
          6    1    1    2  501    0  0.21208960778E+02  0.42039141657E+02 -0.11766544332E+04  0.11902360121E+04  0.17300000000E+03 0.  1.
         -6    1    1    2    0  502 -0.21208960778E+02 -0.42039141657E+02 -0.56293746611E+02  0.18792311022E+03  0.17300000000E+03 0.  1.
<mgrwt>
<rscale>  2 0.17929336E+03</rscale>
<asrwt>0</asrwt>
<pdfrwt beam="1">  1       21 0.11170073E-01 0.17929336E+03</pdfrwt>
<pdfrwt beam="2">  1       21 0.20085441E+00 0.17929336E+03</pdfrwt>
<totfact> 0.89461406E+03</totfact>
</mgrwt>
</event>
<event>
 4    1  0.4023583E+000  0.2206524E+03  0.7546771E-02  0.1133398E+00
         21   -1    0    0  503  502  0.00000000000E+00  0.00000000000E+00  0.38823599072E+02  0.38823599072E+02  0.00000000000E+00 0.  1.
         21   -1    0    0  501  503 -0.00000000000E+00 -0.00000000000E+00 -0.13571520640E+04  0.13571520640E+04  0.00000000000E+00 0.  1.
          6    1    1    2  501    0  0.34032455234E+02 -0.13266605285E+03 -0.85152934201E+03  0.87965317591E+03  0.17300000000E+03 0.  1.
         -6    1    1    2    0  502 -0.34032455234E+02  0.13266605285E+03 -0.46679912290E+03  0.51632248715E+03  0.17300000000E+03 0.  1.
<mgrwt>
<rscale>  2 0.22065242E+03</rscale>
<asrwt>0</asrwt>
<pdfrwt beam="1">  1       21 0.59728613E-02 0.22065242E+03</pdfrwt>
<pdfrwt beam="2">  1       21 0.20879263E+00 0.22065242E+03</pdfrwt>
<totfact> 0.22987048E+04</totfact>
</mgrwt>
</event>
<event>
 4    1  0.4023583E+000  0.1862663E+03  0.7546771E-02  0.1161873E+00
         21   -1    0    0  503  502  0.00000000000E+00  0.00000000000E+00  0.15344742406E+03  0.15344742406E+03  0.00000000000E+00 0.  1.
         21   -1    0    0  501  503 -0.00000000000E+00 -0.00000000000E+00 -0.23104867981E+03  0.23104867981E+03  0.00000000000E+00 0. -1.
          6    1    1    2  501    0 -0.54450503118E+02 -0.42441393246E+02 -0.10677463641E+02  0.18657207020E+03  0.17300000000E+03 0.  1.
         -6    1    1    2    0  502  0.54450503118E+02  0.42441393246E+02 -0.66923792116E+02  0.19792403366E+03  0.17300000000E+03 0. -1.
<mgrwt>
<rscale>  2 0.18626629E+03</rscale>
<asrwt>0</asrwt>
<pdfrwt beam="1">  1       21 0.23607296E-01 0.18626629E+03</pdfrwt>
<pdfrwt beam="2">  1       21 0.35545950E-01 0.18626629E+03</pdfrwt>
<totfact> 0.12919210E+05</totfact>
</mgrwt>
</event>
<event>
 4    1  0.4023583E+000  0.1910085E+03  0.7546771E-02  0.1157555E+00
         21   -1    0    0  503  502  0.00000000000E+00  0.00000000000E+00  0.13760344153E+03  0.13760344153E+03  0.00000000000E+00 0. -1.
         21   -1    0    0  501  503 -0.00000000000E+00 -0.00000000000E+00 -0.26617881030E+03  0.26617881030E+03  0.00000000000E+00 0. -1.
          6    1    1    2  501    0  0.74892048335E+02 -0.30764111613E+02 -0.76896889782E+02  0.20590624353E+03  0.17300000000E+03 0. -1.
         -6    1    1    2    0  502 -0.74892048335E+02  0.30764111613E+02 -0.51678478987E+02  0.19787600829E+03  0.17300000000E+03 0. -1.
<mgrwt>
<rscale>  2 0.19100851E+03</rscale>
<asrwt>0</asrwt>
<pdfrwt beam="1">  1       21 0.21169760E-01 0.19100851E+03</pdfrwt>
<pdfrwt beam="2">  1       21 0.40950586E-01 0.19100851E+03</pdfrwt>
<totfact> 0.11927119E+05</totfact>
</mgrwt>
</event>
<event>
 4    1  0.4023583E+000  0.1886386E+03  0.7546771E-02  0.1159695E+00
         21   -1    0    0  501  502  0.00000000000E+00  0.00000000000E+00  0.84647976927E+02  0.84647976927E+02  0.00000000000E+00 0.  1.
         21   -1    0    0  502  503 -0.00000000000E+00 -0.00000000000E+00 -0.43714646835E+03  0.43714646835E+03  0.00000000000E+00 0.  1.
          6    1    1    2  501    0  0.47884722830E+02  0.57987559223E+02 -0.12515780762E+03  0.22638237677E+03  0.17300000000E+03 0.  1.
         -6    1    1    2    0  503 -0.47884722830E+02 -0.57987559223E+02 -0.22734068381E+03  0.29541206851E+03  0.17300000000E+03 0.  1.
<mgrwt>
<rscale>  2 0.18863855E+03</rscale>
<asrwt>0</asrwt>
<pdfrwt beam="1">  1       21 0.13022766E-01 0.18863855E+03</pdfrwt>
<pdfrwt beam="2">  1       21 0.67253303E-01 0.18863855E+03</pdfrwt>
<totfact> 0.10267855E+05</totfact>
</mgrwt>
</event>
<event>
 4    1  0.4023583E+000  0.2016774E+03  0.7546771E-02  0.1148331E+00
         21   -1    0    0  501  502  0.00000000000E+00  0.00000000000E+00  0.39788687364E+03  0.39788687364E+03  0.00000000000E+00 0.  1.
         21   -1    0    0  502  503 -0.00000000000E+00 -0.00000000000E+00 -0.10333201694E+03  0.10333201694E+03  0.00000000000E+00 0.  1.
          6    1    1    2  501    0 -0.99895097526E+02  0.27672197829E+02  0.17322268468E+03  0.26585687790E+03  0.17300000000E+03 0.  1.
         -6    1    1    2    0  503  0.99895097526E+02 -0.27672197829E+02  0.12133217202E+03  0.23536201267E+03  0.17300000000E+03 0.  1.
<mgrwt>
<rscale>  2 0.20167742E+03</rscale>
<asrwt>0</asrwt>
<pdfrwt beam="1">  1       21 0.61213364E-01 0.20167742E+03</pdfrwt>
<pdfrwt beam="2">  1       21 0.15897234E-01 0.20167742E+03</pdfrwt>
<totfact> 0.87233139E+04</totfact>
</mgrwt>
</event>
<event>
 4    1  0.4023583E+000  0.2765835E+03  0.7546771E-02  0.1097570E+00
         21   -1    0    0  501  502  0.00000000000E+00  0.00000000000E+00  0.73580165415E+03  0.73580165415E+03  0.00000000000E+00 0. -1.
         21   -1    0    0  502  503 -0.00000000000E+00 -0.00000000000E+00 -0.17264904005E+03  0.17264904005E+03  0.00000000000E+00 0.  1.
          6    1    1    2  501    0 -0.45383786044E+02 -0.21097336381E+03  0.56806905600E+03  0.63182347270E+03  0.17300000000E+03 0. -1.
         -6    1    1    2    0  503  0.45383786044E+02  0.21097336381E+03 -0.49164419020E+01  0.27662722150E+03  0.17300000000E+03 0.  1.
<mgrwt>
<rscale>  2 0.27658353E+03</rscale>
<asrwt>0</asrwt>
<pdfrwt beam="1">  1       21 0.11320025E+00 0.27658353E+03</pdfrwt>
<pdfrwt beam="2">  1       21 0.26561391E-01 0.27658353E+03</pdfrwt>
<totfact> 0.77885256E+03</totfact>
</mgrwt>
</event>
<event>
 4    1  0.4023583E+000  0.1831208E+03  0.7546771E-02  0.1164816E+00
         21   -1    0    0  503  502  0.00000000000E+00  0.00000000000E+00  0.53897787142E+02  0.53897787142E+02  0.00000000000E+00 0.  1.
         21   -1    0    0  501  503 -0.00000000000E+00 -0.00000000000E+00 -0.62469959805E+03  0.62469959805E+03  0.00000000000E+00 0. -1.
          6    1    1    2  501    0 -0.57959435046E+02 -0.15650657301E+02 -0.26378246506E+03  0.32111435355E+03  0.17300000000E+03 0.  1.
         -6    1    1    2    0  502  0.57959435046E+02  0.15650657301E+02 -0.30701934585E+03  0.35748303164E+03  0.17300000000E+03 0.  1.
<mgrwt>
<rscale>  2 0.18312083E+03</rscale>
<asrwt>0</asrwt>
<pdfrwt beam="1">  1       21 0.82919669E-02 0.18312083E+03</pdfrwt>
<pdfrwt beam="2">  1       21 0.96107635E-01 0.18312083E+03</pdfrwt>
<totfact> 0.10202415E+05</totfact>
</mgrwt>
</event>
<event>
 4    1  0.4023583E+000  0.1778530E+03  0.7546771E-02  0.1169897E+00
         21   -1    0    0  501  502  0.00000000000E+00  0.00000000000E+00  0.21539777000E+03  0.21539777000E+03  0.00000000000E+00 0.  1.
         21   -1    0    0  502  503 -0.00000000000E+00 -0.00000000000E+00 -0.20840050750E+03  0.20840050750E+03  0.00000000000E+00 0.  1.
          6    1    1    2  501    0  0.23667603631E+02  0.33801177905E+02  0.11865480576E+03  0.21380046309E+03  0.17300000000E+03 0.  1.
         -6    1    1    2    0  503 -0.23667603631E+02 -0.33801177905E+02 -0.11165754326E+03  0.20999781441E+03  0.17300000000E+03 0.  1.
<mgrwt>
<rscale>  2 0.17785296E+03</rscale>
<asrwt>0</asrwt>
<pdfrwt beam="1">  1       21 0.33138119E-01 0.17785296E+03</pdfrwt>
<pdfrwt beam="2">  1       21 0.32061616E-01 0.17785296E+03</pdfrwt>
<totfact> 0.82532738E+04</totfact>
</mgrwt>
</event>
<event>
 4    1  0.4023583E+000  0.2595052E+03  0.7546771E-02  0.1107441E+00
         21   -1    0    0  503  502  0.00000000000E+00  0.00000000000E+00  0.65762481522E+02  0.65762481522E+02  0.00000000000E+00 0. -1.
         21   -1    0    0  501  503 -0.00000000000E+00 -0.00000000000E+00 -0.10241262066E+04  0.10241262066E+04  0.00000000000E+00 0.  1.
          6    1    1    2  501    0  0.15038063208E+03  0.12165376541E+03 -0.47399241157E+03  0.54038114269E+03  0.17300000000E+03 0. -1.
         -6    1    1    2    0  502 -0.15038063208E+03 -0.12165376541E+03 -0.48437131351E+03  0.54950754544E+03  0.17300000000E+03 0. -1.
<mgrwt>
<rscale>  2 0.25950525E+03</rscale>
<asrwt>0</asrwt>
<pdfrwt beam="1">  1       21 0.10117306E-01 0.25950525E+03</pdfrwt>
<pdfrwt beam="2">  1       21 0.15755787E+00 0.25950525E+03</pdfrwt>
<totfact> 0.20021413E+04</totfact>
</mgrwt>
</event>
<event>
 4    1  0.4023583E+000  0.1733931E+03  0.7546771E-02  0.1174355E+00
         21   -1    0    0  501  502  0.00000000000E+00  0.00000000000E+00  0.39750507207E+03  0.39750507207E+03  0.00000000000E+00 0.  1.
         21   -1    0    0  502  503 -0.00000000000E+00 -0.00000000000E+00 -0.81108882445E+02  0.81108882445E+02  0.00000000000E+00 0.  1.
          6    1    1    2  501    0 -0.11398575791E+02  0.24995716456E+01  0.96028085209E+02  0.19820839674E+03  0.17300000000E+03 0.  1.
         -6    1    1    2    0  503  0.11398575791E+02 -0.24995716456E+01  0.22036810442E+03  0.28040555778E+03  0.17300000000E+03 0.  1.
<mgrwt>
<rscale>  2 0.17339312E+03</rscale>
<asrwt>0</asrwt>
<pdfrwt beam="1">  1       21 0.61154625E-01 0.17339312E+03</pdfrwt>
<pdfrwt beam="2">  1       21 0.12478290E-01 0.17339312E+03</pdfrwt>
<totfact> 0.13699154E+05</totfact>
</mgrwt>
</event>
<event>
 4    1  0.4023583E+000  0.2454802E+03  0.7546771E-02  0.1116195E+00
         21   -1    0    0  501  502  0.00000000000E+00  0.00000000000E+00  0.54927943139E+03  0.54927943139E+03  0.00000000000E+00 0. -1.
         21   -1    0    0  502  503 -0.00000000000E+00 -0.00000000000E+00 -0.12212695069E+03  0.12212695069E+03  0.00000000000E+00 0.  1.
          6    1    1    2  501    0 -0.14791565133E+03  0.91937322708E+02  0.32062631238E+03  0.40380904324E+03  0.17300000000E+03 0.  1.
         -6    1    1    2    0  503  0.14791565133E+03 -0.91937322708E+02  0.10652616833E+03  0.26759733884E+03  0.17300000000E+03 0. -1.
<mgrwt>
<rscale>  2 0.24548016E+03</rscale>
<asrwt>0</asrwt>
<pdfrwt beam="1">  1       21 0.84504526E-01 0.24548016E+03</pdfrwt>
<pdfrwt beam="2">  1       21 0.18788762E-01 0.24548016E+03</pdfrwt>
<totfact> 0.30646757E+04</totfact>
</mgrwt>
</event>
<event>
 4    1  0.4023583E+000  0.2407332E+03  0.7546771E-02  0.1119305E+00
         21   -1    0    0  503  502  0.00000000000E+00  0.00000000000E+00  0.40311151666E+02  0.40311151666E+02  0.00000000000E+00 0.  1.
         21   -1    0    0  501  503 -0.00000000000E+00 -0.00000000000E+00 -0.15278662335E+04  0.15278662335E+04  0.00000000000E+00 0. -1.
          6    1    1    2  501    0 -0.85913634483E+02 -0.14367429587E+03 -0.93433102314E+03  0.96484554032E+03  0.17300000000E+03 0.  1.
         -6    1    1    2    0  502  0.85913634483E+02  0.14367429587E+03 -0.55322405870E+03  0.60333184485E+03  0.17300000000E+03 0. -1.
<mgrwt>
<rscale>  2 0.24073316E+03</rscale>
<asrwt>0</asrwt>
<pdfrwt beam="1">  1       21 0.62017162E-02 0.24073316E+03</pdfrwt>
<pdfrwt beam="2">  1       21 0.23505632E+00 0.24073316E+03</pdfrwt>
<totfact> 0.14618972E+04</totfact>
</mgrwt>
</event>
<event>
 4    1  0.4023583E+000  0.1891163E+03  0.7546771E-02  0.1159261E+00
         21   -1    0    0  501  502  0.00000000000E+00  0.00000000000E+00  0.29308038773E+03  0.29308038773E+03  0.00000000000E+00 0. -1.
         21   -1    0    0  502  503 -0.00000000000E+00 -0.00000000000E+00 -0.41807753972E+03  0.41807753972E+03  0.00000000000E+00 0.  1.
          6    1    1    2  501    0  0.42864889824E+02  0.63234400132E+02  0.23671920481E+03  0.30298674900E+03  0.17300000000E+03 0. -1.
         -6    1    1    2    0  503 -0.42864889824E+02 -0.63234400132E+02 -0.36171635681E+03  0.40817117846E+03  0.17300000000E+03 0.  1.
<mgrwt>
<rscale>  2 0.18911633E+03</rscale>
<asrwt>0</asrwt>
<pdfrwt beam="1">  1       21 0.45089290E-01 0.18911633E+03</pdfrwt>
<pdfrwt beam="2">  1       21 0.64319622E-01 0.18911633E+03</pdfrwt>
<totfact> 0.10549439E+04</totfact>
</mgrwt>
</event>
<event>
 4    1  0.4023583E+000  0.1924720E+03  0.7546771E-02  0.1156250E+00
         21   -1    0    0  503  502  0.00000000000E+00  0.00000000000E+00  0.78431399015E+03  0.78431399015E+03  0.00000000000E+00 0. -1.
         21   -1    0    0  501  503 -0.00000000000E+00 -0.00000000000E+00 -0.47265796157E+02  0.47265796157E+02  0.00000000000E+00 0. -1.
          6    1    1    2  501    0 -0.16599967865E+01  0.84342944142E+02  0.35756846337E+03  0.40607966436E+03  0.17300000000E+03 0. -1.
         -6    1    1    2    0  502  0.16599967865E+01 -0.84342944142E+02  0.37947973062E+03  0.42550012194E+03  0.17300000000E+03 0. -1.
<mgrwt>
<rscale>  2 0.19247204E+03</rscale>
<asrwt>0</asrwt>
<pdfrwt beam="1">  1       21 0.12066368E+00 0.19247204E+03</pdfrwt>
<pdfrwt beam="2">  1       21 0.72716615E-02 0.19247204E+03</pdfrwt>
<totfact> 0.73786738E+04</totfact>
</mgrwt>
</event>
<event>
 4    1  0.4023583E+000  0.1813727E+03  0.7546771E-02  0.1166481E+00
         21   -1    0    0  503  502  0.00000000000E+00  0.00000000000E+00  0.47999053403E+02  0.47999053403E+02  0.00000000000E+00 0. -1.
         21   -1    0    0  501  503 -0.00000000000E+00 -0.00000000000E+00 -0.69808915399E+03  0.69808915399E+03  0.00000000000E+00 0. -1.
          6    1    1    2  501    0 -0.51925770839E+02  0.16454664887E+02 -0.37544312407E+03  0.41695752912E+03  0.17300000000E+03 0. -1.
         -6    1    1    2    0  502  0.51925770839E+02 -0.16454664887E+02 -0.27464697651E+03  0.32913067827E+03  0.17300000000E+03 0. -1.
<mgrwt>
<rscale>  2 0.18137266E+03</rscale>
<asrwt>0</asrwt>
<pdfrwt beam="1">  1       21 0.73844696E-02 0.18137266E+03</pdfrwt>
<pdfrwt beam="2">  1       21 0.10739833E+00 0.18137266E+03</pdfrwt>
<totfact> 0.95881930E+04</totfact>
</mgrwt>
</event>
<event>
 4    1  0.4023583E+000  0.1961610E+03  0.7546771E-02  0.1153019E+00
         21   -1    0    0  501  502  0.00000000000E+00  0.00000000000E+00  0.10939054331E+04  0.10939054331E+04  0.00000000000E+00 0. -1.
         21   -1    0    0  502  503 -0.00000000000E+00 -0.00000000000E+00 -0.48636057182E+02  0.48636057182E+02  0.00000000000E+00 0. -1.
          6    1    1    2  501    0  0.31402582533E+02 -0.86971313939E+02  0.22210490128E+03  0.29632704705E+03  0.17300000000E+03 0. -1.
         -6    1    1    2    0  503 -0.31402582533E+02  0.86971313939E+02  0.82316447466E+03  0.84621444326E+03  0.17300000000E+03 0. -1.
<mgrwt>
<rscale>  2 0.19616098E+03</rscale>
<asrwt>0</asrwt>
<pdfrwt beam="1">  1       21 0.16829312E+00 0.19616098E+03</pdfrwt>
<pdfrwt beam="2">  1       21 0.74824712E-02 0.19616098E+03</pdfrwt>
<totfact> 0.29501324E+04</totfact>
</mgrwt>
</event>
<event>
 4    1  0.4023583E+000  0.1999102E+03  0.7546771E-02  0.1149815E+00
         21   -1    0    0  501  502  0.00000000000E+00  0.00000000000E+00  0.28836055742E+03  0.28836055742E+03  0.00000000000E+00 0.  1.
         21   -1    0    0  502  503 -0.00000000000E+00 -0.00000000000E+00 -0.14246012955E+03  0.14246012955E+03  0.00000000000E+00 0.  1.
          6    1    1    2  501    0 -0.85049852369E+02 -0.52930266243E+02  0.10845145687E+03  0.22743308680E+03  0.17300000000E+03 0.  1.
         -6    1    1    2    0  503  0.85049852369E+02  0.52930266243E+02  0.37448971001E+02  0.20338760017E+03  0.17300000000E+03 0.  1.
<mgrwt>
<rscale>  2 0.19991021E+03</rscale>
<asrwt>0</asrwt>
<pdfrwt beam="1">  1       21 0.44363163E-01 0.19991021E+03</pdfrwt>
<pdfrwt beam="2">  1       21 0.21916943E-01 0.19991021E+03</pdfrwt>
<totfact> 0.94576665E+04</totfact>
</mgrwt>
</event>
<event>
 4    1  0.4023583E+000  0.1920361E+03  0.7546771E-02  0.1156638E+00
         21   -1    0    0  501  502  0.00000000000E+00  0.00000000000E+00  0.68420250896E+02  0.68420250896E+02  0.00000000000E+00 0.  1.
         21   -1    0    0  502  503 -0.00000000000E+00 -0.00000000000E+00 -0.71916551006E+03  0.71916551006E+03  0.00000000000E+00 0.  1.
          6    1    1    2  501    0  0.55302198015E+02 -0.62374202313E+02 -0.12826630770E+03  0.23093315031E+03  0.17300000000E+03 0.  1.
         -6    1    1    2    0  503 -0.55302198015E+02  0.62374202313E+02 -0.52247895146E+03  0.55665261065E+03  0.17300000000E+03 0.  1.
<mgrwt>
<rscale>  2 0.19203613E+03</rscale>
<asrwt>0</asrwt>
<pdfrwt beam="1">  1       21 0.10526193E-01 0.19203613E+03</pdfrwt>
<pdfrwt beam="2">  1       21 0.11064084E+00 0.19203613E+03</pdfrwt>
<totfact> 0.47739766E+04</totfact>
</mgrwt>
</event>
<event>
 4    1  0.4023583E+000  0.2985805E+03  0.7546771E-02  0.1085952E+00
         21   -1    0    0  503  502  0.00000000000E+00  0.00000000000E+00  0.10874510336E+04  0.10874510336E+04  0.00000000000E+00 0. -1.
         21   -1    0    0  501  503 -0.00000000000E+00 -0.00000000000E+00 -0.20269620048E+03  0.20269620048E+03  0.00000000000E+00 0. -1.
          6    1    1    2  501    0  0.20727787876E+03  0.12750368928E+03 -0.55437009906E+02  0.30368334144E+03  0.17300000000E+03 0. -1.
         -6    1    1    2    0  502 -0.20727787876E+03 -0.12750368928E+03  0.94019184303E+03  0.98646389265E+03  0.17300000000E+03 0. -1.
<mgrwt>
<rscale>  2 0.29858049E+03</rscale>
<asrwt>0</asrwt>
<pdfrwt beam="1">  1       21 0.16730016E+00 0.29858049E+03</pdfrwt>
<pdfrwt beam="2">  1       21 0.31184031E-01 0.29858049E+03</pdfrwt>
<totfact> 0.20258001E+03</totfact>
</mgrwt>
</event>
<event>
 4    1  0.4023583E+000  0.2087772E+03  0.7546771E-02  0.1142538E+00
         21   -1    0    0  501  502  0.00000000000E+00  0.00000000000E+00  0.71239684757E+03  0.71239684757E+03  0.00000000000E+00 0.  1.
         21   -1    0    0  502  503 -0.00000000000E+00 -0.00000000000E+00 -0.13366558234E+03  0.13366558234E+03  0.00000000000E+00 0.  1.
          6    1    1    2  501    0 -0.18116992021E+02 -0.11545868534E+03  0.60087688505E+03  0.63611395552E+03  0.17300000000E+03 0.  1.
         -6    1    1    2    0  503  0.18116992021E+02  0.11545868534E+03 -0.22145619823E+02  0.20994847439E+03  0.17300000000E+03 0.  1.
<mgrwt>
<rscale>  2 0.20877723E+03</rscale>
<asrwt>0</asrwt>
<pdfrwt beam="1">  1       21 0.10959951E+00 0.20877723E+03</pdfrwt>
<pdfrwt beam="2">  1       21 0.20563936E-01 0.20877723E+03</pdfrwt>
<totfact> 0.14284964E+04</totfact>
</mgrwt>
</event>
<event>
 4    1  0.4023583E+000  0.1875702E+03  0.7546771E-02  0.1160671E+00
         21   -1    0    0  503  502  0.00000000000E+00  0.00000000000E+00  0.12051653494E+04  0.12051653494E+04  0.00000000000E+00 0. -1.
         21   -1    0    0  501  503 -0.00000000000E+00 -0.00000000000E+00 -0.47079453936E+02  0.47079453936E+02  0.00000000000E+00 0. -1.
          6    1    1    2  501    0 -0.29494042305E+02  0.66209420907E+02  0.19311724390E+03  0.26921525930E+03  0.17300000000E+03 0. -1.
         -6    1    1    2    0  502  0.29494042305E+02 -0.66209420907E+02  0.96496865158E+03  0.98302954405E+03  0.17300000000E+03 0. -1.
<mgrwt>
<rscale>  2 0.18757022E+03</rscale>
<asrwt>0</asrwt>
<pdfrwt beam="1">  1       21 0.18541003E+00 0.18757022E+03</pdfrwt>
<pdfrwt beam="2">  1       21 0.72429938E-02 0.18757022E+03</pdfrwt>
<totfact> 0.23943189E+04</totfact>
</mgrwt>
</event>
<event>
 4    1  0.4023583E+000  0.1731614E+03  0.7546771E-02  0.1174591E+00
         21   -1    0    0  501  502  0.00000000000E+00  0.00000000000E+00  0.14844944747E+03  0.14844944747E+03  0.00000000000E+00 0.  1.
         21   -1    0    0  502  503 -0.00000000000E+00 -0.00000000000E+00 -0.71428085563E+03  0.71428085563E+03  0.00000000000E+00 0.  1.
          6    1    1    2  501    0  0.36159085416E+01 -0.65414108900E+01  0.82401485149E+02  0.19176774913E+03  0.17300000000E+03 0.  1.
         -6    1    1    2    0  503 -0.36159085416E+01  0.65414108900E+01 -0.64823289332E+03  0.67096255397E+03  0.17300000000E+03 0.  1.
<mgrwt>
<rscale>  2 0.17316138E+03</rscale>
<asrwt>0</asrwt>
<pdfrwt beam="1">  1       21 0.22838376E-01 0.17316138E+03</pdfrwt>
<pdfrwt beam="2">  1       21 0.10988937E+00 0.17316138E+03</pdfrwt>
<totfact> 0.11939521E+04</totfact>
</mgrwt>
</event>
<event>
 4    1  0.4023583E+000  0.2754040E+03  0.7546771E-02  0.1098226E+00
         21   -1    0    0  503  502  0.00000000000E+00  0.00000000000E+00  0.51297805614E+03  0.51297805614E+03  0.00000000000E+00 0. -1.
         21   -1    0    0  501  503 -0.00000000000E+00 -0.00000000000E+00 -0.15615970043E+03  0.15615970043E+03  0.00000000000E+00 0. -1.
          6    1    1    2  501    0 -0.85048660730E+02 -0.19668527722E+03  0.10126343985E+03  0.29343083890E+03  0.17300000000E+03 0. -1.
         -6    1    1    2    0  502  0.85048660730E+02  0.19668527722E+03  0.25555491586E+03  0.37570691767E+03  0.17300000000E+03 0. -1.
<mgrwt>
<rscale>  2 0.27540402E+03</rscale>
<asrwt>0</asrwt>
<pdfrwt beam="1">  1       21 0.78919700E-01 0.27540402E+03</pdfrwt>
<pdfrwt beam="2">  1       21 0.24024570E-01 0.27540402E+03</pdfrwt>
<totfact> 0.22209582E+04</totfact>
</mgrwt>
</event>
<event>
 4    1  0.4023583E+000  0.1738492E+03  0.7546771E-02  0.1173892E+00
         21   -1    0    0  503  502  0.00000000000E+00  0.00000000000E+00  0.76121567554E+03  0.76121567554E+03  0.00000000000E+00 0.  1.
         21   -1    0    0  501  503 -0.00000000000E+00 -0.00000000000E+00 -0.80925056613E+02  0.80925056613E+02  0.00000000000E+00 0.  1.
          6    1    1    2  501    0  0.76446783675E+01  0.15365890362E+02  0.39626928983E+02  0.17830828695E+03  0.17300000000E+03 0.  1.
         -6    1    1    2    0  502 -0.76446783675E+01 -0.15365890362E+02  0.64066368995E+03  0.66383244521E+03  0.17300000000E+03 0.  1.
<mgrwt>
<rscale>  2 0.17384922E+03</rscale>
<asrwt>0</asrwt>
<pdfrwt beam="1">  1       21 0.11711010E+00 0.17384922E+03</pdfrwt>
<pdfrwt beam="2">  1       21 0.12450009E-01 0.17384922E+03</pdfrwt>
<totfact> 0.31149188E+04</totfact>
</mgrwt>
</event>
<event>
 4    1  0.4023583E+000  0.1792273E+03  0.7546771E-02  0.1168553E+00
         21   -1    0    0  503  502  0.00000000000E+00  0.00000000000E+00  0.36588967553E+02  0.36588967553E+02  0.00000000000E+00 0. -1.
         21   -1    0    0  501  503 -0.00000000000E+00 -0.00000000000E+00 -0.12793257048E+04  0.12793257048E+04  0.00000000000E+00 0. -1.
          6    1    1    2  501    0  0.40256860209E+02  0.23933191707E+02 -0.98991767526E+03  0.10060116382E+04  0.17300000000E+03 0. -1.
         -6    1    1    2    0  502 -0.40256860209E+02 -0.23933191707E+02 -0.25281906202E+03  0.30990303416E+03  0.17300000000E+03 0. -1.
<mgrwt>
<rscale>  2 0.17922726E+03</rscale>
<asrwt>0</asrwt>
<pdfrwt beam="1">  1       21 0.56290720E-02 0.17922726E+03</pdfrwt>
<pdfrwt beam="2">  1       21 0.19681934E+00 0.17922726E+03</pdfrwt>
<totfact> 0.31249448E+04</totfact>
</mgrwt>
</event>
<event>
 4    1  0.4023583E+000  0.2392126E+03  0.7546771E-02  0.1120318E+00
         21   -1    0    0  501  502  0.00000000000E+00  0.00000000000E+00  0.58444298060E+02  0.58444298060E+02  0.00000000000E+00 0. -1.
         21   -1    0    0  502  503 -0.00000000000E+00 -0.00000000000E+00 -0.11352385875E+04  0.11352385875E+04  0.00000000000E+00 0.  1.
          6    1    1    2  501    0 -0.13930322610E+03  0.88816114769E+02 -0.75974402542E+03  0.79651344948E+03  0.17300000000E+03 0.  1.
         -6    1    1    2    0  503  0.13930322610E+03 -0.88816114769E+02 -0.31705026405E+03  0.39716943611E+03  0.17300000000E+03 0. -1.
<mgrwt>
<rscale>  2 0.23921265E+03</rscale>
<asrwt>0</asrwt>
<pdfrwt beam="1">  1       21 0.89914305E-02 0.23921265E+03</pdfrwt>
<pdfrwt beam="2">  1       21 0.17465209E+00 0.23921265E+03</pdfrwt>
<totfact> 0.18781981E+04</totfact>
</mgrwt>
</event>
<event>
 4    1  0.4023583E+000  0.1860933E+03  0.7546771E-02  0.1162033E+00
         21   -1    0    0  501  502  0.00000000000E+00  0.00000000000E+00  0.12701496734E+03  0.12701496734E+03  0.00000000000E+00 0.  1.
         21   -1    0    0  502  503 -0.00000000000E+00 -0.00000000000E+00 -0.48344903677E+03  0.48344903677E+03  0.00000000000E+00 0.  1.
          6    1    1    2  501    0  0.68011909792E+02 -0.87237457302E+01  0.23335504690E+02  0.18755071152E+03  0.17300000000E+03 0.  1.
         -6    1    1    2    0  503 -0.68011909792E+02  0.87237457302E+01 -0.37976957412E+03  0.42291329258E+03  0.17300000000E+03 0.  1.
<mgrwt>
<rscale>  2 0.18609332E+03</rscale>
<asrwt>0</asrwt>
<pdfrwt beam="1">  1       21 0.19540764E-01 0.18609332E+03</pdfrwt>
<pdfrwt beam="2">  1       21 0.74376774E-01 0.18609332E+03</pdfrwt>
<totfact> 0.39176875E+04</totfact>
</mgrwt>
</event>
<event>
 4    1  0.4023583E+000  0.2247670E+03  0.7546771E-02  0.1130378E+00
         21   -1    0    0  501  502  0.00000000000E+00  0.00000000000E+00  0.47234517104E+03  0.47234517104E+03  0.00000000000E+00 0. -1.
         21   -1    0    0  502  503 -0.00000000000E+00 -0.00000000000E+00 -0.11604566934E+03  0.11604566934E+03  0.00000000000E+00 0.  1.
          6    1    1    2  501    0  0.10466329166E+03 -0.98167169842E+02  0.26048637686E+03  0.34405428407E+03  0.17300000000E+03 0.  1.
         -6    1    1    2    0  503 -0.10466329166E+03  0.98167169842E+02  0.95813124839E+02  0.24433655631E+03  0.17300000000E+03 0.  1.
<mgrwt>
<rscale>  2 0.22476699E+03</rscale>
<asrwt>0</asrwt>
<pdfrwt beam="1">  1       21 0.72668487E-01 0.22476699E+03</pdfrwt>
<pdfrwt beam="2">  1       21 0.17853180E-01 0.22476699E+03</pdfrwt>
<totfact> 0.47873079E+04</totfact>
</mgrwt>
</event>
<event>
 4    1  0.4023583E+000  0.1806902E+03  0.7546771E-02  0.1167137E+00
         21   -1    0    0  501  502  0.00000000000E+00  0.00000000000E+00  0.39284428358E+02  0.39284428358E+02  0.00000000000E+00 0.  1.
         21   -1    0    0  502  503 -0.00000000000E+00 -0.00000000000E+00 -0.89929134548E+03  0.89929134548E+03  0.00000000000E+00 0.  1.
          6    1    1    2  501    0  0.43019322501E+02 -0.29483797083E+02 -0.30076830052E+03  0.35087109740E+03  0.17300000000E+03 0.  1.
         -6    1    1    2    0  503 -0.43019322501E+02  0.29483797083E+02 -0.55923861661E+03  0.58770467644E+03  0.17300000000E+03 0.  1.
<mgrwt>
<rscale>  2 0.18069022E+03</rscale>
<asrwt>0</asrwt>
<pdfrwt beam="1">  1       21 0.60437584E-02 0.18069022E+03</pdfrwt>
<pdfrwt beam="2">  1       21 0.13835251E+00 0.18069022E+03</pdfrwt>
<totfact> 0.72274479E+04</totfact>
</mgrwt>
</event>
<event>
 4    1  0.4023583E+000  0.2130457E+03  0.7546771E-02  0.1139177E+00
         21   -1    0    0  503  502  0.00000000000E+00  0.00000000000E+00  0.21839232399E+03  0.21839232399E+03  0.00000000000E+00 0. -1.
         21   -1    0    0  501  503 -0.00000000000E+00 -0.00000000000E+00 -0.23250336247E+03  0.23250336247E+03  0.00000000000E+00 0. -1.
          6    1    1    2  501    0 -0.17995406995E+02 -0.12302699852E+03 -0.80497709707E+02  0.22774625860E+03  0.17300000000E+03 0. -1.
         -6    1    1    2    0  502  0.17995406995E+02  0.12302699852E+03  0.66386671225E+02  0.22314942786E+03  0.17300000000E+03 0. -1.
<mgrwt>
<rscale>  2 0.21304572E+03</rscale>
<asrwt>0</asrwt>
<pdfrwt beam="1">  1       21 0.33598819E-01 0.21304572E+03</pdfrwt>
<pdfrwt beam="2">  1       21 0.35769748E-01 0.21304572E+03</pdfrwt>
<totfact> 0.63715421E+04</totfact>
</mgrwt>
</event>
<event>
 4    1  0.4023583E+000  0.4349974E+03  0.7546771E-02  0.1032293E+00
         21   -1    0    0  501  502  0.00000000000E+00  0.00000000000E+00  0.94841467341E+03  0.94841467341E+03  0.00000000000E+00 0. -1.
         21   -1    0    0  502  503 -0.00000000000E+00 -0.00000000000E+00 -0.20673304651E+03  0.20673304651E+03  0.00000000000E+00 0.  1.
          6    1    1    2  501    0 -0.38082274817E+03  0.11944770113E+03  0.26291635922E+03  0.50827918585E+03  0.17300000000E+03 0.  1.
         -6    1    1    2    0  503  0.38082274817E+03 -0.11944770113E+03  0.47876526769E+03  0.64686853407E+03  0.17300000000E+03 0. -1.
<mgrwt>
<rscale>  2 0.43499738E+03</rscale>
<asrwt>0</asrwt>
<pdfrwt beam="1">  1       21 0.14590995E+00 0.43499738E+03</pdfrwt>
<pdfrwt beam="2">  1       21 0.31805085E-01 0.43499738E+03</pdfrwt>
<totfact> 0.26467422E+03</totfact>
</mgrwt>
</event>
<event>
 4    1  0.4023583E+000  0.2048135E+03  0.7546771E-02  0.1145740E+00
         21   -1    0    0  503  502  0.00000000000E+00  0.00000000000E+00  0.10932570215E+03  0.10932570215E+03  0.00000000000E+00 0. -1.
         21   -1    0    0  501  503 -0.00000000000E+00 -0.00000000000E+00 -0.54489232275E+03  0.54489232275E+03  0.00000000000E+00 0.  1.
          6    1    1    2  501    0 -0.10962570251E+03  0.13344455065E+01 -0.39569545807E+03  0.44555972768E+03  0.17300000000E+03 0.  1.
         -6    1    1    2    0  502  0.10962570251E+03 -0.13344455065E+01 -0.39871162530E+02  0.20865829722E+03  0.17300000000E+03 0. -1.
<mgrwt>
<rscale>  2 0.20481351E+03</rscale>
<asrwt>0</asrwt>
<pdfrwt beam="1">  1       21 0.16819339E-01 0.20481351E+03</pdfrwt>
<pdfrwt beam="2">  1       21 0.83829588E-01 0.20481351E+03</pdfrwt>
<totfact> 0.39097768E+04</totfact>
</mgrwt>
</event>
<event>
 4    1  0.4023583E+000  0.2230054E+03  0.7546771E-02  0.1131662E+00
         21   -1    0    0  503  502  0.00000000000E+00  0.00000000000E+00  0.31080710203E+03  0.31080710203E+03  0.00000000000E+00 0. -1.
         21   -1    0    0  501  503 -0.00000000000E+00 -0.00000000000E+00 -0.50793695430E+03  0.50793695430E+03  0.00000000000E+00 0.  1.
          6    1    1    2  501    0  0.75720090519E+02  0.11861221750E+03 -0.43737710436E+03  0.49094818634E+03  0.17300000000E+03 0.  1.
         -6    1    1    2    0  502 -0.75720090519E+02 -0.11861221750E+03  0.24024725209E+03  0.32779587000E+03  0.17300000000E+03 0. -1.
<mgrwt>
<rscale>  2 0.22300536E+03</rscale>
<asrwt>0</asrwt>
<pdfrwt beam="1">  1       21 0.47816477E-01 0.22300536E+03</pdfrwt>
<pdfrwt beam="2">  1       21 0.78144146E-01 0.22300536E+03</pdfrwt>
<totfact> 0.59302601E+03</totfact>
</mgrwt>
</event>
<event>
 4    1  0.4023583E+000  0.2378234E+03  0.7546771E-02  0.1121251E+00
         21   -1    0    0  503  502  0.00000000000E+00  0.00000000000E+00  0.28469411917E+03  0.28469411917E+03  0.00000000000E+00 0. -1.
         21   -1    0    0  501  503 -0.00000000000E+00 -0.00000000000E+00 -0.23911577521E+03  0.23911577521E+03  0.00000000000E+00 0. -1.
          6    1    1    2  501    0  0.15499196661E+03  0.51072903420E+02 -0.84926897305E+02  0.25253223371E+03  0.17300000000E+03 0. -1.
         -6    1    1    2    0  502 -0.15499196661E+03 -0.51072903420E+02  0.13050524126E+03  0.27127766067E+03  0.17300000000E+03 0. -1.
<mgrwt>
<rscale>  2 0.23782336E+03</rscale>
<asrwt>0</asrwt>
<pdfrwt beam="1">  1       21 0.43799095E-01 0.23782336E+03</pdfrwt>
<pdfrwt beam="2">  1       21 0.36787042E-01 0.23782336E+03</pdfrwt>
<totfact> 0.34904421E+04</totfact>
</mgrwt>
</event>
<event>
 4    1  0.4023583E+000  0.1895539E+03  0.7546771E-02  0.1158864E+00
         21   -1    0    0  501  502  0.00000000000E+00  0.00000000000E+00  0.83402279637E+03  0.83402279637E+03  0.00000000000E+00 0. -1.
         21   -1    0    0  502  503 -0.00000000000E+00 -0.00000000000E+00 -0.21035581556E+03  0.21035581556E+03  0.00000000000E+00 0. -1.
          6    1    1    2  501    0  0.43453365873E+02  0.64136549335E+02  0.77749007581E+03  0.80026340035E+03  0.17300000000E+03 0. -1.
         -6    1    1    2    0  503 -0.43453365873E+02 -0.64136549335E+02 -0.15382309500E+03  0.24411521157E+03  0.17300000000E+03 0. -1.
<mgrwt>
<rscale>  2 0.18955393E+03</rscale>
<asrwt>0</asrwt>
<pdfrwt beam="1">  1       21 0.12831120E+00 0.18955393E+03</pdfrwt>
<pdfrwt beam="2">  1       21 0.32362434E-01 0.18955393E+03</pdfrwt>
<totfact> 0.41148374E+03</totfact>
</mgrwt>
</event>
<event>
 4    1  0.4023583E+000  0.1801836E+03  0.7546771E-02  0.1167626E+00
         21   -1    0    0  501  502  0.00000000000E+00  0.00000000000E+00  0.35205251350E+03  0.35205251350E+03  0.00000000000E+00 0.  1.
         21   -1    0    0  502  503 -0.00000000000E+00 -0.00000000000E+00 -0.16728641797E+03  0.16728641797E+03  0.00000000000E+00 0.  1.
          6    1    1    2  501    0 -0.49410355015E+02 -0.97843740928E+01  0.26632916970E+03  0.32155457358E+03  0.17300000000E+03 0.  1.
         -6    1    1    2    0  503  0.49410355015E+02  0.97843740928E+01 -0.81563074170E+02  0.19778435789E+03  0.17300000000E+03 0.  1.
<mgrwt>
<rscale>  2 0.18018357E+03</rscale>
<asrwt>0</asrwt>
<pdfrwt beam="1">  1       21 0.54161925E-01 0.18018357E+03</pdfrwt>
<pdfrwt beam="2">  1       21 0.25736372E-01 0.18018357E+03</pdfrwt>
<totfact> 0.46446904E+04</totfact>
</mgrwt>
</event>
<event>
 4    1  0.4023583E+000  0.1829345E+03  0.7546771E-02  0.1164993E+00
         21   -1    0    0  501  502  0.00000000000E+00  0.00000000000E+00  0.17440355691E+03  0.17440355691E+03  0.00000000000E+00 0.  1.
         21   -1    0    0  502  503 -0.00000000000E+00 -0.00000000000E+00 -0.24331207624E+03  0.24331207624E+03  0.00000000000E+00 0.  1.
          6    1    1    2  501    0  0.57187268560E+02  0.16298503408E+02  0.61568579206E+02  0.19301739519E+03  0.17300000000E+03 0.  1.
         -6    1    1    2    0  503 -0.57187268560E+02 -0.16298503408E+02 -0.13047709854E+03  0.22469823796E+03  0.17300000000E+03 0.  1.
<mgrwt>
<rscale>  2 0.18293448E+03</rscale>
<asrwt>0</asrwt>
<pdfrwt beam="1">  1       21 0.26831316E-01 0.18293448E+03</pdfrwt>
<pdfrwt beam="2">  1       21 0.37432627E-01 0.18293448E+03</pdfrwt>
<totfact> 0.91388928E+04</totfact>
</mgrwt>
</event>
<event>
 4    1  0.4023583E+000  0.2125802E+03  0.7546771E-02  0.1139539E+00
         21   -1    0    0  503  502  0.00000000000E+00  0.00000000000E+00  0.96834400572E+03  0.96834400572E+03  0.00000000000E+00 0.  1.
         21   -1    0    0  501  503 -0.00000000000E+00 -0.00000000000E+00 -0.47788948343E+02  0.47788948343E+02  0.00000000000E+00 0.  1.
          6    1    1    2  501    0  0.11414036535E+02 -0.12300840019E+03  0.38245311233E+03  0.43756225828E+03  0.17300000000E+03 0.  1.
         -6    1    1    2    0  502 -0.11414036535E+02  0.12300840019E+03  0.53810194505E+03  0.57857069578E+03  0.17300000000E+03 0.  1.
<mgrwt>
<rscale>  2 0.21258021E+03</rscale>
<asrwt>0</asrwt>
<pdfrwt beam="1">  1       21 0.14897599E+00 0.21258021E+03</pdfrwt>
<pdfrwt beam="2">  1       21 0.73521467E-02 0.21258021E+03</pdfrwt>
<totfact> 0.41804146E+04</totfact>
</mgrwt>
</event>
<event>
 4    1  0.4023583E+000  0.1923449E+03  0.7546771E-02  0.1156363E+00
         21   -1    0    0  501  502  0.00000000000E+00  0.00000000000E+00  0.32359180656E+03  0.32359180656E+03  0.00000000000E+00 0. -1.
         21   -1    0    0  502  503 -0.00000000000E+00 -0.00000000000E+00 -0.13249634151E+03  0.13249634151E+03  0.00000000000E+00 0.  1.
          6    1    1    2  501    0  0.64478295760E+02 -0.53945558884E+02  0.17998587371E+03  0.26342264269E+03  0.17300000000E+03 0. -1.
         -6    1    1    2    0  503 -0.64478295760E+02  0.53945558884E+02  0.11109591344E+02  0.19266550539E+03  0.17300000000E+03 0. -1.
<mgrwt>
<rscale>  2 0.19234493E+03</rscale>
<asrwt>0</asrwt>
<pdfrwt beam="1">  1       21 0.49783355E-01 0.19234493E+03</pdfrwt>
<pdfrwt beam="2">  1       21 0.20384053E-01 0.19234493E+03</pdfrwt>
<totfact> 0.85670844E+04</totfact>
</mgrwt>
</event>
<event>
 4    1  0.4023583E+000  0.3331381E+03  0.7546771E-02  0.1069757E+00
         21   -1    0    0  503  502  0.00000000000E+00  0.00000000000E+00  0.51879069375E+03  0.51879069375E+03  0.00000000000E+00 0. -1.
         21   -1    0    0  501  503 -0.00000000000E+00 -0.00000000000E+00 -0.25440976012E+03  0.25440976012E+03  0.00000000000E+00 0. -1.
          6    1    1    2  501    0 -0.22353273814E+03 -0.17630962796E+03 -0.22034522129E+02  0.33386597625E+03  0.17300000000E+03 0. -1.
         -6    1    1    2    0  502  0.22353273814E+03  0.17630962796E+03  0.28641545577E+03  0.43933447763E+03  0.17300000000E+03 0. -1.
<mgrwt>
<rscale>  2 0.33313806E+03</rscale>
<asrwt>0</asrwt>
<pdfrwt beam="1">  1       21 0.79813953E-01 0.33313806E+03</pdfrwt>
<pdfrwt beam="2">  1       21 0.39139963E-01 0.33313806E+03</pdfrwt>
<totfact> 0.80506605E+03</totfact>
</mgrwt>
</event>
<event>
 4    1  0.4023583E+000  0.2149952E+03  0.7546771E-02  0.1137670E+00
         21   -1    0    0  503  502  0.00000000000E+00  0.00000000000E+00  0.10969818987E+04  0.10969818987E+04  0.00000000000E+00 0. -1.
         21   -1    0    0  501  503 -0.00000000000E+00 -0.00000000000E+00 -0.77056308918E+02  0.77056308918E+02  0.00000000000E+00 0.  1.
          6    1    1    2  501    0  0.11425203178E+03  0.56924511840E+02  0.11479244434E+03  0.24372162828E+03  0.17300000000E+03 0.  1.
         -6    1    1    2    0  502 -0.11425203178E+03 -0.56924511840E+02  0.90513314544E+03  0.93031657933E+03  0.17300000000E+03 0. -1.
<mgrwt>
<rscale>  2 0.21499518E+03</rscale>
<asrwt>0</asrwt>
<pdfrwt beam="1">  1       21 0.16876643E+00 0.21499518E+03</pdfrwt>
<pdfrwt beam="2">  1       21 0.11854818E-01 0.21499518E+03</pdfrwt>
<totfact> 0.12842725E+04</totfact>
</mgrwt>
</event>
<event>
 4    1  0.4023583E+000  0.2218431E+03  0.7546771E-02  0.1132516E+00
         21   -1    0    0  503  502  0.00000000000E+00  0.00000000000E+00  0.65467044903E+03  0.65467044903E+03  0.00000000000E+00 0. -1.
         21   -1    0    0  501  503 -0.00000000000E+00 -0.00000000000E+00 -0.73696322242E+03  0.73696322242E+03  0.00000000000E+00 0.  1.
          6    1    1    2  501    0 -0.13861808642E+03  0.83909388819E+01 -0.70052032409E+03  0.73480821049E+03  0.17300000000E+03 0.  1.
         -6    1    1    2    0  502  0.13861808642E+03 -0.83909388819E+01  0.61822755069E+03  0.65682546096E+03  0.17300000000E+03 0. -1.
<mgrwt>
<rscale>  2 0.22184315E+03</rscale>
<asrwt>0</asrwt>
<pdfrwt beam="1">  1       21 0.10071853E+00 0.22184315E+03</pdfrwt>
<pdfrwt beam="2">  1       21 0.11337896E+00 0.22184315E+03</pdfrwt>
<totfact> 0.47480095E+02</totfact>
</mgrwt>
</event>
<event>
 4    1  0.4023583E+000  0.2125148E+03  0.7546771E-02  0.1139590E+00
         21   -1    0    0  501  502  0.00000000000E+00  0.00000000000E+00  0.13138888080E+03  0.13138888080E+03  0.00000000000E+00 0.  1.
         21   -1    0    0  502  503 -0.00000000000E+00 -0.00000000000E+00 -0.50737886507E+03  0.50737886507E+03  0.00000000000E+00 0. -1.
          6    1    1    2  501    0 -0.87298494740E+02 -0.87249776899E+02 -0.66102453465E+01  0.21261760533E+03  0.17300000000E+03 0.  1.
         -6    1    1    2    0  503  0.87298494740E+02  0.87249776899E+02 -0.36937973892E+03  0.42615014054E+03  0.17300000000E+03 0. -1.
<mgrwt>
<rscale>  2 0.21251482E+03</rscale>
<asrwt>0</asrwt>
<pdfrwt beam="1">  1       21 0.20213674E-01 0.21251482E+03</pdfrwt>
<pdfrwt beam="2">  1       21 0.78058286E-01 0.21251482E+03</pdfrwt>
<totfact> 0.32544231E+04</totfact>
</mgrwt>
</event>
<event>
 4    1  0.4023583E+000  0.1822177E+03  0.7546771E-02  0.1165674E+00
         21   -1    0    0  503  502  0.00000000000E+00  0.00000000000E+00  0.25571158045E+03  0.25571158045E+03  0.00000000000E+00 0.  1.
         21   -1    0    0  501  503 -0.00000000000E+00 -0.00000000000E+00 -0.26492859385E+03  0.26492859385E+03  0.00000000000E+00 0.  1.
          6    1    1    2  501    0 -0.26075433773E+02 -0.50934941852E+02 -0.19049245411E+03  0.26361083365E+03  0.17300000000E+03 0.  1.
         -6    1    1    2    0  502  0.26075433773E+02  0.50934941852E+02  0.18127544071E+03  0.25702934065E+03  0.17300000000E+03 0.  1.
<mgrwt>
<rscale>  2 0.18221772E+03</rscale>
<asrwt>0</asrwt>
<pdfrwt beam="1">  1       21 0.39340243E-01 0.18221772E+03</pdfrwt>
<pdfrwt beam="2">  1       21 0.40758246E-01 0.18221772E+03</pdfrwt>
<totfact> 0.36315797E+04</totfact>
</mgrwt>
</event>
<event>
 4    1  0.4023583E+000  0.1903560E+03  0.7546771E-02  0.1158141E+00
         21   -1    0    0  501  502  0.00000000000E+00  0.00000000000E+00  0.31195600281E+02  0.31195600281E+02  0.00000000000E+00 0.  1.
         21   -1    0    0  502  503 -0.00000000000E+00 -0.00000000000E+00 -0.17692051983E+04  0.17692051983E+04  0.00000000000E+00 0.  1.
          6    1    1    2  501    0 -0.59931039797E+02  0.52102616217E+02 -0.34143874474E+03  0.39091665167E+03  0.17300000000E+03 0.  1.
         -6    1    1    2    0  503  0.59931039797E+02 -0.52102616217E+02 -0.13965708533E+04  0.14094841469E+04  0.17300000000E+03 0.  1.
<mgrwt>
<rscale>  2 0.19035601E+03</rscale>
<asrwt>0</asrwt>
<pdfrwt beam="1">  1       21 0.47993236E-02 0.19035601E+03</pdfrwt>
<pdfrwt beam="2">  1       21 0.27218539E+00 0.19035601E+03</pdfrwt>
<totfact> 0.14267185E+04</totfact>
</mgrwt>
</event>
<event>
 4    1  0.4023583E+000  0.1926654E+03  0.7546771E-02  0.1156079E+00
         21   -1    0    0  501  502  0.00000000000E+00  0.00000000000E+00  0.25044414220E+03  0.25044414220E+03  0.00000000000E+00 0.  1.
         21   -1    0    0  502  503 -0.00000000000E+00 -0.00000000000E+00 -0.33126179044E+03  0.33126179044E+03  0.00000000000E+00 0.  1.
          6    1    1    2  501    0  0.36287332041E+02  0.76643268883E+02  0.17579684225E+03  0.26081505109E+03  0.17300000000E+03 0.  1.
         -6    1    1    2    0  503 -0.36287332041E+02 -0.76643268883E+02 -0.25661449048E+03  0.32089088154E+03  0.17300000000E+03 0.  1.
<mgrwt>
<rscale>  2 0.19266541E+03</rscale>
<asrwt>0</asrwt>
<pdfrwt beam="1">  1       21 0.38529868E-01 0.19266541E+03</pdfrwt>
<pdfrwt beam="2">  1       21 0.50963352E-01 0.19266541E+03</pdfrwt>
<totfact> 0.23785169E+04</totfact>
</mgrwt>
</event>
<event>
 4    1  0.4023583E+000  0.2355304E+03  0.7546771E-02  0.1122807E+00
         21   -1    0    0  503  502  0.00000000000E+00  0.00000000000E+00  0.46945450011E+03  0.46945450011E+03  0.00000000000E+00 0.  1.
         21   -1    0    0  501  503 -0.00000000000E+00 -0.00000000000E+00 -0.11843259617E+03  0.11843259617E+03  0.00000000000E+00 0. -1.
          6    1    1    2  501    0 -0.66752013338E+02  0.14522301634E+03  0.16162033667E+03  0.28564959126E+03  0.17300000000E+03 0. -1.
         -6    1    1    2    0  502  0.66752013338E+02 -0.14522301634E+03  0.18940156727E+03  0.30223750503E+03  0.17300000000E+03 0.  1.
<mgrwt>
<rscale>  2 0.23553037E+03</rscale>
<asrwt>0</asrwt>
<pdfrwt beam="1">  1       21 0.72223768E-01 0.23553037E+03</pdfrwt>
<pdfrwt beam="2">  1       21 0.18220400E-01 0.23553037E+03</pdfrwt>
<totfact> 0.46510178E+04</totfact>
</mgrwt>
</event>
<event>
 4    1  0.4023583E+000  0.1751030E+03  0.7546771E-02  0.1172628E+00
         21   -1    0    0  501  502  0.00000000000E+00  0.00000000000E+00  0.23377999729E+03  0.23377999729E+03  0.00000000000E+00 0.  1.
         21   -1    0    0  502  503 -0.00000000000E+00 -0.00000000000E+00 -0.13401507579E+03  0.13401507579E+03  0.00000000000E+00 0.  1.
          6    1    1    2  501    0  0.13969202455E+02 -0.23171887140E+02  0.23010557153E+02  0.17660849558E+03  0.17300000000E+03 0.  1.
         -6    1    1    2    0  503 -0.13969202455E+02  0.23171887140E+02  0.76754364340E+02  0.19118657750E+03  0.17300000000E+03 0.  1.
<mgrwt>
<rscale>  2 0.17510304E+03</rscale>
<asrwt>0</asrwt>
<pdfrwt beam="1">  1       21 0.35966153E-01 0.17510304E+03</pdfrwt>
<pdfrwt beam="2">  1       21 0.20617704E-01 0.17510304E+03</pdfrwt>
<totfact> 0.16345380E+05</totfact>
</mgrwt>
</event>
<event>
 4    1  0.4023583E+000  0.2075208E+03  0.7546771E-02  0.1143544E+00
         21   -1    0    0  501  502  0.00000000000E+00  0.00000000000E+00  0.15221753190E+03  0.15221753190E+03  0.00000000000E+00 0.  1.
         21   -1    0    0  502  503 -0.00000000000E+00 -0.00000000000E+00 -0.28947676009E+03  0.28947676009E+03  0.00000000000E+00 0.  1.
          6    1    1    2  501    0 -0.52990258058E+02  0.10162643744E+03 -0.35383963119E+02  0.21051585470E+03  0.17300000000E+03 0.  1.
         -6    1    1    2    0  503  0.52990258058E+02 -0.10162643744E+03 -0.10187526506E+03  0.23117843729E+03  0.17300000000E+03 0.  1.
<mgrwt>
<rscale>  2 0.20752084E+03</rscale>
<asrwt>0</asrwt>
<pdfrwt beam="1">  1       21 0.23418082E-01 0.20752084E+03</pdfrwt>
<pdfrwt beam="2">  1       21 0.44534886E-01 0.20752084E+03</pdfrwt>
<totfact> 0.82509850E+04</totfact>
</mgrwt>
</event>
<event>
 4    1  0.4023583E+000  0.1878874E+03  0.7546771E-02  0.1160381E+00
         21   -1    0    0  503  502  0.00000000000E+00  0.00000000000E+00  0.28148114723E+03  0.28148114723E+03  0.00000000000E+00 0. -1.
         21   -1    0    0  501  503 -0.00000000000E+00 -0.00000000000E+00 -0.41900889283E+03  0.41900889283E+03  0.00000000000E+00 0. -1.
          6    1    1    2  501    0  0.16197274866E+02  0.71486404914E+02 -0.36194407939E+03  0.40780531434E+03  0.17300000000E+03 0. -1.
         -6    1    1    2    0  502 -0.16197274866E+02 -0.71486404914E+02  0.22441633379E+03  0.29268472572E+03  0.17300000000E+03 0. -1.
<mgrwt>
<rscale>  2 0.18788735E+03</rscale>
<asrwt>0</asrwt>
<pdfrwt beam="1">  1       21 0.43304792E-01 0.18788735E+03</pdfrwt>
<pdfrwt beam="2">  1       21 0.64462906E-01 0.18788735E+03</pdfrwt>
<totfact> 0.11412757E+04</totfact>
</mgrwt>
</event>
<event>
 4    1  0.4023583E+000  0.1863997E+03  0.7546771E-02  0.1161749E+00
         21   -1    0    0  501  502  0.00000000000E+00  0.00000000000E+00  0.24247731941E+03  0.24247731941E+03  0.00000000000E+00 0. -1.
         21   -1    0    0  502  503 -0.00000000000E+00 -0.00000000000E+00 -0.56193537058E+03  0.56193537058E+03  0.00000000000E+00 0. -1.
          6    1    1    2  501    0 -0.53146671937E+02 -0.44623643768E+02  0.18742988461E+03  0.26433841939E+03  0.17300000000E+03 0. -1.
         -6    1    1    2    0  503  0.53146671937E+02  0.44623643768E+02 -0.50688793578E+03  0.54007427060E+03  0.17300000000E+03 0. -1.
<mgrwt>
<rscale>  2 0.18639967E+03</rscale>
<asrwt>0</asrwt>
<pdfrwt beam="1">  1       21 0.37304204E-01 0.18639967E+03</pdfrwt>
<pdfrwt beam="2">  1       21 0.86451594E-01 0.18639967E+03</pdfrwt>
<totfact> 0.80247139E+03</totfact>
</mgrwt>
</event>
<event>
 4    1  0.4023583E+000  0.1910150E+03  0.7546771E-02  0.1157549E+00
         21   -1    0    0  501  502  0.00000000000E+00  0.00000000000E+00  0.11447872494E+04  0.11447872494E+04  0.00000000000E+00 0.  1.
         21   -1    0    0  502  503 -0.00000000000E+00 -0.00000000000E+00 -0.48754509866E+02  0.48754509866E+02  0.00000000000E+00 0. -1.
          6    1    1    2  501    0 -0.77028927311E+02 -0.24985431496E+02  0.89918682064E+03  0.91925168798E+03  0.17300000000E+03 0.  1.
         -6    1    1    2    0  503  0.77028927311E+02  0.24985431496E+02  0.19684591893E+03  0.27429007132E+03  0.17300000000E+03 0.  1.
<mgrwt>
<rscale>  2 0.19101499E+03</rscale>
<asrwt>0</asrwt>
<pdfrwt beam="1">  1       21 0.17612109E+00 0.19101499E+03</pdfrwt>
<pdfrwt beam="2">  1       21 0.75006947E-02 0.19101499E+03</pdfrwt>
<totfact> 0.25993244E+04</totfact>
</mgrwt>
</event>
<event>
 4    1  0.4023583E+000  0.1879764E+03  0.7546771E-02  0.1160299E+00
         21   -1    0    0  501  502  0.00000000000E+00  0.00000000000E+00  0.65105611609E+02  0.65105611609E+02  0.00000000000E+00 0. -1.
         21   -1    0    0  502  503 -0.00000000000E+00 -0.00000000000E+00 -0.74457782674E+03  0.74457782674E+03  0.00000000000E+00 0.  1.
          6    1    1    2  501    0 -0.65449931386E+02 -0.33502965244E+02 -0.12895286736E+03  0.22795610147E+03  0.17300000000E+03 0. -1.
         -6    1    1    2    0  503  0.65449931386E+02  0.33502965244E+02 -0.55051934778E+03  0.58172733688E+03  0.17300000000E+03 0.  1.
<mgrwt>
<rscale>  2 0.18797644E+03</rscale>
<asrwt>0</asrwt>
<pdfrwt beam="1">  1       21 0.10016248E-01 0.18797644E+03</pdfrwt>
<pdfrwt beam="2">  1       21 0.11455043E+00 0.18797644E+03</pdfrwt>
<totfact> 0.48006654E+04</totfact>
</mgrwt>
</event>
<event>
 4    1  0.4023583E+000  0.1777569E+03  0.7546771E-02  0.1169992E+00
         21   -1    0    0  501  502  0.00000000000E+00  0.00000000000E+00  0.21183858313E+03  0.21183858313E+03  0.00000000000E+00 0. -1.
         21   -1    0    0  502  503 -0.00000000000E+00 -0.00000000000E+00 -0.18774090287E+03  0.18774090287E+03  0.00000000000E+00 0. -1.
          6    1    1    2  501    0  0.40362630811E+02  0.62743681501E+01 -0.78522081792E+02  0.19432762797E+03  0.17300000000E+03 0. -1.
         -6    1    1    2    0  503 -0.40362630811E+02 -0.62743681501E+01  0.10261976206E+03  0.20525185803E+03  0.17300000000E+03 0. -1.
<mgrwt>
<rscale>  2 0.17775688E+03</rscale>
<asrwt>0</asrwt>
<pdfrwt beam="1">  1       21 0.32590551E-01 0.17775688E+03</pdfrwt>
<pdfrwt beam="2">  1       21 0.28883216E-01 0.17775688E+03</pdfrwt>
<totfact> 0.10452080E+05</totfact>
</mgrwt>
</event>
<event>
 4    1  0.4023583E+000  0.2126715E+03  0.7546771E-02  0.1139468E+00
         21   -1    0    0  503  502  0.00000000000E+00  0.00000000000E+00  0.13502630592E+04  0.13502630592E+04  0.00000000000E+00 0.  1.
         21   -1    0    0  501  503 -0.00000000000E+00 -0.00000000000E+00 -0.41877557139E+02  0.41877557139E+02  0.00000000000E+00 0. -1.
          6    1    1    2  501    0  0.71036412842E+02 -0.10126201492E+03  0.34279871944E+03  0.40341062165E+03  0.17300000000E+03 0. -1.
         -6    1    1    2    0  502 -0.71036412842E+02  0.10126201492E+03  0.96558678260E+03  0.98872999467E+03  0.17300000000E+03 0.  1.
<mgrwt>
<rscale>  2 0.21267150E+03</rscale>
<asrwt>0</asrwt>
<pdfrwt beam="1">  1       21 0.20773274E+00 0.21267150E+03</pdfrwt>
<pdfrwt beam="2">  1       21 0.64427021E-02 0.21267150E+03</pdfrwt>
<totfact> 0.20611062E+04</totfact>
</mgrwt>
</event>
<event>
 4    1  0.4023583E+000  0.2335038E+03  0.7546771E-02  0.1124198E+00
         21   -1    0    0  503  502  0.00000000000E+00  0.00000000000E+00  0.13680098508E+03  0.13680098508E+03  0.00000000000E+00 0. -1.
         21   -1    0    0  501  503 -0.00000000000E+00 -0.00000000000E+00 -0.45931573846E+03  0.45931573846E+03  0.00000000000E+00 0.  1.
          6    1    1    2  501    0 -0.13847969070E+03  0.73609777031E+02 -0.26965581139E+03  0.35670475274E+03  0.17300000000E+03 0.  1.
         -6    1    1    2    0  502  0.13847969070E+03 -0.73609777031E+02 -0.52858941995E+02  0.23941197080E+03  0.17300000000E+03 0.  1.
<mgrwt>
<rscale>  2 0.23350380E+03</rscale>
<asrwt>0</asrwt>
<pdfrwt beam="1">  1       21 0.21046305E-01 0.23350380E+03</pdfrwt>
<pdfrwt beam="2">  1       21 0.70663960E-01 0.23350380E+03</pdfrwt>
<totfact> 0.37304440E+04</totfact>
</mgrwt>
</event>
<event>
 4    1  0.4023583E+000  0.2242892E+03  0.7546771E-02  0.1130725E+00
         21   -1    0    0  503  502  0.00000000000E+00  0.00000000000E+00  0.11964906109E+04  0.11964906109E+04  0.00000000000E+00 0.  1.
         21   -1    0    0  501  503 -0.00000000000E+00 -0.00000000000E+00 -0.43451777660E+02  0.43451777660E+02  0.00000000000E+00 0. -1.
          6    1    1    2  501    0 -0.13066117210E+03 -0.57482994889E+02  0.68809909046E+03  0.72373060934E+03  0.17300000000E+03 0.  1.
         -6    1    1    2    0  502  0.13066117210E+03  0.57482994889E+02  0.46493974279E+03  0.51621177923E+03  0.17300000000E+03 0. -1.
<mgrwt>
<rscale>  2 0.22428918E+03</rscale>
<asrwt>0</asrwt>
<pdfrwt beam="1">  1       21 0.18407545E+00 0.22428918E+03</pdfrwt>
<pdfrwt beam="2">  1       21 0.66848898E-02 0.22428918E+03</pdfrwt>
<totfact> 0.27386622E+04</totfact>
</mgrwt>
</event>
<event>
 4    1  0.4023583E+000  0.2430509E+03  0.7546771E-02  0.1117777E+00
         21   -1    0    0  503  502  0.00000000000E+00  0.00000000000E+00  0.54347658314E+02  0.54347658314E+02  0.00000000000E+00 0. -1.
         21   -1    0    0  501  503 -0.00000000000E+00 -0.00000000000E+00 -0.11080606178E+04  0.11080606178E+04  0.00000000000E+00 0. -1.
          6    1    1    2  501    0  0.14121982905E+03  0.95925531815E+02 -0.60705960418E+03  0.65390757053E+03  0.17300000000E+03 0. -1.
         -6    1    1    2    0  502 -0.14121982905E+03 -0.95925531815E+02 -0.44665335530E+03  0.50850070558E+03  0.17300000000E+03 0. -1.
<mgrwt>
<rscale>  2 0.24305092E+03</rscale>
<asrwt>0</asrwt>
<pdfrwt beam="1">  1       21 0.83611792E-02 0.24305092E+03</pdfrwt>
<pdfrwt beam="2">  1       21 0.17047084E+00 0.24305092E+03</pdfrwt>
<totfact> 0.22787431E+04</totfact>
</mgrwt>
</event>
<event>
 4    1  0.4023583E+000  0.2046556E+03  0.7546771E-02  0.1145869E+00
         21   -1    0    0  503  502  0.00000000000E+00  0.00000000000E+00  0.26663226861E+03  0.26663226861E+03  0.00000000000E+00 0.  1.
         21   -1    0    0  501  503 -0.00000000000E+00 -0.00000000000E+00 -0.21253291223E+03  0.21253291223E+03  0.00000000000E+00 0.  1.
          6    1    1    2  501    0  0.10598062622E+03 -0.26888799162E+02 -0.95323203937E+02  0.22576628150E+03  0.17300000000E+03 0. -1.
         -6    1    1    2    0  502 -0.10598062622E+03  0.26888799162E+02  0.14942256032E+03  0.25339889934E+03  0.17300000000E+03 0. -1.
<mgrwt>
<rscale>  2 0.20465557E+03</rscale>
<asrwt>0</asrwt>
<pdfrwt beam="1">  1       21 0.41020349E-01 0.20465557E+03</pdfrwt>
<pdfrwt beam="2">  1       21 0.32697371E-01 0.20465557E+03</pdfrwt>
<totfact> 0.51232942E+04</totfact>
</mgrwt>
</event>
<event>
 4    1  0.4023583E+000  0.1857740E+03  0.7546771E-02  0.1162329E+00
         21   -1    0    0  501  502  0.00000000000E+00  0.00000000000E+00  0.35668764023E+03  0.35668764023E+03  0.00000000000E+00 0.  1.
         21   -1    0    0  502  503 -0.00000000000E+00 -0.00000000000E+00 -0.25546345398E+03  0.25546345398E+03  0.00000000000E+00 0.  1.
          6    1    1    2  501    0  0.66751149633E+02 -0.11280328686E+02  0.29185901735E+03  0.34596769762E+03  0.17300000000E+03 0.  1.
         -6    1    1    2    0  503 -0.66751149633E+02  0.11280328686E+02 -0.19063483110E+03  0.26618339659E+03  0.17300000000E+03 0.  1.
<mgrwt>
<rscale>  2 0.18577395E+03</rscale>
<asrwt>0</asrwt>
<pdfrwt beam="1">  1       21 0.54875022E-01 0.18577395E+03</pdfrwt>
<pdfrwt beam="2">  1       21 0.39302070E-01 0.18577395E+03</pdfrwt>
<totfact> 0.19641871E+04</totfact>
</mgrwt>
</event>
<event>
 4    1  0.4023583E+000  0.1910790E+03  0.7546771E-02  0.1157492E+00
         21   -1    0    0  501  502  0.00000000000E+00  0.00000000000E+00  0.10909439514E+04  0.10909439514E+04  0.00000000000E+00 0. -1.
         21   -1    0    0  502  503 -0.00000000000E+00 -0.00000000000E+00 -0.35518147440E+02  0.35518147440E+02  0.00000000000E+00 0. -1.
          6    1    1    2  501    0 -0.18973074885E+02 -0.78881085899E+02  0.66304580062E+03  0.69002966386E+03  0.17300000000E+03 0. -1.
         -6    1    1    2    0  503  0.18973074885E+02  0.78881085899E+02  0.39238000334E+03  0.43643243498E+03  0.17300000000E+03 0. -1.
<mgrwt>
<rscale>  2 0.19107905E+03</rscale>
<asrwt>0</asrwt>
<pdfrwt beam="1">  1       21 0.16783751E+00 0.19107905E+03</pdfrwt>
<pdfrwt beam="2">  1       21 0.54643312E-02 0.19107905E+03</pdfrwt>
<totfact> 0.51171540E+04</totfact>
</mgrwt>
</event>
<event>
 4    1  0.4023583E+000  0.1738130E+03  0.7546771E-02  0.1173929E+00
         21   -1    0    0  501  502  0.00000000000E+00  0.00000000000E+00  0.67813892275E+02  0.67813892275E+02  0.00000000000E+00 0. -1.
         21   -1    0    0  502  503 -0.00000000000E+00 -0.00000000000E+00 -0.83564761504E+03  0.83564761504E+03  0.00000000000E+00 0. -1.
          6    1    1    2  501    0  0.12051027301E+02  0.11693033600E+02 -0.75254515174E+02  0.18940484774E+03  0.17300000000E+03 0. -1.
         -6    1    1    2    0  503 -0.12051027301E+02 -0.11693033600E+02 -0.69257920760E+03  0.71405665958E+03  0.17300000000E+03 0. -1.
<mgrwt>
<rscale>  2 0.17381299E+03</rscale>
<asrwt>0</asrwt>
<pdfrwt beam="1">  1       21 0.10432906E-01 0.17381299E+03</pdfrwt>
<pdfrwt beam="2">  1       21 0.12856117E+00 0.17381299E+03</pdfrwt>
<totfact> 0.33840072E+04</totfact>
</mgrwt>
</event>
<event>
 4    1  0.4023583E+000  0.1885593E+03  0.7546771E-02  0.1159767E+00
         21   -1    0    0  501  502  0.00000000000E+00  0.00000000000E+00  0.80582518011E+02  0.80582518011E+02  0.00000000000E+00 0.  1.
         21   -1    0    0  502  503 -0.00000000000E+00 -0.00000000000E+00 -0.72657955004E+03  0.72657955004E+03  0.00000000000E+00 0.  1.
          6    1    1    2  501    0  0.59418780726E+02 -0.45771471032E+02 -0.70077239569E+02  0.20116023108E+03  0.17300000000E+03 0.  1.
         -6    1    1    2    0  503 -0.59418780726E+02  0.45771471032E+02 -0.57591979246E+03  0.60600183697E+03  0.17300000000E+03 0.  1.
<mgrwt>
<rscale>  2 0.18855933E+03</rscale>
<asrwt>0</asrwt>
<pdfrwt beam="1">  1       21 0.12397311E-01 0.18855933E+03</pdfrwt>
<pdfrwt beam="2">  1       21 0.11178147E+00 0.18855933E+03</pdfrwt>
<totfact> 0.34852035E+04</totfact>
</mgrwt>
</event>
<event>
 4    1  0.4023583E+000  0.1849789E+03  0.7546771E-02  0.1163070E+00
         21   -1    0    0  503  502  0.00000000000E+00  0.00000000000E+00  0.71014942713E+02  0.71014942713E+02  0.00000000000E+00 0. -1.
         21   -1    0    0  501  503 -0.00000000000E+00 -0.00000000000E+00 -0.22253707907E+04  0.22253707907E+04  0.00000000000E+00 0. -1.
          6    1    1    2  501    0  0.64669100705E+02 -0.10300591722E+02 -0.20934958715E+04  0.21016522450E+04  0.17300000000E+03 0. -1.
         -6    1    1    2    0  502 -0.64669100705E+02  0.10300591722E+02 -0.60859976451E+02  0.19473348841E+03  0.17300000000E+03 0. -1.
<mgrwt>
<rscale>  2 0.18497890E+03</rscale>
<asrwt>0</asrwt>
<pdfrwt beam="1">  1       21 0.10925378E-01 0.18497890E+03</pdfrwt>
<pdfrwt beam="2">  1       21 0.34236468E+00 0.18497890E+03</pdfrwt>
<totfact> 0.13602771E+03</totfact>
</mgrwt>
</event>
<event>
 4    1  0.4023583E+000  0.2310391E+03  0.7546771E-02  0.1125911E+00
         21   -1    0    0  501  502  0.00000000000E+00  0.00000000000E+00  0.44407655537E+03  0.44407655537E+03  0.00000000000E+00 0. -1.
         21   -1    0    0  502  503 -0.00000000000E+00 -0.00000000000E+00 -0.12237121806E+03  0.12237121806E+03  0.00000000000E+00 0.  1.
          6    1    1    2  501    0  0.14205647751E+03  0.57183978132E+02  0.19855826042E+03  0.30463820006E+03  0.17300000000E+03 0. -1.
         -6    1    1    2    0  503 -0.14205647751E+03 -0.57183978132E+02  0.12314707689E+03  0.26180957336E+03  0.17300000000E+03 0. -1.
<mgrwt>
<rscale>  2 0.23103907E+03</rscale>
<asrwt>0</asrwt>
<pdfrwt beam="1">  1       21 0.68319469E-01 0.23103907E+03</pdfrwt>
<pdfrwt beam="2">  1       21 0.18826341E-01 0.23103907E+03</pdfrwt>
<totfact> 0.49596729E+04</totfact>
</mgrwt>
</event>
<event>
 4    1  0.4023583E+000  0.2581364E+03  0.7546771E-02  0.1108268E+00
         21   -1    0    0  501  502  0.00000000000E+00  0.00000000000E+00  0.79100292167E+03  0.79100292167E+03  0.00000000000E+00 0. -1.
         21   -1    0    0  502  503 -0.00000000000E+00 -0.00000000000E+00 -0.26605882042E+03  0.26605882042E+03  0.00000000000E+00 0.  1.
          6    1    1    2  501    0  0.10766308388E+03 -0.15847414491E+03  0.69939059816E+03  0.74550761433E+03  0.17300000000E+03 0. -1.
         -6    1    1    2    0  503 -0.10766308388E+03  0.15847414491E+03 -0.17444649691E+03  0.31155412776E+03  0.17300000000E+03 0.  1.
<mgrwt>
<rscale>  2 0.25813639E+03</rscale>
<asrwt>0</asrwt>
<pdfrwt beam="1">  1       21 0.12169276E+00 0.25813639E+03</pdfrwt>
<pdfrwt beam="2">  1       21 0.40932127E-01 0.25813639E+03</pdfrwt>
<totfact> 0.27866275E+03</totfact>
</mgrwt>
</event>
<event>
 4    1  0.4023583E+000  0.2232430E+03  0.7546771E-02  0.1131488E+00
         21   -1    0    0  503  502  0.00000000000E+00  0.00000000000E+00  0.10565138272E+04  0.10565138272E+04  0.00000000000E+00 0. -1.
         21   -1    0    0  501  503 -0.00000000000E+00 -0.00000000000E+00 -0.82271060902E+02  0.82271060902E+02  0.00000000000E+00 0.  1.
          6    1    1    2  501    0  0.11155281840E+03  0.86396834586E+02  0.85903184347E+03  0.88756585807E+03  0.17300000000E+03 0. -1.
         -6    1    1    2    0  502 -0.11155281840E+03 -0.86396834586E+02  0.11521092286E+03  0.25121903006E+03  0.17300000000E+03 0.  1.
<mgrwt>
<rscale>  2 0.22324302E+03</rscale>
<asrwt>0</asrwt>
<pdfrwt beam="1">  1       21 0.16254058E+00 0.22324302E+03</pdfrwt>
<pdfrwt beam="2">  1       21 0.12657087E-01 0.22324302E+03</pdfrwt>
<totfact> 0.12584681E+04</totfact>
</mgrwt>
</event>
<event>
 4    1  0.4023583E+000  0.1852960E+03  0.7546771E-02  0.1162774E+00
         21   -1    0    0  503  502  0.00000000000E+00  0.00000000000E+00  0.22584759184E+03  0.22584759184E+03  0.00000000000E+00 0. -1.
         21   -1    0    0  501  503 -0.00000000000E+00 -0.00000000000E+00 -0.15211157199E+03  0.15211157199E+03  0.00000000000E+00 0.  1.
          6    1    1    2  501    0 -0.65511017244E+02 -0.10673801296E+02  0.41359862265E+02  0.18985589699E+03  0.17300000000E+03 0. -1.
         -6    1    1    2    0  502  0.65511017244E+02  0.10673801296E+02  0.32376157584E+02  0.18810326684E+03  0.17300000000E+03 0. -1.
<mgrwt>
<rscale>  2 0.18529604E+03</rscale>
<asrwt>0</asrwt>
<pdfrwt beam="1">  1       21 0.34745783E-01 0.18529604E+03</pdfrwt>
<pdfrwt beam="2">  1       21 0.23401780E-01 0.18529604E+03</pdfrwt>
<totfact> 0.13746500E+05</totfact>
</mgrwt>
</event>
<event>
 4    1  0.4023583E+000  0.1760256E+03  0.7546771E-02  0.1171706E+00
         21   -1    0    0  503  502  0.00000000000E+00  0.00000000000E+00  0.44299092898E+03  0.44299092898E+03  0.00000000000E+00 0. -1.
         21   -1    0    0  501  503 -0.00000000000E+00 -0.00000000000E+00 -0.11064197118E+03  0.11064197118E+03  0.00000000000E+00 0.  1.
          6    1    1    2  501    0 -0.11261124256E+02  0.30482973735E+02  0.33405978890E+03  0.37759895017E+03  0.17300000000E+03 0. -1.
         -6    1    1    2    0  502  0.11261124256E+02 -0.30482973735E+02 -0.17108311010E+01  0.17603394999E+03  0.17300000000E+03 0.  1.
<mgrwt>
<rscale>  2 0.17602564E+03</rscale>
<asrwt>0</asrwt>
<pdfrwt beam="1">  1       21 0.68152450E-01 0.17602564E+03</pdfrwt>
<pdfrwt beam="2">  1       21 0.17021842E-01 0.17602564E+03</pdfrwt>
<totfact> 0.61626877E+04</totfact>
</mgrwt>
</event>
<event>
 4    1  0.4023583E+000  0.2366371E+03  0.7546771E-02  0.1122054E+00
         21   -1    0    0  501  502  0.00000000000E+00  0.00000000000E+00  0.78407752868E+02  0.78407752868E+02  0.00000000000E+00 0.  1.
         21   -1    0    0  502  503 -0.00000000000E+00 -0.00000000000E+00 -0.71422817387E+03  0.71422817387E+03  0.00000000000E+00 0. -1.
          6    1    1    2  501    0 -0.20259210220E+02 -0.16018015555E+03 -0.31459935205E+03  0.39366212688E+03  0.17300000000E+03 0. -1.
         -6    1    1    2    0  503  0.20259210220E+02  0.16018015555E+03 -0.32122106895E+03  0.39897379986E+03  0.17300000000E+03 0.  1.
<mgrwt>
<rscale>  2 0.23663710E+03</rscale>
<asrwt>0</asrwt>
<pdfrwt beam="1">  1       21 0.12062731E-01 0.23663710E+03</pdfrwt>
<pdfrwt beam="2">  1       21 0.10988126E+00 0.23663710E+03</pdfrwt>
<totfact> 0.37205688E+04</totfact>
</mgrwt>
</event>
<event>
 4    1  0.4023583E+000  0.2303130E+03  0.7546771E-02  0.1126420E+00
         21   -1    0    0  501  502  0.00000000000E+00  0.00000000000E+00  0.83344957359E+02  0.83344957359E+02  0.00000000000E+00 0.  1.
         21   -1    0    0  502  503 -0.00000000000E+00 -0.00000000000E+00 -0.89244523914E+03  0.89244523914E+03  0.00000000000E+00 0. -1.
          6    1    1    2  501    0  0.95176871487E+02  0.11855994615E+03 -0.14323789850E+03  0.27122166814E+03  0.17300000000E+03 0.  1.
         -6    1    1    2    0  503 -0.95176871487E+02 -0.11855994615E+03 -0.66586238328E+03  0.70456852837E+03  0.17300000000E+03 0.  1.
<mgrwt>
<rscale>  2 0.23031304E+03</rscale>
<asrwt>0</asrwt>
<pdfrwt beam="1">  1       21 0.12822301E-01 0.23031304E+03</pdfrwt>
<pdfrwt beam="2">  1       21 0.13729927E+00 0.23031304E+03</pdfrwt>
<totfact> 0.19146278E+04</totfact>
</mgrwt>
</event>
<event>
 4    1  0.4023583E+000  0.2045579E+03  0.7546771E-02  0.1145949E+00
         21   -1    0    0  501  502  0.00000000000E+00  0.00000000000E+00  0.16729043301E+03  0.16729043301E+03  0.00000000000E+00 0.  1.
         21   -1    0    0  502  503 -0.00000000000E+00 -0.00000000000E+00 -0.40187564938E+03  0.40187564938E+03  0.00000000000E+00 0.  1.
          6    1    1    2  501    0 -0.10152940492E+03  0.40083841397E+02  0.57581253574E+02  0.21250772967E+03  0.17300000000E+03 0.  1.
         -6    1    1    2    0  503  0.10152940492E+03 -0.40083841397E+02 -0.29216646995E+03  0.35665835272E+03  0.17300000000E+03 0.  1.
<mgrwt>
<rscale>  2 0.20455790E+03</rscale>
<asrwt>0</asrwt>
<pdfrwt beam="1">  1       21 0.25736990E-01 0.20455790E+03</pdfrwt>
<pdfrwt beam="2">  1       21 0.61827022E-01 0.20455790E+03</pdfrwt>
<totfact> 0.34584789E+04</totfact>
</mgrwt>
</event>
<event>
 4    1  0.4023583E+000  0.1940946E+03  0.7546771E-02  0.1154819E+00
         21   -1    0    0  503  502  0.00000000000E+00  0.00000000000E+00  0.11920588855E+04  0.11920588855E+04  0.00000000000E+00 0. -1.
         21   -1    0    0  501  503 -0.00000000000E+00 -0.00000000000E+00 -0.31604957329E+02  0.31604957329E+02  0.00000000000E+00 0. -1.
          6    1    1    2  501    0  0.43797932988E+02 -0.76324679608E+02  0.58495996508E+03  0.61632043322E+03  0.17300000000E+03 0. -1.
         -6    1    1    2    0  502 -0.43797932988E+02  0.76324679608E+02  0.57549396312E+03  0.60734340964E+03  0.17300000000E+03 0. -1.
<mgrwt>
<rscale>  2 0.19409460E+03</rscale>
<asrwt>0</asrwt>
<pdfrwt beam="1">  1       21 0.18339364E+00 0.19409460E+03</pdfrwt>
<pdfrwt beam="2">  1       21 0.48623020E-02 0.19409460E+03</pdfrwt>
<totfact> 0.48631281E+04</totfact>
</mgrwt>
</event>
<event>
 4    1  0.4023583E+000  0.2441361E+03  0.7546771E-02  0.1117068E+00
         21   -1    0    0  503  502  0.00000000000E+00  0.00000000000E+00  0.72864301005E+03  0.72864301005E+03  0.00000000000E+00 0.  1.
         21   -1    0    0  501  503 -0.00000000000E+00 -0.00000000000E+00 -0.11591743427E+03  0.11591743427E+03  0.00000000000E+00 0.  1.
          6    1    1    2  501    0  0.16926109063E+03 -0.32002124105E+02  0.77265837635E+02  0.25607120575E+03  0.17300000000E+03 0.  1.
         -6    1    1    2    0  502 -0.16926109063E+03  0.32002124105E+02  0.53545973814E+03  0.58848923858E+03  0.17300000000E+03 0.  1.
<mgrwt>
<rscale>  2 0.24413614E+03</rscale>
<asrwt>0</asrwt>
<pdfrwt beam="1">  1       21 0.11209892E+00 0.24413614E+03</pdfrwt>
<pdfrwt beam="2">  1       21 0.17833452E-01 0.24413614E+03</pdfrwt>
<totfact> 0.17280415E+04</totfact>
</mgrwt>
</event>
<event>
 4    1  0.4023583E+000  0.2114708E+03  0.7546771E-02  0.1140407E+00
         21   -1    0    0  503  502  0.00000000000E+00  0.00000000000E+00  0.56023424211E+03  0.56023424211E+03  0.00000000000E+00 0.  1.
         21   -1    0    0  501  503 -0.00000000000E+00 -0.00000000000E+00 -0.82136810531E+02  0.82136810531E+02  0.00000000000E+00 0. -1.
          6    1    1    2  501    0 -0.20016244291E+02  0.11995937213E+03  0.29294971500E+03  0.36130241698E+03  0.17300000000E+03 0.  1.
         -6    1    1    2    0  502  0.20016244291E+02 -0.11995937213E+03  0.18514771658E+03  0.28106863566E+03  0.17300000000E+03 0. -1.
<mgrwt>
<rscale>  2 0.21147080E+03</rscale>
<asrwt>0</asrwt>
<pdfrwt beam="1">  1       21 0.86189881E-01 0.21147080E+03</pdfrwt>
<pdfrwt beam="2">  1       21 0.12636433E-01 0.21147080E+03</pdfrwt>
<totfact> 0.61535885E+04</totfact>
</mgrwt>
</event>
<event>
 4    1  0.4023583E+000  0.1756487E+03  0.7546771E-02  0.1172082E+00
         21   -1    0    0  501  502  0.00000000000E+00  0.00000000000E+00  0.50272297608E+03  0.50272297608E+03  0.00000000000E+00 0. -1.
         21   -1    0    0  502  503 -0.00000000000E+00 -0.00000000000E+00 -0.66325842146E+02  0.66325842146E+02  0.00000000000E+00 0.  1.
          6    1    1    2  501    0 -0.28901468687E+02  0.93904362483E+01  0.29596728881E+03  0.34416436659E+03  0.17300000000E+03 0. -1.
         -6    1    1    2    0  503  0.28901468687E+02 -0.93904362483E+01  0.14042984512E+03  0.22488445163E+03  0.17300000000E+03 0.  1.
<mgrwt>
<rscale>  2 0.17564873E+03</rscale>
<asrwt>0</asrwt>
<pdfrwt beam="1">  1       21 0.77341994E-01 0.17564873E+03</pdfrwt>
<pdfrwt beam="2">  1       21 0.10203976E-01 0.17564873E+03</pdfrwt>
<totfact> 0.11695156E+05</totfact>
</mgrwt>
</event>
<event>
 4    1  0.4023583E+000  0.1871152E+03  0.7546771E-02  0.1161089E+00
         21   -1    0    0  501  502  0.00000000000E+00  0.00000000000E+00  0.11945383417E+03  0.11945383417E+03  0.00000000000E+00 0.  1.
         21   -1    0    0  502  503 -0.00000000000E+00 -0.00000000000E+00 -0.31259592695E+03  0.31259592695E+03  0.00000000000E+00 0.  1.
          6    1    1    2  501    0 -0.20399142855E+02  0.68315332217E+02 -0.42624174792E+02  0.19190864994E+03  0.17300000000E+03 0.  1.
         -6    1    1    2    0  503  0.20399142855E+02 -0.68315332217E+02 -0.15051791798E+03  0.24014111118E+03  0.17300000000E+03 0.  1.
<mgrwt>
<rscale>  2 0.18711523E+03</rscale>
<asrwt>0</asrwt>
<pdfrwt beam="1">  1       21 0.18377513E-01 0.18711523E+03</pdfrwt>
<pdfrwt beam="2">  1       21 0.48091680E-01 0.18711523E+03</pdfrwt>
<totfact> 0.11184932E+05</totfact>
</mgrwt>
</event>
<event>
 4    1  0.4023583E+000  0.1753370E+03  0.7546771E-02  0.1172394E+00
         21   -1    0    0  501  502  0.00000000000E+00  0.00000000000E+00  0.99718388343E+02  0.99718388343E+02  0.00000000000E+00 0.  1.
         21   -1    0    0  502  503 -0.00000000000E+00 -0.00000000000E+00 -0.34633465413E+03  0.34633465413E+03  0.00000000000E+00 0.  1.
          6    1    1    2  501    0  0.11462448507E+02  0.26128165278E+02 -0.49397896568E+02  0.18216262221E+03  0.17300000000E+03 0.  1.
         -6    1    1    2    0  503 -0.11462448507E+02 -0.26128165278E+02 -0.19721836922E+03  0.26389042026E+03  0.17300000000E+03 0.  1.
<mgrwt>
<rscale>  2 0.17533701E+03</rscale>
<asrwt>0</asrwt>
<pdfrwt beam="1">  1       21 0.15341291E-01 0.17533701E+03</pdfrwt>
<pdfrwt beam="2">  1       21 0.53282254E-01 0.17533701E+03</pdfrwt>
<totfact> 0.12634698E+05</totfact>
</mgrwt>
</event>
<event>
 4    1  0.4023583E+000  0.1806337E+03  0.7546771E-02  0.1167191E+00
         21   -1    0    0  503  502  0.00000000000E+00  0.00000000000E+00  0.13814868807E+03  0.13814868807E+03  0.00000000000E+00 0.  1.
         21   -1    0    0  501  503 -0.00000000000E+00 -0.00000000000E+00 -0.23892347757E+03  0.23892347757E+03  0.00000000000E+00 0.  1.
          6    1    1    2  501    0 -0.32824835702E+02 -0.40274943710E+02 -0.30199964171E+02  0.18314087137E+03  0.17300000000E+03 0.  1.
         -6    1    1    2    0  502  0.32824835702E+02  0.40274943710E+02 -0.70574825329E+02  0.19393129428E+03  0.17300000000E+03 0.  1.
<mgrwt>
<rscale>  2 0.18063372E+03</rscale>
<asrwt>0</asrwt>
<pdfrwt beam="1">  1       21 0.21253644E-01 0.18063372E+03</pdfrwt>
<pdfrwt beam="2">  1       21 0.36757458E-01 0.18063372E+03</pdfrwt>
<totfact> 0.14760494E+05</totfact>
</mgrwt>
</event>
<event>
 4    1  0.4023583E+000  0.4060048E+03  0.7546771E-02  0.1041720E+00
         21   -1    0    0  503  502  0.00000000000E+00  0.00000000000E+00  0.16248413677E+03  0.16248413677E+03  0.00000000000E+00 0. -1.
         21   -1    0    0  501  503 -0.00000000000E+00 -0.00000000000E+00 -0.12782254488E+04  0.12782254488E+04  0.00000000000E+00 0.  1.
          6    1    1    2  501    0 -0.31516532082E+03  0.18863117535E+03 -0.88507573960E+03  0.97375508450E+03  0.17300000000E+03 0.  1.
         -6    1    1    2    0  502  0.31516532082E+03 -0.18863117535E+03 -0.23066557244E+03  0.46695450107E+03  0.17300000000E+03 0. -1.
<mgrwt>
<rscale>  2 0.40600480E+03</rscale>
<asrwt>0</asrwt>
<pdfrwt beam="1">  1       21 0.24997559E-01 0.40600480E+03</pdfrwt>
<pdfrwt beam="2">  1       21 0.19665008E+00 0.40600480E+03</pdfrwt>
<totfact> 0.18420937E+03</totfact>
</mgrwt>
</event>
<event>
 4    1  0.4023583E+000  0.2204256E+03  0.7546771E-02  0.1133566E+00
         21   -1    0    0  503  502  0.00000000000E+00  0.00000000000E+00  0.10277124640E+03  0.10277124640E+03  0.00000000000E+00 0. -1.
         21   -1    0    0  501  503 -0.00000000000E+00 -0.00000000000E+00 -0.66065889020E+03  0.66065889020E+03  0.00000000000E+00 0.  1.
          6    1    1    2  501    0  0.95442303361E+02  0.97719974329E+02 -0.75381105000E+02  0.23295866081E+03  0.17300000000E+03 0. -1.
         -6    1    1    2    0  502 -0.95442303361E+02 -0.97719974329E+02 -0.48250653880E+03  0.53047147580E+03  0.17300000000E+03 0.  1.
<mgrwt>
<rscale>  2 0.22042556E+03</rscale>
<asrwt>0</asrwt>
<pdfrwt beam="1">  1       21 0.15810960E-01 0.22042556E+03</pdfrwt>
<pdfrwt beam="2">  1       21 0.10163983E+00 0.22042556E+03</pdfrwt>
<totfact> 0.27704261E+04</totfact>
</mgrwt>
</event>
<event>
 4    1  0.4023583E+000  0.4685072E+03  0.7546771E-02  0.1022342E+00
         21   -1    0    0  501  502  0.00000000000E+00  0.00000000000E+00  0.10208931274E+03  0.10208931274E+03  0.00000000000E+00 0.  1.
         21   -1    0    0  502  503 -0.00000000000E+00 -0.00000000000E+00 -0.21992593670E+04  0.21992593670E+04  0.00000000000E+00 0. -1.
          6    1    1    2  501    0  0.12560147722E+03  0.41688638919E+03 -0.87649431404E+03  0.99385173699E+03  0.17300000000E+03 0. -1.
         -6    1    1    2    0  503 -0.12560147722E+03 -0.41688638919E+03 -0.12206757402E+04  0.13074969428E+04  0.17300000000E+03 0.  1.
<mgrwt>
<rscale>  2 0.46850720E+03</rscale>
<asrwt>0</asrwt>
<pdfrwt beam="1">  1       21 0.15706047E-01 0.46850720E+03</pdfrwt>
<pdfrwt beam="2">  1       21 0.33834761E+00 0.46850720E+03</pdfrwt>
<totfact> 0.57701944E+02</totfact>
</mgrwt>
</event>
<event>
 4    1  0.4023583E+000  0.2536281E+03  0.7546771E-02  0.1111033E+00
         21   -1    0    0  501  502  0.00000000000E+00  0.00000000000E+00  0.46331961535E+02  0.46331961535E+02  0.00000000000E+00 0.  1.
         21   -1    0    0  502  503 -0.00000000000E+00 -0.00000000000E+00 -0.14190192642E+04  0.14190192642E+04  0.00000000000E+00 0. -1.
          6    1    1    2  501    0 -0.10205152918E+03  0.15486673597E+03 -0.57871536474E+03  0.63185338007E+03  0.17300000000E+03 0.  1.
         -6    1    1    2    0  503  0.10205152918E+03 -0.15486673597E+03 -0.79397193793E+03  0.83349784567E+03  0.17300000000E+03 0. -1.
<mgrwt>
<rscale>  2 0.25362811E+03</rscale>
<asrwt>0</asrwt>
<pdfrwt beam="1">  1       21 0.71279939E-02 0.25362811E+03</pdfrwt>
<pdfrwt beam="2">  1       21 0.21831066E+00 0.25362811E+03</pdfrwt>
<totfact> 0.14433242E+04</totfact>
</mgrwt>
</event>
<event>
 4    1  0.4023583E+000  0.1971763E+03  0.7546771E-02  0.1152143E+00
         21   -1    0    0  503  502  0.00000000000E+00  0.00000000000E+00  0.12537781366E+03  0.12537781366E+03  0.00000000000E+00 0. -1.
         21   -1    0    0  501  503 -0.00000000000E+00 -0.00000000000E+00 -0.33414573419E+03  0.33414573419E+03  0.00000000000E+00 0. -1.
          6    1    1    2  501    0 -0.14196732720E+02  0.93530532913E+02 -0.16603094090E+03  0.25776885216E+03  0.17300000000E+03 0. -1.
         -6    1    1    2    0  502  0.14196732720E+02 -0.93530532913E+02 -0.42736979624E+02  0.20175469569E+03  0.17300000000E+03 0. -1.
<mgrwt>
<rscale>  2 0.19717634E+03</rscale>
<asrwt>0</asrwt>
<pdfrwt beam="1">  1       21 0.19288894E-01 0.19717634E+03</pdfrwt>
<pdfrwt beam="2">  1       21 0.51407036E-01 0.19717634E+03</pdfrwt>
<totfact> 0.88631188E+04</totfact>
</mgrwt>
</event>
<event>
 4    1  0.4023583E+000  0.2788020E+03  0.7546771E-02  0.1096345E+00
         21   -1    0    0  501  502  0.00000000000E+00  0.00000000000E+00  0.73809399966E+03  0.73809399966E+03  0.00000000000E+00 0.  1.
         21   -1    0    0  502  503 -0.00000000000E+00 -0.00000000000E+00 -0.10535570028E+03  0.10535570028E+03  0.00000000000E+00 0. -1.
          6    1    1    2  501    0  0.15066805887E+03  0.15843198964E+03  0.30783411715E+03  0.41532204731E+03  0.17300000000E+03 0.  1.
         -6    1    1    2    0  503 -0.15066805887E+03 -0.15843198964E+03  0.32490418223E+03  0.42812765262E+03  0.17300000000E+03 0.  1.
<mgrwt>
<rscale>  2 0.27880201E+03</rscale>
<asrwt>0</asrwt>
<pdfrwt beam="1">  1       21 0.11355292E+00 0.27880201E+03</pdfrwt>
<pdfrwt beam="2">  1       21 0.16208570E-01 0.27880201E+03</pdfrwt>
<totfact> 0.19646873E+04</totfact>
</mgrwt>
</event>
<event>
 4    1  0.4023583E+000  0.2479453E+03  0.7546771E-02  0.1114610E+00
         21   -1    0    0  501  502  0.00000000000E+00  0.00000000000E+00  0.61511550473E+03  0.61511550473E+03  0.00000000000E+00 0. -1.
         21   -1    0    0  502  503 -0.00000000000E+00 -0.00000000000E+00 -0.46003575276E+03  0.46003575276E+03  0.00000000000E+00 0.  1.
          6    1    1    2  501    0  0.14049891957E+03 -0.10866422712E+03  0.55314946808E+03  0.60617752738E+03  0.17300000000E+03 0. -1.
         -6    1    1    2    0  503 -0.14049891957E+03  0.10866422712E+03 -0.39806971611E+03  0.46897373012E+03  0.17300000000E+03 0.  1.
<mgrwt>
<rscale>  2 0.24794528E+03</rscale>
<asrwt>0</asrwt>
<pdfrwt beam="1">  1       21 0.94633154E-01 0.24794528E+03</pdfrwt>
<pdfrwt beam="2">  1       21 0.70774732E-01 0.24794528E+03</pdfrwt>
<totfact> 0.16134867E+03</totfact>
</mgrwt>
</event>
<event>
 4    1  0.4023583E+000  0.1834031E+03  0.7546771E-02  0.1164550E+00
         21   -1    0    0  501  502  0.00000000000E+00  0.00000000000E+00  0.22539219187E+03  0.22539219187E+03  0.00000000000E+00 0.  1.
         21   -1    0    0  502  503 -0.00000000000E+00 -0.00000000000E+00 -0.15419779359E+03  0.15419779359E+03  0.00000000000E+00 0.  1.
          6    1    1    2  501    0  0.60881467107E+02  0.10764770643E+01  0.15525423314E+01  0.18340971138E+03  0.17300000000E+03 0.  1.
         -6    1    1    2    0  503 -0.60881467107E+02 -0.10764770643E+01  0.69641855954E+02  0.19618027409E+03  0.17300000000E+03 0.  1.
<mgrwt>
<rscale>  2 0.18340314E+03</rscale>
<asrwt>0</asrwt>
<pdfrwt beam="1">  1       21 0.34675722E-01 0.18340314E+03</pdfrwt>
<pdfrwt beam="2">  1       21 0.23722737E-01 0.18340314E+03</pdfrwt>
<totfact> 0.13458212E+05</totfact>
</mgrwt>
</event>
<event>
 4    1  0.4023583E+000  0.2180529E+03  0.7546771E-02  0.1135343E+00
         21   -1    0    0  501  502  0.00000000000E+00  0.00000000000E+00  0.77842672297E+03  0.77842672297E+03  0.00000000000E+00 0.  1.
         21   -1    0    0  502  503 -0.00000000000E+00 -0.00000000000E+00 -0.59832033952E+03  0.59832033952E+03  0.00000000000E+00 0.  1.
          6    1    1    2  501    0  0.18615897724E+01 -0.13271997964E+03  0.74234390477E+03  0.77370635998E+03  0.17300000000E+03 0.  1.
         -6    1    1    2    0  503 -0.18615897724E+01  0.13271997964E+03 -0.56223752132E+03  0.60304070251E+03  0.17300000000E+03 0.  1.
<mgrwt>
<rscale>  2 0.21805288E+03</rscale>
<asrwt>0</asrwt>
<pdfrwt beam="1">  1       21 0.11975796E+00 0.21805288E+03</pdfrwt>
<pdfrwt beam="2">  1       21 0.92049283E-01 0.21805288E+03</pdfrwt>
<totfact> 0.51509473E+02</totfact>
</mgrwt>
</event>
<event>
 4    1  0.4023583E+000  0.1951252E+03  0.7546771E-02  0.1153918E+00
         21   -1    0    0  501  502  0.00000000000E+00  0.00000000000E+00  0.65292361510E+02  0.65292361510E+02  0.00000000000E+00 0. -1.
         21   -1    0    0  502  503 -0.00000000000E+00 -0.00000000000E+00 -0.58970456206E+03  0.58970456206E+03  0.00000000000E+00 0. -1.
          6    1    1    2  501    0 -0.77186330981E+02  0.46766421273E+02 -0.22762175856E+03  0.29980909396E+03  0.17300000000E+03 0. -1.
         -6    1    1    2    0  503  0.77186330981E+02 -0.46766421273E+02 -0.29679044200E+03  0.35518782962E+03  0.17300000000E+03 0. -1.
<mgrwt>
<rscale>  2 0.19512516E+03</rscale>
<asrwt>0</asrwt>
<pdfrwt beam="1">  1       21 0.10044979E-01 0.19512516E+03</pdfrwt>
<pdfrwt beam="2">  1       21 0.90723780E-01 0.19512516E+03</pdfrwt>
<totfact> 0.82933112E+04</totfact>
</mgrwt>
</event>
<event>
 4    1  0.4023583E+000  0.1883647E+03  0.7546771E-02  0.1159945E+00
         21   -1    0    0  503  502  0.00000000000E+00  0.00000000000E+00  0.31105159611E+02  0.31105159611E+02  0.00000000000E+00 0.  1.
         21   -1    0    0  501  503 -0.00000000000E+00 -0.00000000000E+00 -0.12150083617E+04  0.12150083617E+04  0.00000000000E+00 0.  1.
          6    1    1    2  501    0  0.70558275627E+02 -0.23954126345E+02 -0.74604818184E+03  0.76946030440E+03  0.17300000000E+03 0.  1.
         -6    1    1    2    0  502 -0.70558275627E+02  0.23954126345E+02 -0.43785502024E+03  0.47665321689E+03  0.17300000000E+03 0.  1.
<mgrwt>
<rscale>  2 0.18836473E+03</rscale>
<asrwt>0</asrwt>
<pdfrwt beam="1">  1       21 0.47854095E-02 0.18836473E+03</pdfrwt>
<pdfrwt beam="2">  1       21 0.18692435E+00 0.18836473E+03</pdfrwt>
<totfact> 0.47486704E+04</totfact>
</mgrwt>
</event>
<event>
 4    1  0.4023583E+000  0.1793759E+03  0.7546771E-02  0.1168408E+00
         21   -1    0    0  503  502  0.00000000000E+00  0.00000000000E+00  0.74430367843E+03  0.74430367843E+03  0.00000000000E+00 0.  1.
         21   -1    0    0  501  503 -0.00000000000E+00 -0.00000000000E+00 -0.13166532708E+03  0.13166532708E+03  0.00000000000E+00 0.  1.
          6    1    1    2  501    0 -0.27401705566E+02  0.38676375340E+02 -0.52633903337E+02  0.18693860826E+03  0.17300000000E+03 0.  1.
         -6    1    1    2    0  502  0.27401705566E+02 -0.38676375340E+02  0.66527225468E+03  0.68903039725E+03  0.17300000000E+03 0.  1.
<mgrwt>
<rscale>  2 0.17937591E+03</rscale>
<asrwt>0</asrwt>
<pdfrwt beam="1">  1       21 0.11450826E+00 0.17937591E+03</pdfrwt>
<pdfrwt beam="2">  1       21 0.20256205E-01 0.17937591E+03</pdfrwt>
<totfact> 0.13475368E+04</totfact>
</mgrwt>
</event>
<event>
 4    1  0.4023583E+000  0.2230279E+03  0.7546771E-02  0.1131646E+00
         21   -1    0    0  501  502  0.00000000000E+00  0.00000000000E+00  0.58045978887E+03  0.58045978887E+03  0.00000000000E+00 0.  1.
         21   -1    0    0  502  503 -0.00000000000E+00 -0.00000000000E+00 -0.81135718453E+03  0.81135718453E+03  0.00000000000E+00 0. -1.
          6    1    1    2  501    0  0.93091993907E+02 -0.10557606757E+03  0.54268463981E+03  0.58672654930E+03  0.17300000000E+03 0.  1.
         -6    1    1    2    0  503 -0.93091993907E+02  0.10557606757E+03 -0.77358203547E+03  0.80509042409E+03  0.17300000000E+03 0. -1.
<mgrwt>
<rscale>  2 0.22302786E+03</rscale>
<asrwt>0</asrwt>
<pdfrwt beam="1">  1       21 0.89301506E-01 0.22302786E+03</pdfrwt>
<pdfrwt beam="2">  1       21 0.12482418E+00 0.22302786E+03</pdfrwt>
<totfact> 0.49581816E+02</totfact>
</mgrwt>
</event>
<event>
 4    1  0.4023583E+000  0.1920851E+03  0.7546771E-02  0.1156594E+00
         21   -1    0    0  503  502  0.00000000000E+00  0.00000000000E+00  0.28394609277E+03  0.28394609277E+03  0.00000000000E+00 0.  1.
         21   -1    0    0  501  503 -0.00000000000E+00 -0.00000000000E+00 -0.22476324768E+03  0.22476324768E+03  0.00000000000E+00 0.  1.
          6    1    1    2  501    0 -0.83367894975E+02  0.41819081330E+01 -0.13561560594E+03  0.23513461430E+03  0.17300000000E+03 0.  1.
         -6    1    1    2    0  502  0.83367894975E+02 -0.41819081330E+01  0.19479845103E+03  0.27357472616E+03  0.17300000000E+03 0.  1.
<mgrwt>
<rscale>  2 0.19208512E+03</rscale>
<asrwt>0</asrwt>
<pdfrwt beam="1">  1       21 0.43684015E-01 0.19208512E+03</pdfrwt>
<pdfrwt beam="2">  1       21 0.34578961E-01 0.19208512E+03</pdfrwt>
<totfact> 0.40605331E+04</totfact>
</mgrwt>
</event>
<event>
 4    1  0.4023583E+000  0.2437099E+03  0.7546771E-02  0.1117346E+00
         21   -1    0    0  501  502  0.00000000000E+00  0.00000000000E+00  0.62045526671E+02  0.62045526671E+02  0.00000000000E+00 0.  1.
         21   -1    0    0  502  503 -0.00000000000E+00 -0.00000000000E+00 -0.95950826867E+03  0.95950826867E+03  0.00000000000E+00 0. -1.
          6    1    1    2  501    0  0.98300352587E+02  0.14072150208E+03 -0.47338510415E+03  0.53243587154E+03  0.17300000000E+03 0. -1.
         -6    1    1    2    0  503 -0.98300352587E+02 -0.14072150208E+03 -0.42407763785E+03  0.48911792380E+03  0.17300000000E+03 0.  1.
<mgrwt>
<rscale>  2 0.24370987E+03</rscale>
<asrwt>0</asrwt>
<pdfrwt beam="1">  1       21 0.95454659E-02 0.24370987E+03</pdfrwt>
<pdfrwt beam="2">  1       21 0.14761665E+00 0.24370987E+03</pdfrwt>
<totfact> 0.26648888E+04</totfact>
</mgrwt>
</event>
<event>
 4    1  0.4023583E+000  0.2110477E+03  0.7546771E-02  0.1140739E+00
         21   -1    0    0  501  502  0.00000000000E+00  0.00000000000E+00  0.14613771265E+03  0.14613771265E+03  0.00000000000E+00 0.  1.
         21   -1    0    0  502  503 -0.00000000000E+00 -0.00000000000E+00 -0.39891257283E+03  0.39891257283E+03  0.00000000000E+00 0.  1.
          6    1    1    2  501    0  0.73241238659E+02 -0.96165836114E+02  0.59910026092E+01  0.21113275252E+03  0.17300000000E+03 0.  1.
         -6    1    1    2    0  503 -0.73241238659E+02  0.96165836114E+02 -0.25876586279E+03  0.33391753296E+03  0.17300000000E+03 0.  1.
<mgrwt>
<rscale>  2 0.21104774E+03</rscale>
<asrwt>0</asrwt>
<pdfrwt beam="1">  1       21 0.22482725E-01 0.21104774E+03</pdfrwt>
<pdfrwt beam="2">  1       21 0.61371164E-01 0.21104774E+03</pdfrwt>
<totfact> 0.45316548E+04</totfact>
</mgrwt>
</event>
<event>
 4    1  0.4023583E+000  0.1761935E+03  0.7546771E-02  0.1171539E+00
         21   -1    0    0  501  502  0.00000000000E+00  0.00000000000E+00  0.32057018426E+04  0.32057018426E+04  0.00000000000E+00 0. -1.
         21   -1    0    0  502  503 -0.00000000000E+00 -0.00000000000E+00 -0.19988922647E+02  0.19988922647E+02  0.00000000000E+00 0. -1.
          6    1    1    2  501    0 -0.20393668247E+02 -0.26443207096E+02  0.27508858097E+04  0.27565226070E+04  0.17300000000E+03 0. -1.
         -6    1    1    2    0  503  0.20393668247E+02  0.26443207096E+02  0.43482711035E+03  0.46916815834E+03  0.17300000000E+03 0. -1.
<mgrwt>
<rscale>  2 0.17619349E+03</rscale>
<asrwt>0</asrwt>
<pdfrwt beam="1">  1       21 0.49318449E+00 0.17619349E+03</pdfrwt>
<pdfrwt beam="2">  1       21 0.30752214E-02 0.17619349E+03</pdfrwt>
<totfact> 0.13194633E+03</totfact>
</mgrwt>
</event>
<event>
 4    1  0.4023583E+000  0.1815592E+03  0.7546771E-02  0.1166302E+00
         21   -1    0    0  503  502  0.00000000000E+00  0.00000000000E+00  0.30731476623E+03  0.30731476623E+03  0.00000000000E+00 0. -1.
         21   -1    0    0  501  503 -0.00000000000E+00 -0.00000000000E+00 -0.13478950329E+03  0.13478950329E+03  0.00000000000E+00 0. -1.
          6    1    1    2  501    0  0.46702714214E+02  0.29216702676E+02 -0.13630503361E+02  0.18207017837E+03  0.17300000000E+03 0. -1.
         -6    1    1    2    0  502 -0.46702714214E+02 -0.29216702676E+02  0.18615576631E+03  0.26003409115E+03  0.17300000000E+03 0. -1.
<mgrwt>
<rscale>  2 0.18155924E+03</rscale>
<asrwt>0</asrwt>
<pdfrwt beam="1">  1       21 0.47279195E-01 0.18155924E+03</pdfrwt>
<pdfrwt beam="2">  1       21 0.20736847E-01 0.18155924E+03</pdfrwt>
<totfact> 0.92724269E+04</totfact>
</mgrwt>
</event>
<event>
 4    1  0.4023583E+000  0.1883782E+03  0.7546771E-02  0.1159932E+00
         21   -1    0    0  503  502  0.00000000000E+00  0.00000000000E+00  0.33278299089E+02  0.33278299089E+02  0.00000000000E+00 0. -1.
         21   -1    0    0  501  503 -0.00000000000E+00 -0.00000000000E+00 -0.17868071784E+04  0.17868071784E+04  0.00000000000E+00 0.  1.
          6    1    1    2  501    0  0.71475074767E+02 -0.21181456810E+02 -0.14546299755E+04  0.14667769790E+04  0.17300000000E+03 0.  1.
         -6    1    1    2    0  502 -0.71475074767E+02  0.21181456810E+02 -0.29889890382E+03  0.35330849853E+03  0.17300000000E+03 0. -1.
<mgrwt>
<rscale>  2 0.18837818E+03</rscale>
<asrwt>0</asrwt>
<pdfrwt beam="1">  1       21 0.51197386E-02 0.18837818E+03</pdfrwt>
<pdfrwt beam="2">  1       21 0.27489340E+00 0.18837818E+03</pdfrwt>
<totfact> 0.12359605E+04</totfact>
</mgrwt>
</event>
<event>
 4    1  0.4023583E+000  0.2075289E+03  0.7546771E-02  0.1143538E+00
         21   -1    0    0  503  502  0.00000000000E+00  0.00000000000E+00  0.19206735484E+03  0.19206735484E+03  0.00000000000E+00 0. -1.
         21   -1    0    0  501  503 -0.00000000000E+00 -0.00000000000E+00 -0.22691594084E+03  0.22691594084E+03  0.00000000000E+00 0. -1.
          6    1    1    2  501    0 -0.11449591259E+03 -0.54706946332E+01  0.53460584151E+01  0.20759774286E+03  0.17300000000E+03 0. -1.
         -6    1    1    2    0  502  0.11449591259E+03  0.54706946332E+01 -0.40194644415E+02  0.21138555282E+03  0.17300000000E+03 0. -1.
<mgrwt>
<rscale>  2 0.20752890E+03</rscale>
<asrwt>0</asrwt>
<pdfrwt beam="1">  1       21 0.29548824E-01 0.20752890E+03</pdfrwt>
<pdfrwt beam="2">  1       21 0.34910145E-01 0.20752890E+03</pdfrwt>
<totfact> 0.86272110E+04</totfact>
</mgrwt>
</event>
<event>
 4    1  0.4023583E+000  0.1982737E+03  0.7546771E-02  0.1151204E+00
         21   -1    0    0  501  502  0.00000000000E+00  0.00000000000E+00  0.17574848023E+03  0.17574848023E+03  0.00000000000E+00 0.  1.
         21   -1    0    0  502  503 -0.00000000000E+00 -0.00000000000E+00 -0.30132940711E+03  0.30132940711E+03  0.00000000000E+00 0. -1.
          6    1    1    2  501    0  0.24115061072E+02 -0.93818464352E+02  0.58294821627E+02  0.20666573652E+03  0.17300000000E+03 0.  1.
         -6    1    1    2    0  503 -0.24115061072E+02  0.93818464352E+02 -0.18387574850E+03  0.27041215082E+03  0.17300000000E+03 0. -1.
<mgrwt>
<rscale>  2 0.19827365E+03</rscale>
<asrwt>0</asrwt>
<pdfrwt beam="1">  1       21 0.27038228E-01 0.19827365E+03</pdfrwt>
<pdfrwt beam="2">  1       21 0.46358370E-01 0.19827365E+03</pdfrwt>
<totfact> 0.57942825E+04</totfact>
</mgrwt>
</event>
<event>
 4    1  0.4023583E+000  0.2117843E+03  0.7546771E-02  0.1140161E+00
         21   -1    0    0  503  502  0.00000000000E+00  0.00000000000E+00  0.22098490008E+03  0.22098490008E+03  0.00000000000E+00 0.  1.
         21   -1    0    0  501  503 -0.00000000000E+00 -0.00000000000E+00 -0.32824153512E+03  0.32824153512E+03  0.00000000000E+00 0.  1.
          6    1    1    2  501    0  0.11326574737E+02 -0.12163586690E+03 -0.22327938360E+03  0.30774381969E+03  0.17300000000E+03 0.  1.
         -6    1    1    2    0  502 -0.11326574737E+02  0.12163586690E+03  0.11602274857E+03  0.24148261552E+03  0.17300000000E+03 0.  1.
<mgrwt>
<rscale>  2 0.21178427E+03</rscale>
<asrwt>0</asrwt>
<pdfrwt beam="1">  1       21 0.33997677E-01 0.21178427E+03</pdfrwt>
<pdfrwt beam="2">  1       21 0.50498697E-01 0.21178427E+03</pdfrwt>
<totfact> 0.30791696E+04</totfact>
</mgrwt>
</event>
<event>
 4    1  0.4023583E+000  0.1773302E+03  0.7546771E-02  0.1170412E+00
         21   -1    0    0  503  502  0.00000000000E+00  0.00000000000E+00  0.53255506884E+03  0.53255506884E+03  0.00000000000E+00 0. -1.
         21   -1    0    0  501  503 -0.00000000000E+00 -0.00000000000E+00 -0.68409845847E+02  0.68409845847E+02  0.00000000000E+00 0. -1.
          6    1    1    2  501    0  0.30412047004E+02  0.24333336882E+02  0.34323400069E+03  0.38633610123E+03  0.17300000000E+03 0. -1.
         -6    1    1    2    0  502 -0.30412047004E+02 -0.24333336882E+02  0.12091122231E+03  0.21462881346E+03  0.17300000000E+03 0. -1.
<mgrwt>
<rscale>  2 0.17733021E+03</rscale>
<asrwt>0</asrwt>
<pdfrwt beam="1">  1       21 0.81931546E-01 0.17733021E+03</pdfrwt>
<pdfrwt beam="2">  1       21 0.10524592E-01 0.17733021E+03</pdfrwt>
<totfact> 0.97180440E+04</totfact>
</mgrwt>
</event>
<event>
 4    1  0.4023583E+000  0.2094279E+03  0.7546771E-02  0.1142020E+00
         21   -1    0    0  501  502  0.00000000000E+00  0.00000000000E+00  0.52510055267E+03  0.52510055267E+03  0.00000000000E+00 0. -1.
         21   -1    0    0  502  503 -0.00000000000E+00 -0.00000000000E+00 -0.19851853456E+03  0.19851853456E+03  0.00000000000E+00 0. -1.
          6    1    1    2  501    0  0.26662338265E+02 -0.11497906504E+03  0.43865836353E+03  0.48608767272E+03  0.17300000000E+03 0. -1.
         -6    1    1    2    0  503 -0.26662338265E+02  0.11497906504E+03 -0.11207634541E+03  0.23753141451E+03  0.17300000000E+03 0. -1.
<mgrwt>
<rscale>  2 0.20942795E+03</rscale>
<asrwt>0</asrwt>
<pdfrwt beam="1">  1       21 0.80784700E-01 0.20942795E+03</pdfrwt>
<pdfrwt beam="2">  1       21 0.30541313E-01 0.20942795E+03</pdfrwt>
<totfact> 0.13694575E+04</totfact>
</mgrwt>
</event>
<event>
 4    1  0.4023583E+000  0.2357440E+03  0.7546771E-02  0.1122661E+00
         21   -1    0    0  501  502  0.00000000000E+00  0.00000000000E+00  0.49022035480E+02  0.49022035480E+02  0.00000000000E+00 0.  1.
         21   -1    0    0  502  503 -0.00000000000E+00 -0.00000000000E+00 -0.13484889413E+04  0.13484889413E+04  0.00000000000E+00 0.  1.
          6    1    1    2  501    0 -0.10629034654E+03 -0.11978563625E+03 -0.37084595223E+03  0.43943367726E+03  0.17300000000E+03 0.  1.
         -6    1    1    2    0  503  0.10629034654E+03  0.11978563625E+03 -0.92862095359E+03  0.95807729953E+03  0.17300000000E+03 0.  1.
<mgrwt>
<rscale>  2 0.23574401E+03</rscale>
<asrwt>0</asrwt>
<pdfrwt beam="1">  1       21 0.75418517E-02 0.23574401E+03</pdfrwt>
<pdfrwt beam="2">  1       21 0.20745983E+00 0.23574401E+03</pdfrwt>
<totfact> 0.15495388E+04</totfact>
</mgrwt>
</event>
<event>
 4    1  0.4023583E+000  0.1938503E+03  0.7546771E-02  0.1155034E+00
         21   -1    0    0  501  502  0.00000000000E+00  0.00000000000E+00  0.54465814051E+02  0.54465814051E+02  0.00000000000E+00 0. -1.
         21   -1    0    0  502  503 -0.00000000000E+00 -0.00000000000E+00 -0.72917872044E+03  0.72917872044E+03  0.00000000000E+00 0.  1.
          6    1    1    2  501    0  0.32425764403E+02 -0.81225018879E+02 -0.24645917896E+03  0.31356029848E+03  0.17300000000E+03 0. -1.
         -6    1    1    2    0  503 -0.32425764403E+02  0.81225018879E+02 -0.42825372742E+03  0.47008423601E+03  0.17300000000E+03 0. -1.
<mgrwt>
<rscale>  2 0.19385029E+03</rscale>
<asrwt>0</asrwt>
<pdfrwt beam="1">  1       21 0.83793564E-02 0.19385029E+03</pdfrwt>
<pdfrwt beam="2">  1       21 0.11218134E+00 0.19385029E+03</pdfrwt>
<totfact> 0.68896209E+04</totfact>
</mgrwt>
</event>
<event>
 4    1  0.4023583E+000  0.2099738E+03  0.7546771E-02  0.1141587E+00
         21   -1    0    0  501  502  0.00000000000E+00  0.00000000000E+00  0.14352376760E+04  0.14352376760E+04  0.00000000000E+00 0. -1.
         21   -1    0    0  502  503 -0.00000000000E+00 -0.00000000000E+00 -0.42475765318E+02  0.42475765318E+02  0.00000000000E+00 0. -1.
          6    1    1    2  501    0 -0.11545888994E+03 -0.28796624698E+02  0.10850987183E+04  0.11052276821E+04  0.17300000000E+03 0.  1.
         -6    1    1    2    0  503  0.11545888994E+03  0.28796624698E+02  0.30766319237E+03  0.37248575919E+03  0.17300000000E+03 0.  1.
<mgrwt>
<rscale>  2 0.20997381E+03</rscale>
<asrwt>0</asrwt>
<pdfrwt beam="1">  1       21 0.22080576E+00 0.20997381E+03</pdfrwt>
<pdfrwt beam="2">  1       21 0.65347342E-02 0.20997381E+03</pdfrwt>
<totfact> 0.16702997E+04</totfact>
</mgrwt>
</event>
<event>
 4    1  0.4023583E+000  0.1871271E+03  0.7546771E-02  0.1161078E+00
         21   -1    0    0  501  502  0.00000000000E+00  0.00000000000E+00  0.44984438942E+02  0.44984438942E+02  0.00000000000E+00 0.  1.
         21   -1    0    0  502  503 -0.00000000000E+00 -0.00000000000E+00 -0.78033873446E+03  0.78033873446E+03  0.00000000000E+00 0.  1.
          6    1    1    2  501    0 -0.54525169183E+02 -0.45984247661E+02 -0.38816835304E+03  0.43091903580E+03  0.17300000000E+03 0.  1.
         -6    1    1    2    0  503  0.54525169183E+02  0.45984247661E+02 -0.34718594247E+03  0.39440413760E+03  0.17300000000E+03 0.  1.
<mgrwt>
<rscale>  2 0.18712708E+03</rscale>
<asrwt>0</asrwt>
<pdfrwt beam="1">  1       21 0.69206837E-02 0.18712708E+03</pdfrwt>
<pdfrwt beam="2">  1       21 0.12005210E+00 0.18712708E+03</pdfrwt>
<totfact> 0.81588452E+04</totfact>
</mgrwt>
</event>
<event>
 4    1  0.4023583E+000  0.1825674E+03  0.7546771E-02  0.1165341E+00
         21   -1    0    0  503  502  0.00000000000E+00  0.00000000000E+00  0.13730991509E+03  0.13730991509E+03  0.00000000000E+00 0. -1.
         21   -1    0    0  501  503 -0.00000000000E+00 -0.00000000000E+00 -0.47091489923E+03  0.47091489923E+03  0.00000000000E+00 0. -1.
          6    1    1    2  501    0  0.23931147319E+02  0.53189705719E+02 -0.37848999620E+03  0.42022080129E+03  0.17300000000E+03 0.  1.
         -6    1    1    2    0  502 -0.23931147319E+02 -0.53189705719E+02  0.44885012069E+02  0.18800401303E+03  0.17300000000E+03 0.  1.
<mgrwt>
<rscale>  2 0.18256737E+03</rscale>
<asrwt>0</asrwt>
<pdfrwt beam="1">  1       21 0.21124603E-01 0.18256737E+03</pdfrwt>
<pdfrwt beam="2">  1       21 0.72448445E-01 0.18256737E+03</pdfrwt>
<totfact> 0.35967926E+04</totfact>
</mgrwt>
</event>
<event>
 4    1  0.4023583E+000  0.2148759E+03  0.7546771E-02  0.1137762E+00
         21   -1    0    0  501  502  0.00000000000E+00  0.00000000000E+00  0.11505704640E+03  0.11505704640E+03  0.00000000000E+00 0.  1.
         21   -1    0    0  502  503 -0.00000000000E+00 -0.00000000000E+00 -0.86833967683E+03  0.86833967683E+03  0.00000000000E+00 0. -1.
          6    1    1    2  501    0  0.54250237082E+01  0.12733108844E+03 -0.16034541015E+02  0.21547330106E+03  0.17300000000E+03 0.  1.
         -6    1    1    2    0  503 -0.54250237082E+01 -0.12733108844E+03 -0.73724808941E+03  0.76792342216E+03  0.17300000000E+03 0. -1.
<mgrwt>
<rscale>  2 0.21487586E+03</rscale>
<asrwt>0</asrwt>
<pdfrwt beam="1">  1       21 0.17701085E-01 0.21487586E+03</pdfrwt>
<pdfrwt beam="2">  1       21 0.13359071E+00 0.21487586E+03</pdfrwt>
<totfact> 0.11502145E+04</totfact>
</mgrwt>
</event>
<event>
 4    1  0.4023583E+000  0.1878610E+03  0.7546771E-02  0.1160405E+00
         21   -1    0    0  503  502  0.00000000000E+00  0.00000000000E+00  0.18056496805E+04  0.18056496805E+04  0.00000000000E+00 0.  1.
         21   -1    0    0  501  503 -0.00000000000E+00 -0.00000000000E+00 -0.19600200980E+02  0.19600200980E+02  0.00000000000E+00 0.  1.
          6    1    1    2  501    0  0.55503664505E+02  0.47771254479E+02  0.94137768594E+03  0.95993942367E+03  0.17300000000E+03 0.  1.
         -6    1    1    2    0  502 -0.55503664505E+02 -0.47771254479E+02  0.84467179358E+03  0.86531045781E+03  0.17300000000E+03 0.  1.
<mgrwt>
<rscale>  2 0.18786098E+03</rscale>
<asrwt>0</asrwt>
<pdfrwt beam="1">  1       21 0.27779213E+00 0.18786098E+03</pdfrwt>
<pdfrwt beam="2">  1       21 0.30154170E-02 0.18786098E+03</pdfrwt>
<totfact> 0.28876525E+04</totfact>
</mgrwt>
</event>
<event>
 4    1  0.4023583E+000  0.1913165E+03  0.7546771E-02  0.1157279E+00
         21   -1    0    0  503  502  0.00000000000E+00  0.00000000000E+00  0.32485385019E+02  0.32485385019E+02  0.00000000000E+00 0. -1.
         21   -1    0    0  501  503 -0.00000000000E+00 -0.00000000000E+00 -0.12261670617E+04  0.12261670617E+04  0.00000000000E+00 0. -1.
          6    1    1    2  501    0 -0.38147006960E+02 -0.72234416254E+02 -0.41761849862E+03  0.45935521704E+03  0.17300000000E+03 0.  1.
         -6    1    1    2    0  502  0.38147006960E+02  0.72234416254E+02 -0.77606317806E+03  0.79929722967E+03  0.17300000000E+03 0.  1.
<mgrwt>
<rscale>  2 0.19131650E+03</rscale>
<asrwt>0</asrwt>
<pdfrwt beam="1">  1       21 0.49977506E-02 0.19131650E+03</pdfrwt>
<pdfrwt beam="2">  1       21 0.18864112E+00 0.19131650E+03</pdfrwt>
<totfact> 0.42900228E+04</totfact>
</mgrwt>
</event>
<event>
 4    1  0.4023583E+000  0.1971003E+03  0.7546771E-02  0.1152209E+00
         21   -1    0    0  503  502  0.00000000000E+00  0.00000000000E+00  0.45087345177E+02  0.45087345177E+02  0.00000000000E+00 0. -1.
         21   -1    0    0  501  503 -0.00000000000E+00 -0.00000000000E+00 -0.15970308562E+04  0.15970308562E+04  0.00000000000E+00 0. -1.
          6    1    1    2  501    0 -0.66984386971E+02  0.66577813833E+02 -0.13331324343E+04  0.13476240576E+04  0.17300000000E+03 0. -1.
         -6    1    1    2    0  502  0.66984386971E+02 -0.66577813833E+02 -0.21881107675E+03  0.29449414374E+03  0.17300000000E+03 0. -1.
<mgrwt>
<rscale>  2 0.19710026E+03</rscale>
<asrwt>0</asrwt>
<pdfrwt beam="1">  1       21 0.69365162E-02 0.19710026E+03</pdfrwt>
<pdfrwt beam="2">  1       21 0.24569700E+00 0.19710026E+03</pdfrwt>
<totfact> 0.10787308E+04</totfact>
</mgrwt>
</event>
<event>
 4    1  0.4023583E+000  0.1876953E+03  0.7546771E-02  0.1160557E+00
         21   -1    0    0  503  502  0.00000000000E+00  0.00000000000E+00  0.90201196844E+02  0.90201196844E+02  0.00000000000E+00 0.  1.
         21   -1    0    0  501  503 -0.00000000000E+00 -0.00000000000E+00 -0.44715502456E+03  0.44715502456E+03  0.00000000000E+00 0. -1.
          6    1    1    2  501    0 -0.66508688356E+02  0.29616217456E+02 -0.27405737159E+03  0.33217009029E+03  0.17300000000E+03 0. -1.
         -6    1    1    2    0  502  0.66508688356E+02 -0.29616217456E+02 -0.82896456133E+02  0.20518613112E+03  0.17300000000E+03 0.  1.
<mgrwt>
<rscale>  2 0.18769530E+03</rscale>
<asrwt>0</asrwt>
<pdfrwt beam="1">  1       21 0.13877108E-01 0.18769530E+03</pdfrwt>
<pdfrwt beam="2">  1       21 0.68793079E-01 0.18769530E+03</pdfrwt>
<totfact> 0.87155619E+04</totfact>
</mgrwt>
</event>
<event>
 4    1  0.4023583E+000  0.2845405E+03  0.7546771E-02  0.1093235E+00
         21   -1    0    0  501  502  0.00000000000E+00  0.00000000000E+00  0.52676726034E+03  0.52676726034E+03  0.00000000000E+00 0.  1.
         21   -1    0    0  502  503 -0.00000000000E+00 -0.00000000000E+00 -0.16831525097E+03  0.16831525097E+03  0.00000000000E+00 0. -1.
          6    1    1    2  501    0 -0.16967254832E+03  0.14914938312E+03  0.28164270463E+03  0.40035724698E+03  0.17300000000E+03 0.  1.
         -6    1    1    2    0  503  0.16967254832E+03 -0.14914938312E+03  0.76809304739E+02  0.29472526433E+03  0.17300000000E+03 0.  1.
<mgrwt>
<rscale>  2 0.28454053E+03</rscale>
<asrwt>0</asrwt>
<pdfrwt beam="1">  1       21 0.81041116E-01 0.28454053E+03</pdfrwt>
<pdfrwt beam="2">  1       21 0.25894654E-01 0.28454053E+03</pdfrwt>
<totfact> 0.18023390E+04</totfact>
</mgrwt>
</event>
<event>
 4    1  0.4023583E+000  0.1841102E+03  0.7546771E-02  0.1163883E+00
         21   -1    0    0  503  502  0.00000000000E+00  0.00000000000E+00  0.83003983198E+02  0.83003983198E+02  0.00000000000E+00 0. -1.
         21   -1    0    0  501  503 -0.00000000000E+00 -0.00000000000E+00 -0.88290454434E+03  0.88290454434E+03  0.00000000000E+00 0. -1.
          6    1    1    2  501    0  0.61962560440E+02  0.11322582265E+02 -0.75401431590E+03  0.77616631487E+03  0.17300000000E+03 0. -1.
         -6    1    1    2    0  502 -0.61962560440E+02 -0.11322582265E+02 -0.45886245248E+02  0.18974221267E+03  0.17300000000E+03 0. -1.
<mgrwt>
<rscale>  2 0.18411018E+03</rscale>
<asrwt>0</asrwt>
<pdfrwt beam="1">  1       21 0.12769843E-01 0.18411018E+03</pdfrwt>
<pdfrwt beam="2">  1       21 0.13583148E+00 0.18411018E+03</pdfrwt>
<totfact> 0.20413453E+04</totfact>
</mgrwt>
</event>
<event>
 4    1  0.4023583E+000  0.1961892E+03  0.7546771E-02  0.1152995E+00
         21   -1    0    0  501  502  0.00000000000E+00  0.00000000000E+00  0.13396709926E+03  0.13396709926E+03  0.00000000000E+00 0. -1.
         21   -1    0    0  502  503 -0.00000000000E+00 -0.00000000000E+00 -0.66465520441E+03  0.66465520441E+03  0.00000000000E+00 0. -1.
          6    1    1    2  501    0  0.20667608895E+02  0.90188941888E+02  0.35528234891E+02  0.19938016644E+03  0.17300000000E+03 0. -1.
         -6    1    1    2    0  503 -0.20667608895E+02 -0.90188941888E+02 -0.56621634005E+03  0.59924213723E+03  0.17300000000E+03 0. -1.
<mgrwt>
<rscale>  2 0.19618918E+03</rscale>
<asrwt>0</asrwt>
<pdfrwt beam="1">  1       21 0.20610323E-01 0.19618918E+03</pdfrwt>
<pdfrwt beam="2">  1       21 0.10225465E+00 0.19618918E+03</pdfrwt>
<totfact> 0.16948814E+04</totfact>
</mgrwt>
</event>
<event>
 4    1  0.4023583E+000  0.2759696E+03  0.7546771E-02  0.1097911E+00
         21   -1    0    0  503  502  0.00000000000E+00  0.00000000000E+00  0.38640153681E+03  0.38640153681E+03  0.00000000000E+00 0.  1.
         21   -1    0    0  501  503 -0.00000000000E+00 -0.00000000000E+00 -0.31884994452E+03  0.31884994452E+03  0.00000000000E+00 0.  1.
          6    1    1    2  501    0  0.98482154027E+02  0.19113214349E+03 -0.18412438316E+03  0.33175445650E+03  0.17300000000E+03 0.  1.
         -6    1    1    2    0  502 -0.98482154027E+02 -0.19113214349E+03  0.25167597545E+03  0.37349702482E+03  0.17300000000E+03 0.  1.
<mgrwt>
<rscale>  2 0.27596962E+03</rscale>
<asrwt>0</asrwt>
<pdfrwt beam="1">  1       21 0.59446391E-01 0.27596962E+03</pdfrwt>
<pdfrwt beam="2">  1       21 0.49053837E-01 0.27596962E+03</pdfrwt>
<totfact> 0.99778234E+03</totfact>
</mgrwt>
</event>
<event>
 4    1  0.4023583E+000  0.2391811E+03  0.7546771E-02  0.1120340E+00
         21   -1    0    0  503  502  0.00000000000E+00  0.00000000000E+00  0.29484126865E+04  0.29484126865E+04  0.00000000000E+00 0.  1.
         21   -1    0    0  501  503 -0.00000000000E+00 -0.00000000000E+00 -0.25210400508E+02  0.25210400508E+02  0.00000000000E+00 0.  1.
          6    1    1    2  501    0 -0.16409913617E+03 -0.18710721015E+02  0.74798865428E+03  0.78529907965E+03  0.17300000000E+03 0.  1.
         -6    1    1    2    0  502  0.16409913617E+03  0.18710721015E+02  0.21752136317E+04  0.21883240074E+04  0.17300000000E+03 0.  1.
<mgrwt>
<rscale>  2 0.23918114E+03</rscale>
<asrwt>0</asrwt>
<pdfrwt beam="1">  1       21 0.45360168E+00 0.23918114E+03</pdfrwt>
<pdfrwt beam="2">  1       21 0.38785255E-02 0.23918114E+03</pdfrwt>
<totfact> 0.15229889E+03</totfact>
</mgrwt>
</event>
<event>
 4    1  0.4023583E+000  0.1901386E+03  0.7546771E-02  0.1158336E+00
         21   -1    0    0  503  502  0.00000000000E+00  0.00000000000E+00  0.10764543637E+04  0.10764543637E+04  0.00000000000E+00 0. -1.
         21   -1    0    0  501  503 -0.00000000000E+00 -0.00000000000E+00 -0.40809685948E+02  0.40809685948E+02  0.00000000000E+00 0.  1.
          6    1    1    2  501    0  0.39667172278E+02  0.68192448335E+02  0.28277551123E+03  0.34075604810E+03  0.17300000000E+03 0.  1.
         -6    1    1    2    0  502 -0.39667172278E+02 -0.68192448335E+02  0.75286916649E+03  0.77650800152E+03  0.17300000000E+03 0. -1.
<mgrwt>
<rscale>  2 0.19013862E+03</rscale>
<asrwt>0</asrwt>
<pdfrwt beam="1">  1       21 0.16560834E+00 0.19013862E+03</pdfrwt>
<pdfrwt beam="2">  1       21 0.62784140E-02 0.19013862E+03</pdfrwt>
<totfact> 0.41884488E+04</totfact>
</mgrwt>
</event>
<event>
 4    1  0.4023583E+000  0.1798157E+03  0.7546771E-02  0.1167982E+00
         21   -1    0    0  501  502  0.00000000000E+00  0.00000000000E+00  0.89918936320E+03  0.89918936320E+03  0.00000000000E+00 0.  1.
         21   -1    0    0  502  503 -0.00000000000E+00 -0.00000000000E+00 -0.59717004062E+02  0.59717004062E+02  0.00000000000E+00 0.  1.
          6    1    1    2  501    0 -0.18574645124E+02  0.45383517144E+02  0.72215228338E+03  0.74420266155E+03  0.17300000000E+03 0.  1.
         -6    1    1    2    0  503  0.18574645124E+02 -0.45383517144E+02  0.11732007576E+03  0.21470370571E+03  0.17300000000E+03 0.  1.
<mgrwt>
<rscale>  2 0.17981569E+03</rscale>
<asrwt>0</asrwt>
<pdfrwt beam="1">  1       21 0.13833682E+00 0.17981569E+03</pdfrwt>
<pdfrwt beam="2">  1       21 0.91872320E-02 0.17981569E+03</pdfrwt>
<totfact> 0.35032531E+04</totfact>
</mgrwt>
</event>
<event>
 4    1  0.4023583E+000  0.2235248E+03  0.7546771E-02  0.1131282E+00
         21   -1    0    0  503  502  0.00000000000E+00  0.00000000000E+00  0.24107845755E+04  0.24107845755E+04  0.00000000000E+00 0.  1.
         21   -1    0    0  501  503 -0.00000000000E+00 -0.00000000000E+00 -0.25538149149E+02  0.25538149149E+02  0.00000000000E+00 0. -1.
          6    1    1    2  501    0  0.76208719568E+02  0.11927519638E+03  0.66377878647E+03  0.70040389689E+03  0.17300000000E+03 0.  1.
         -6    1    1    2    0  502 -0.76208719568E+02 -0.11927519638E+03  0.17214676398E+04  0.17359188277E+04  0.17300000000E+03 0.  1.
<mgrwt>
<rscale>  2 0.22352481E+03</rscale>
<asrwt>0</asrwt>
<pdfrwt beam="1">  1       21 0.37088976E+00 0.22352481E+03</pdfrwt>
<pdfrwt beam="2">  1       21 0.39289479E-02 0.22352481E+03</pdfrwt>
<totfact> 0.51045537E+03</totfact>
</mgrwt>
</event>
<event>
 4    1  0.4023583E+000  0.1930696E+03  0.7546771E-02  0.1155721E+00
         21   -1    0    0  503  502  0.00000000000E+00  0.00000000000E+00  0.23572873529E+03  0.23572873529E+03  0.00000000000E+00 0. -1.
         21   -1    0    0  501  503 -0.00000000000E+00 -0.00000000000E+00 -0.16760195925E+03  0.16760195925E+03  0.00000000000E+00 0. -1.
          6    1    1    2  501    0 -0.27797174708E+01 -0.85668902249E+02 -0.13877011891E+02  0.19356771193E+03  0.17300000000E+03 0. -1.
         -6    1    1    2    0  502  0.27797174708E+01  0.85668902249E+02  0.82003787934E+02  0.20976298262E+03  0.17300000000E+03 0. -1.
<mgrwt>
<rscale>  2 0.19306964E+03</rscale>
<asrwt>0</asrwt>
<pdfrwt beam="1">  1       21 0.36265959E-01 0.19306964E+03</pdfrwt>
<pdfrwt beam="2">  1       21 0.25784917E-01 0.19306964E+03</pdfrwt>
<totfact> 0.10467823E+05</totfact>
</mgrwt>
</event>
<event>
 4    1  0.4023583E+000  0.2546837E+03  0.7546771E-02  0.1110380E+00
         21   -1    0    0  503  502  0.00000000000E+00  0.00000000000E+00  0.29286007356E+03  0.29286007356E+03  0.00000000000E+00 0.  1.
         21   -1    0    0  501  503 -0.00000000000E+00 -0.00000000000E+00 -0.50140011253E+03  0.50140011253E+03  0.00000000000E+00 0. -1.
          6    1    1    2  501    0 -0.11275607882E+03 -0.14906655762E+03 -0.40099537702E+03  0.47503796091E+03  0.17300000000E+03 0. -1.
         -6    1    1    2    0  502  0.11275607882E+03  0.14906655762E+03  0.19245533805E+03  0.31922222519E+03  0.17300000000E+03 0.  1.
<mgrwt>
<rscale>  2 0.25468367E+03</rscale>
<asrwt>0</asrwt>
<pdfrwt beam="1">  1       21 0.45055396E-01 0.25468367E+03</pdfrwt>
<pdfrwt beam="2">  1       21 0.77138478E-01 0.25468367E+03</pdfrwt>
<totfact> 0.67724596E+03</totfact>
</mgrwt>
</event>
<event>
 4    1  0.4023583E+000  0.2500041E+03  0.7546771E-02  0.1113302E+00
         21   -1    0    0  501  502  0.00000000000E+00  0.00000000000E+00  0.12610110136E+04  0.12610110136E+04  0.00000000000E+00 0. -1.
         21   -1    0    0  502  503 -0.00000000000E+00 -0.00000000000E+00 -0.75051073547E+02  0.75051073547E+02  0.00000000000E+00 0. -1.
          6    1    1    2  501    0  0.17879565236E+03 -0.24600111097E+02  0.98226650923E+03  0.10135825304E+04  0.17300000000E+03 0. -1.
         -6    1    1    2    0  503 -0.17879565236E+03  0.24600111097E+02  0.20369343085E+03  0.32247955678E+03  0.17300000000E+03 0. -1.
<mgrwt>
<rscale>  2 0.25000410E+03</rscale>
<asrwt>0</asrwt>
<pdfrwt beam="1">  1       21 0.19400168E+00 0.25000410E+03</pdfrwt>
<pdfrwt beam="2">  1       21 0.11546320E-01 0.25000410E+03</pdfrwt>
<totfact> 0.88368404E+03</totfact>
</mgrwt>
</event>
<event>
 4    1  0.4023583E+000  0.1979214E+03  0.7546771E-02  0.1151505E+00
         21   -1    0    0  501  502  0.00000000000E+00  0.00000000000E+00  0.76225232925E+03  0.76225232925E+03  0.00000000000E+00 0.  1.
         21   -1    0    0  502  503 -0.00000000000E+00 -0.00000000000E+00 -0.51591605872E+02  0.51591605872E+02  0.00000000000E+00 0.  1.
          6    1    1    2  501    0 -0.95735011932E+02  0.88710626630E+01  0.32995434081E+03  0.38476324575E+03  0.17300000000E+03 0. -1.
         -6    1    1    2    0  503  0.95735011932E+02 -0.88710626630E+01  0.38070638256E+03  0.42908068937E+03  0.17300000000E+03 0. -1.
<mgrwt>
<rscale>  2 0.19792142E+03</rscale>
<asrwt>0</asrwt>
<pdfrwt beam="1">  1       21 0.11726958E+00 0.19792142E+03</pdfrwt>
<pdfrwt beam="2">  1       21 0.79371707E-02 0.19792142E+03</pdfrwt>
<totfact> 0.67823718E+04</totfact>
</mgrwt>
</event>
<event>
 4    1  0.4023583E+000  0.2006970E+03  0.7546771E-02  0.1149152E+00
         21   -1    0    0  501  502  0.00000000000E+00  0.00000000000E+00  0.70748475291E+02  0.70748475291E+02  0.00000000000E+00 0.  1.
         21   -1    0    0  502  503 -0.00000000000E+00 -0.00000000000E+00 -0.56937114572E+03  0.56937114572E+03  0.00000000000E+00 0.  1.
          6    1    1    2  501    0  0.83766376643E+02 -0.57736322863E+02 -0.24661844141E+03  0.31796217460E+03  0.17300000000E+03 0.  1.
         -6    1    1    2    0  503 -0.83766376643E+02  0.57736322863E+02 -0.25200422902E+03  0.32215744641E+03  0.17300000000E+03 0.  1.
<mgrwt>
<rscale>  2 0.20069701E+03</rscale>
<asrwt>0</asrwt>
<pdfrwt beam="1">  1       21 0.10884381E-01 0.20069701E+03</pdfrwt>
<pdfrwt beam="2">  1       21 0.87595562E-01 0.20069701E+03</pdfrwt>
<totfact> 0.77812567E+04</totfact>
</mgrwt>
</event>
<event>
 4    1  0.4023583E+000  0.1758690E+03  0.7546771E-02  0.1171862E+00
         21   -1    0    0  501  502  0.00000000000E+00  0.00000000000E+00  0.42377564911E+02  0.42377564911E+02  0.00000000000E+00 0. -1.
         21   -1    0    0  502  503 -0.00000000000E+00 -0.00000000000E+00 -0.10132750945E+04  0.10132750945E+04  0.00000000000E+00 0. -1.
          6    1    1    2  501    0 -0.66310863745E+01  0.30934076996E+02 -0.20630029043E+03  0.27108983429E+03  0.17300000000E+03 0. -1.
         -6    1    1    2    0  503  0.66310863745E+01 -0.30934076996E+02 -0.76459723916E+03  0.78456282512E+03  0.17300000000E+03 0. -1.
<mgrwt>
<rscale>  2 0.17586895E+03</rscale>
<asrwt>0</asrwt>
<pdfrwt beam="1">  1       21 0.65196255E-02 0.17586895E+03</pdfrwt>
<pdfrwt beam="2">  1       21 0.15588847E+00 0.17586895E+03</pdfrwt>
<totfact> 0.46609053E+04</totfact>
</mgrwt>
</event>
<event>
 4    1  0.4023583E+000  0.2072147E+03  0.7546771E-02  0.1143791E+00
         21   -1    0    0  503  502  0.00000000000E+00  0.00000000000E+00  0.15509638349E+03  0.15509638349E+03  0.00000000000E+00 0.  1.
         21   -1    0    0  501  503 -0.00000000000E+00 -0.00000000000E+00 -0.39089114209E+03  0.39089114209E+03  0.00000000000E+00 0.  1.
          6    1    1    2  501    0 -0.20874873733E+02  0.11213015320E+03 -0.26535314342E+03  0.33667524758E+03  0.17300000000E+03 0.  1.
         -6    1    1    2    0  502  0.20874873733E+02 -0.11213015320E+03  0.29558384815E+02  0.20931227800E+03  0.17300000000E+03 0.  1.
<mgrwt>
<rscale>  2 0.20721470E+03</rscale>
<asrwt>0</asrwt>
<pdfrwt beam="1">  1       21 0.23860982E-01 0.20721470E+03</pdfrwt>
<pdfrwt beam="2">  1       21 0.60137098E-01 0.20721470E+03</pdfrwt>
<totfact> 0.42368848E+04</totfact>
</mgrwt>
</event>
<event>
 4    1  0.4023583E+000  0.2032046E+03  0.7546771E-02  0.1147063E+00
         21   -1    0    0  501  502  0.00000000000E+00  0.00000000000E+00  0.21818413415E+03  0.21818413415E+03  0.00000000000E+00 0. -1.
         21   -1    0    0  502  503 -0.00000000000E+00 -0.00000000000E+00 -0.43745015041E+03  0.43745015041E+03  0.00000000000E+00 0. -1.
          6    1    1    2  501    0  0.39523684013E+02 -0.99000014158E+02  0.13729211522E+03  0.24523712872E+03  0.17300000000E+03 0. -1.
         -6    1    1    2    0  503 -0.39523684013E+02  0.99000014158E+02 -0.35655813148E+03  0.41039715585E+03  0.17300000000E+03 0. -1.
<mgrwt>
<rscale>  2 0.20320464E+03</rscale>
<asrwt>0</asrwt>
<pdfrwt beam="1">  1       21 0.33566790E-01 0.20320464E+03</pdfrwt>
<pdfrwt beam="2">  1       21 0.67300023E-01 0.20320464E+03</pdfrwt>
<totfact> 0.17156308E+04</totfact>
</mgrwt>
</event>
<event>
 4    1  0.4023583E+000  0.1956789E+03  0.7546771E-02  0.1153437E+00
         21   -1    0    0  503  502  0.00000000000E+00  0.00000000000E+00  0.75006220649E+03  0.75006220649E+03  0.00000000000E+00 0. -1.
         21   -1    0    0  501  503 -0.00000000000E+00 -0.00000000000E+00 -0.51051283501E+02  0.51051283501E+02  0.00000000000E+00 0. -1.
          6    1    1    2  501    0 -0.97769837301E+01  0.90915520721E+02  0.34706876555E+03  0.39843060793E+03  0.17300000000E+03 0. -1.
         -6    1    1    2    0  502  0.97769837301E+01 -0.90915520721E+02  0.35194215744E+03  0.40268288206E+03  0.17300000000E+03 0. -1.
<mgrwt>
<rscale>  2 0.19567887E+03</rscale>
<asrwt>0</asrwt>
<pdfrwt beam="1">  1       21 0.11539418E+00 0.19567887E+03</pdfrwt>
<pdfrwt beam="2">  1       21 0.78540442E-02 0.19567887E+03</pdfrwt>
<totfact> 0.71935313E+04</totfact>
</mgrwt>
</event>
<event>
 4    1  0.4023583E+000  0.1821163E+03  0.7546771E-02  0.1165770E+00
         21   -1    0    0  501  502  0.00000000000E+00  0.00000000000E+00  0.66780329525E+03  0.66780329525E+03  0.00000000000E+00 0. -1.
         21   -1    0    0  502  503 -0.00000000000E+00 -0.00000000000E+00 -0.54566754455E+02  0.54566754455E+02  0.00000000000E+00 0. -1.
          6    1    1    2  501    0 -0.55373695876E+02  0.13079998770E+02  0.41487359935E+03  0.45308546213E+03  0.17300000000E+03 0. -1.
         -6    1    1    2    0  503  0.55373695876E+02 -0.13079998770E+02  0.19836294145E+03  0.26928458757E+03  0.17300000000E+03 0. -1.
<mgrwt>
<rscale>  2 0.18211626E+03</rscale>
<asrwt>0</asrwt>
<pdfrwt beam="1">  1       21 0.10273896E+00 0.18211626E+03</pdfrwt>
<pdfrwt beam="2">  1       21 0.83948858E-02 0.18211626E+03</pdfrwt>
<totfact> 0.85316206E+04</totfact>
</mgrwt>
</event>
<event>
 4    1  0.4023583E+000  0.1732921E+03  0.7546771E-02  0.1174458E+00
         21   -1    0    0  501  502  0.00000000000E+00  0.00000000000E+00  0.10522125939E+04  0.10522125939E+04  0.00000000000E+00 0. -1.
         21   -1    0    0  502  503 -0.00000000000E+00 -0.00000000000E+00 -0.56155093536E+02  0.56155093536E+02  0.00000000000E+00 0. -1.
          6    1    1    2  501    0 -0.92771954224E+01  0.38857958520E+01  0.88665524479E+03  0.90343106482E+03  0.17300000000E+03 0. -1.
         -6    1    1    2    0  503  0.92771954224E+01 -0.38857958520E+01  0.10940225557E+03  0.20493662261E+03  0.17300000000E+03 0. -1.
<mgrwt>
<rscale>  2 0.17329214E+03</rscale>
<asrwt>0</asrwt>
<pdfrwt beam="1">  1       21 0.16187885E+00 0.17329214E+03</pdfrwt>
<pdfrwt beam="2">  1       21 0.86392459E-02 0.17329214E+03</pdfrwt>
<totfact> 0.25928553E+04</totfact>
</mgrwt>
</event>
<event>
 4    1  0.4023583E+000  0.1939105E+03  0.7546771E-02  0.1154981E+00
         21   -1    0    0  503  502  0.00000000000E+00  0.00000000000E+00  0.65700196521E+02  0.65700196521E+02  0.00000000000E+00 0.  1.
         21   -1    0    0  501  503 -0.00000000000E+00 -0.00000000000E+00 -0.61158966891E+03  0.61158966891E+03  0.00000000000E+00 0. -1.
          6    1    1    2  501    0 -0.42004815264E+02 -0.76862745791E+02 -0.35875993136E+03  0.40781119963E+03  0.17300000000E+03 0. -1.
         -6    1    1    2    0  502  0.42004815264E+02  0.76862745791E+02 -0.18712954103E+03  0.26947866580E+03  0.17300000000E+03 0.  1.
<mgrwt>
<rscale>  2 0.19391051E+03</rscale>
<asrwt>0</asrwt>
<pdfrwt beam="1">  1       21 0.10107722E-01 0.19391051E+03</pdfrwt>
<pdfrwt beam="2">  1       21 0.94090722E-01 0.19391051E+03</pdfrwt>
<totfact> 0.75396927E+04</totfact>
</mgrwt>
</event>
<event>
 4    1  0.4023583E+000  0.1978548E+03  0.7546771E-02  0.1151562E+00
         21   -1    0    0  501  502  0.00000000000E+00  0.00000000000E+00  0.11178106816E+03  0.11178106816E+03  0.00000000000E+00 0.  1.
         21   -1    0    0  502  503 -0.00000000000E+00 -0.00000000000E+00 -0.36945564375E+03  0.36945564375E+03  0.00000000000E+00 0.  1.
          6    1    1    2  501    0 -0.43641575776E+02 -0.85515681854E+02 -0.73915202306E+02  0.21121073863E+03  0.17300000000E+03 0.  1.
         -6    1    1    2    0  503  0.43641575776E+02  0.85515681854E+02 -0.18375937329E+03  0.27002597329E+03  0.17300000000E+03 0.  1.
<mgrwt>
<rscale>  2 0.19785479E+03</rscale>
<asrwt>0</asrwt>
<pdfrwt beam="1">  1       21 0.17197087E-01 0.19785479E+03</pdfrwt>
<pdfrwt beam="2">  1       21 0.56839331E-01 0.19785479E+03</pdfrwt>
<totfact> 0.88652250E+04</totfact>
</mgrwt>
</event>
<event>
 4    1  0.4023583E+000  0.2649411E+03  0.7546771E-02  0.1104210E+00
         21   -1    0    0  501  502  0.00000000000E+00  0.00000000000E+00  0.19757270126E+03  0.19757270126E+03  0.00000000000E+00 0.  1.
         21   -1    0    0  502  503 -0.00000000000E+00 -0.00000000000E+00 -0.10337185150E+04  0.10337185150E+04  0.00000000000E+00 0.  1.
          6    1    1    2  501    0 -0.19743163280E+03 -0.35854366812E+02  0.80679073305E+02  0.27695288069E+03  0.17300000000E+03 0.  1.
         -6    1    1    2    0  503  0.19743163280E+03  0.35854366812E+02 -0.91682488702E+03  0.95433833556E+03  0.17300000000E+03 0.  1.
<mgrwt>
<rscale>  2 0.26494110E+03</rscale>
<asrwt>0</asrwt>
<pdfrwt beam="1">  1       21 0.30395801E-01 0.26494110E+03</pdfrwt>
<pdfrwt beam="2">  1       21 0.15903362E+00 0.26494110E+03</pdfrwt>
<totfact> 0.25053394E+03</totfact>
</mgrwt>
</event>
<event>
 4    1  0.4023583E+000  0.2627477E+03  0.7546771E-02  0.1105503E+00
         21   -1    0    0  503  502  0.00000000000E+00  0.00000000000E+00  0.32566507574E+03  0.32566507574E+03  0.00000000000E+00 0. -1.
         21   -1    0    0  501  503 -0.00000000000E+00 -0.00000000000E+00 -0.16092255171E+04  0.16092255171E+04  0.00000000000E+00 0.  1.
          6    1    1    2  501    0  0.62210919014E+02 -0.18771567503E+03 -0.15432546714E+04  0.15654620257E+04  0.17300000000E+03 0.  1.
         -6    1    1    2    0  502 -0.62210919014E+02  0.18771567503E+03  0.25969423005E+03  0.36942856714E+03  0.17300000000E+03 0. -1.
<mgrwt>
<rscale>  2 0.26274774E+03</rscale>
<asrwt>0</asrwt>
<pdfrwt beam="1">  1       21 0.50102320E-01 0.26274774E+03</pdfrwt>
<pdfrwt beam="2">  1       21 0.24757315E+00 0.26274774E+03</pdfrwt>
<totfact> 0.23958117E+02</totfact>
</mgrwt>
</event>
<event>
 4    1  0.4023583E+000  0.2173545E+03  0.7546771E-02  0.1135871E+00
         21   -1    0    0  503  502  0.00000000000E+00  0.00000000000E+00  0.57256687304E+02  0.57256687304E+02  0.00000000000E+00 0. -1.
         21   -1    0    0  501  503 -0.00000000000E+00 -0.00000000000E+00 -0.13313404109E+04  0.13313404109E+04  0.00000000000E+00 0.  1.
          6    1    1    2  501    0  0.11117832401E+03  0.70379971809E+02 -0.10651727908E+04  0.10871228240E+04  0.17300000000E+03 0.  1.
         -6    1    1    2    0  502 -0.11117832401E+03 -0.70379971809E+02 -0.20891093272E+03  0.30147427414E+03  0.17300000000E+03 0. -1.
<mgrwt>
<rscale>  2 0.21735446E+03</rscale>
<asrwt>0</asrwt>
<pdfrwt beam="1">  1       21 0.88087214E-02 0.21735446E+03</pdfrwt>
<pdfrwt beam="2">  1       21 0.20482160E+00 0.21735446E+03</pdfrwt>
<totfact> 0.12440254E+04</totfact>
</mgrwt>
</event>
<event>
 4    1  0.4023583E+000  0.1760153E+03  0.7546771E-02  0.1171716E+00
         21   -1    0    0  503  502  0.00000000000E+00  0.00000000000E+00  0.18308885751E+03  0.18308885751E+03  0.00000000000E+00 0.  1.
         21   -1    0    0  501  503 -0.00000000000E+00 -0.00000000000E+00 -0.21841015392E+03  0.21841015392E+03  0.00000000000E+00 0.  1.
          6    1    1    2  501    0  0.31132777597E+02 -0.91175333672E+01 -0.11293571823E+03  0.20913119258E+03  0.17300000000E+03 0.  1.
         -6    1    1    2    0  502 -0.31132777597E+02  0.91175333672E+01  0.77614421816E+02  0.19236781885E+03  0.17300000000E+03 0.  1.
<mgrwt>
<rscale>  2 0.17601528E+03</rscale>
<asrwt>0</asrwt>
<pdfrwt beam="1">  1       21 0.28167517E-01 0.17601528E+03</pdfrwt>
<pdfrwt beam="2">  1       21 0.33601562E-01 0.17601528E+03</pdfrwt>
<totfact> 0.10338667E+05</totfact>
</mgrwt>
</event>
<event>
 4    1  0.4023583E+000  0.2796747E+03  0.7546771E-02  0.1095867E+00
         21   -1    0    0  501  502  0.00000000000E+00  0.00000000000E+00  0.24025761446E+03  0.24025761446E+03  0.00000000000E+00 0.  1.
         21   -1    0    0  502  503 -0.00000000000E+00 -0.00000000000E+00 -0.33534368522E+03  0.33534368522E+03  0.00000000000E+00 0.  1.
          6    1    1    2  501    0 -0.16669283450E+03 -0.14318671211E+03  0.16188730340E+01  0.27967938134E+03  0.17300000000E+03 0.  1.
         -6    1    1    2    0  503  0.16669283450E+03  0.14318671211E+03 -0.96704943792E+02  0.29592191833E+03  0.17300000000E+03 0.  1.
<mgrwt>
<rscale>  2 0.27967470E+03</rscale>
<asrwt>0</asrwt>
<pdfrwt beam="1">  1       21 0.36962710E-01 0.27967470E+03</pdfrwt>
<pdfrwt beam="2">  1       21 0.51591336E-01 0.27967470E+03</pdfrwt>
<totfact> 0.24134031E+04</totfact>
</mgrwt>
</event>
<event>
 4    1  0.4023583E+000  0.2130752E+03  0.7546771E-02  0.1139154E+00
         21   -1    0    0  503  502  0.00000000000E+00  0.00000000000E+00  0.96901706664E+02  0.96901706664E+02  0.00000000000E+00 0.  1.
         21   -1    0    0  501  503 -0.00000000000E+00 -0.00000000000E+00 -0.60726885469E+03  0.60726885469E+03  0.00000000000E+00 0.  1.
          6    1    1    2  501    0  0.93353406505E+02  0.82202177718E+02 -0.42347471890E+03  0.47405895633E+03  0.17300000000E+03 0.  1.
         -6    1    1    2    0  502 -0.93353406505E+02 -0.82202177718E+02 -0.86892429124E+02  0.23011160502E+03  0.17300000000E+03 0.  1.
<mgrwt>
<rscale>  2 0.21307524E+03</rscale>
<asrwt>0</asrwt>
<pdfrwt beam="1">  1       21 0.14907955E-01 0.21307524E+03</pdfrwt>
<pdfrwt beam="2">  1       21 0.93425978E-01 0.21307524E+03</pdfrwt>
<totfact> 0.37798376E+04</totfact>
</mgrwt>
</event>
<event>
 4    1  0.4023583E+000  0.2265728E+03  0.7546771E-02  0.1129075E+00
         21   -1    0    0  501  502  0.00000000000E+00  0.00000000000E+00  0.63912324521E+02  0.63912324521E+02  0.00000000000E+00 0. -1.
         21   -1    0    0  502  503 -0.00000000000E+00 -0.00000000000E+00 -0.11446844079E+04  0.11446844079E+04  0.00000000000E+00 0. -1.
          6    1    1    2  501    0 -0.14456561347E+03  0.22517542046E+02 -0.21033185386E+03  0.30915165380E+03  0.17300000000E+03 0. -1.
         -6    1    1    2    0  503  0.14456561347E+03 -0.22517542046E+02 -0.87044022949E+03  0.89944507860E+03  0.17300000000E+03 0. -1.
<mgrwt>
<rscale>  2 0.22657285E+03</rscale>
<asrwt>0</asrwt>
<pdfrwt beam="1">  1       21 0.98326657E-02 0.22657285E+03</pdfrwt>
<pdfrwt beam="2">  1       21 0.17610529E+00 0.22657285E+03</pdfrwt>
<totfact> 0.15791461E+04</totfact>
</mgrwt>
</event>
<event>
 4    1  0.4023583E+000  0.1768319E+03  0.7546771E-02  0.1170905E+00
         21   -1    0    0  501  502  0.00000000000E+00  0.00000000000E+00  0.10571471875E+03  0.10571471875E+03  0.00000000000E+00 0.  1.
         21   -1    0    0  502  503 -0.00000000000E+00 -0.00000000000E+00 -0.45991646790E+03  0.45991646790E+03  0.00000000000E+00 0.  1.
          6    1    1    2  501    0 -0.34654810743E+02  0.11813411341E+02 -0.81535841486E+01  0.17701975463E+03  0.17300000000E+03 0.  1.
         -6    1    1    2    0  503  0.34654810743E+02 -0.11813411341E+02 -0.34604816501E+03  0.38861143202E+03  0.17300000000E+03 0.  1.
<mgrwt>
<rscale>  2 0.17683188E+03</rscale>
<asrwt>0</asrwt>
<pdfrwt beam="1">  1       21 0.16263803E-01 0.17683188E+03</pdfrwt>
<pdfrwt beam="2">  1       21 0.70756378E-01 0.17683188E+03</pdfrwt>
<totfact> 0.61672857E+04</totfact>
</mgrwt>
</event>
<event>
 4    1  0.4023583E+000  0.2678822E+03  0.7546771E-02  0.1102498E+00
         21   -1    0    0  501  502  0.00000000000E+00  0.00000000000E+00  0.14924219305E+03  0.14924219305E+03  0.00000000000E+00 0. -1.
         21   -1    0    0  502  503 -0.00000000000E+00 -0.00000000000E+00 -0.50415978994E+03  0.50415978994E+03  0.00000000000E+00 0. -1.
          6    1    1    2  501    0  0.45035829397E+02 -0.19950847695E+03 -0.24772976768E+03  0.36487106777E+03  0.17300000000E+03 0. -1.
         -6    1    1    2    0  503 -0.45035829397E+02  0.19950847695E+03 -0.10718782922E+03  0.28853091522E+03  0.17300000000E+03 0. -1.
<mgrwt>
<rscale>  2 0.26788217E+03</rscale>
<asrwt>0</asrwt>
<pdfrwt beam="1">  1       21 0.22960338E-01 0.26788217E+03</pdfrwt>
<pdfrwt beam="2">  1       21 0.77563044E-01 0.26788217E+03</pdfrwt>
<totfact> 0.25275235E+04</totfact>
</mgrwt>
</event>
<event>
 4    1  0.4023583E+000  0.1924786E+03  0.7546771E-02  0.1156245E+00
         21   -1    0    0  501  502  0.00000000000E+00  0.00000000000E+00  0.15214516408E+03  0.15214516408E+03  0.00000000000E+00 0.  1.
         21   -1    0    0  502  503 -0.00000000000E+00 -0.00000000000E+00 -0.25195530606E+03  0.25195530606E+03  0.00000000000E+00 0.  1.
          6    1    1    2  501    0 -0.59177495968E+02 -0.60141723673E+02 -0.86909320142E+02  0.21119003973E+03  0.17300000000E+03 0.  1.
         -6    1    1    2    0  503  0.59177495968E+02  0.60141723673E+02 -0.12900821828E+02  0.19291043041E+03  0.17300000000E+03 0.  1.
<mgrwt>
<rscale>  2 0.19247858E+03</rscale>
<asrwt>0</asrwt>
<pdfrwt beam="1">  1       21 0.23406948E-01 0.19247858E+03</pdfrwt>
<pdfrwt beam="2">  1       21 0.38762355E-01 0.19247858E+03</pdfrwt>
<totfact> 0.11019076E+05</totfact>
</mgrwt>
</event>
<event>
 4    1  0.4023583E+000  0.1914799E+03  0.7546771E-02  0.1157133E+00
         21   -1    0    0  501  502  0.00000000000E+00  0.00000000000E+00  0.17443888333E+03  0.17443888333E+03  0.00000000000E+00 0.  1.
         21   -1    0    0  502  503 -0.00000000000E+00 -0.00000000000E+00 -0.27113696939E+03  0.27113696939E+03  0.00000000000E+00 0.  1.
          6    1    1    2  501    0 -0.68030646853E+02  0.45906065396E+02  0.57281407146E+02  0.19986419228E+03  0.17300000000E+03 0.  1.
         -6    1    1    2    0  503  0.68030646853E+02 -0.45906065396E+02 -0.15397949320E+03  0.24571166045E+03  0.17300000000E+03 0.  1.
<mgrwt>
<rscale>  2 0.19147986E+03</rscale>
<asrwt>0</asrwt>
<pdfrwt beam="1">  1       21 0.26836751E-01 0.19147986E+03</pdfrwt>
<pdfrwt beam="2">  1       21 0.41713380E-01 0.19147986E+03</pdfrwt>
<totfact> 0.73196532E+04</totfact>
</mgrwt>
</event>
<event>
 4    1  0.4023583E+000  0.2126961E+03  0.7546771E-02  0.1139449E+00
         21   -1    0    0  503  502  0.00000000000E+00  0.00000000000E+00  0.80466548830E+03  0.80466548830E+03  0.00000000000E+00 0. -1.
         21   -1    0    0  501  503 -0.00000000000E+00 -0.00000000000E+00 -0.57966464938E+02  0.57966464938E+02  0.00000000000E+00 0. -1.
          6    1    1    2  501    0 -0.12325872605E+03  0.10859683742E+02  0.29851912615E+03  0.36654237812E+03  0.17300000000E+03 0. -1.
         -6    1    1    2    0  502  0.12325872605E+03 -0.10859683742E+02  0.44817989721E+03  0.49608957512E+03  0.17300000000E+03 0. -1.
<mgrwt>
<rscale>  2 0.21269614E+03</rscale>
<asrwt>0</asrwt>
<pdfrwt beam="1">  1       21 0.12379468E+00 0.21269614E+03</pdfrwt>
<pdfrwt beam="2">  1       21 0.89179183E-02 0.21269614E+03</pdfrwt>
<totfact> 0.47998426E+04</totfact>
</mgrwt>
</event>
<event>
 4    1  0.4023583E+000  0.1902085E+03  0.7546771E-02  0.1158273E+00
         21   -1    0    0  503  502  0.00000000000E+00  0.00000000000E+00  0.28715077601E+03  0.28715077601E+03  0.00000000000E+00 0.  1.
         21   -1    0    0  501  503 -0.00000000000E+00 -0.00000000000E+00 -0.17027132691E+03  0.17027132691E+03  0.00000000000E+00 0.  1.
          6    1    1    2  501    0  0.69383861629E+02 -0.37896494826E+02 -0.58189466441E+02  0.19891022744E+03  0.17300000000E+03 0.  1.
         -6    1    1    2    0  502 -0.69383861629E+02  0.37896494826E+02  0.17506891555E+03  0.25851187548E+03  0.17300000000E+03 0.  1.
<mgrwt>
<rscale>  2 0.19020848E+03</rscale>
<asrwt>0</asrwt>
<pdfrwt beam="1">  1       21 0.44177043E-01 0.19020848E+03</pdfrwt>
<pdfrwt beam="2">  1       21 0.26195589E-01 0.19020848E+03</pdfrwt>
<totfact> 0.68242153E+04</totfact>
</mgrwt>
</event>
<event>
 4    1  0.4023583E+000  0.2121208E+03  0.7546771E-02  0.1139897E+00
         21   -1    0    0  501  502  0.00000000000E+00  0.00000000000E+00  0.16856026078E+03  0.16856026078E+03  0.00000000000E+00 0. -1.
         21   -1    0    0  502  503 -0.00000000000E+00 -0.00000000000E+00 -0.15843120573E+04  0.15843120573E+04  0.00000000000E+00 0.  1.
          6    1    1    2  501    0  0.60686336598E+02  0.10669310404E+03  0.91322064265E+02  0.23094364966E+03  0.17300000000E+03 0. -1.
         -6    1    1    2    0  503 -0.60686336598E+02 -0.10669310404E+03 -0.15070738607E+04  0.15219286684E+04  0.17300000000E+03 0.  1.
<mgrwt>
<rscale>  2 0.21212084E+03</rscale>
<asrwt>0</asrwt>
<pdfrwt beam="1">  1       21 0.25932348E-01 0.21212084E+03</pdfrwt>
<pdfrwt beam="2">  1       21 0.24374031E+00 0.21212084E+03</pdfrwt>
<totfact> 0.99922912E+02</totfact>
</mgrwt>
</event>
<event>
 4    1  0.4023583E+000  0.2239295E+03  0.7546771E-02  0.1130987E+00
         21   -1    0    0  501  502  0.00000000000E+00  0.00000000000E+00  0.41202537381E+02  0.41202537381E+02  0.00000000000E+00 0. -1.
         21   -1    0    0  502  503 -0.00000000000E+00 -0.00000000000E+00 -0.21616496169E+04  0.21616496169E+04  0.00000000000E+00 0. -1.
          6    1    1    2  501    0 -0.25599606650E+02 -0.13985731154E+03 -0.33212032090E+03  0.40056000175E+03  0.17300000000E+03 0. -1.
         -6    1    1    2    0  503  0.25599606650E+02  0.13985731154E+03 -0.17883267586E+04  0.18022921525E+04  0.17300000000E+03 0. -1.
<mgrwt>
<rscale>  2 0.22392947E+03</rscale>
<asrwt>0</asrwt>
<pdfrwt beam="1">  1       21 0.63388503E-02 0.22392947E+03</pdfrwt>
<pdfrwt beam="2">  1       21 0.33256156E+00 0.22392947E+03</pdfrwt>
<totfact> 0.38263912E+03</totfact>
</mgrwt>
</event>
<event>
 4    1  0.4023583E+000  0.1840275E+03  0.7546771E-02  0.1163961E+00
         21   -1    0    0  503  502  0.00000000000E+00  0.00000000000E+00  0.40439966726E+03  0.40439966726E+03  0.00000000000E+00 0.  1.
         21   -1    0    0  501  503 -0.00000000000E+00 -0.00000000000E+00 -0.84305685817E+02  0.84305685817E+02  0.00000000000E+00 0. -1.
          6    1    1    2  501    0 -0.54820434454E+02 -0.30526270810E+02  0.17998821071E+03  0.25741384819E+03  0.17300000000E+03 0.  1.
         -6    1    1    2    0  502  0.54820434454E+02  0.30526270810E+02  0.14010577074E+03  0.23129150490E+03  0.17300000000E+03 0.  1.
<mgrwt>
<rscale>  2 0.18402753E+03</rscale>
<asrwt>0</asrwt>
<pdfrwt beam="1">  1       21 0.62215332E-01 0.18402753E+03</pdfrwt>
<pdfrwt beam="2">  1       21 0.12970106E-01 0.18402753E+03</pdfrwt>
<totfact> 0.12270125E+05</totfact>
</mgrwt>
</event>
<event>
 4    1  0.4023583E+000  0.1796731E+03  0.7546771E-02  0.1168120E+00
         21   -1    0    0  503  502  0.00000000000E+00  0.00000000000E+00  0.60175713792E+02  0.60175713792E+02  0.00000000000E+00 0. -1.
         21   -1    0    0  501  503 -0.00000000000E+00 -0.00000000000E+00 -0.54526374032E+03  0.54526374032E+03  0.00000000000E+00 0.  1.
          6    1    1    2  501    0 -0.37475710407E+01 -0.48367290150E+02 -0.20409944787E+03  0.27191731034E+03  0.17300000000E+03 0.  1.
         -6    1    1    2    0  502  0.37475710407E+01  0.48367290150E+02 -0.28098857866E+03  0.33352214377E+03  0.17300000000E+03 0.  1.
<mgrwt>
<rscale>  2 0.17967315E+03</rscale>
<asrwt>0</asrwt>
<pdfrwt beam="1">  1       21 0.92578023E-02 0.17967315E+03</pdfrwt>
<pdfrwt beam="2">  1       21 0.83886728E-01 0.17967315E+03</pdfrwt>
<totfact> 0.11535735E+05</totfact>
</mgrwt>
</event>
<event>
 4    1  0.4023583E+000  0.2233434E+03  0.7546771E-02  0.1131415E+00
         21   -1    0    0  501  502  0.00000000000E+00  0.00000000000E+00  0.29072185939E+03  0.29072185939E+03  0.00000000000E+00 0. -1.
         21   -1    0    0  502  503 -0.00000000000E+00 -0.00000000000E+00 -0.18201418633E+03  0.18201418633E+03  0.00000000000E+00 0. -1.
          6    1    1    2  501    0  0.13768013123E+03  0.31582776905E+02 -0.22373327704E+01  0.22335464175E+03  0.17300000000E+03 0. -1.
         -6    1    1    2    0  503 -0.13768013123E+03 -0.31582776905E+02  0.11094500583E+03  0.24938140398E+03  0.17300000000E+03 0. -1.
<mgrwt>
<rscale>  2 0.22334344E+03</rscale>
<asrwt>0</asrwt>
<pdfrwt beam="1">  1       21 0.44726440E-01 0.22334344E+03</pdfrwt>
<pdfrwt beam="2">  1       21 0.28002182E-01 0.22334344E+03</pdfrwt>
<totfact> 0.57643461E+04</totfact>
</mgrwt>
</event>
<event>
 4    1  0.4023583E+000  0.1791852E+03  0.7546771E-02  0.1168594E+00
         21   -1    0    0  503  502  0.00000000000E+00  0.00000000000E+00  0.10080944808E+04  0.10080944808E+04  0.00000000000E+00 0. -1.
         21   -1    0    0  501  503 -0.00000000000E+00 -0.00000000000E+00 -0.10774453684E+03  0.10774453684E+03  0.00000000000E+00 0. -1.
          6    1    1    2  501    0  0.15597654419E+02 -0.43989039417E+02 -0.18078016173E+02  0.18009480026E+03  0.17300000000E+03 0. -1.
         -6    1    1    2    0  502 -0.15597654419E+02  0.43989039417E+02  0.91842796009E+03  0.93574421734E+03  0.17300000000E+03 0. -1.
<mgrwt>
<rscale>  2 0.17918516E+03</rscale>
<asrwt>0</asrwt>
<pdfrwt beam="1">  1       21 0.15509145E+00 0.17918516E+03</pdfrwt>
<pdfrwt beam="2">  1       21 0.16576083E-01 0.17918516E+03</pdfrwt>
<totfact> 0.90382177E+03</totfact>
</mgrwt>
</event>
<event>
 4    1  0.4023583E+000  0.1926815E+03  0.7546771E-02  0.1156065E+00
         21   -1    0    0  503  502  0.00000000000E+00  0.00000000000E+00  0.83333618773E+02  0.83333618773E+02  0.00000000000E+00 0. -1.
         21   -1    0    0  501  503 -0.00000000000E+00 -0.00000000000E+00 -0.59037084106E+03  0.59037084106E+03  0.00000000000E+00 0. -1.
          6    1    1    2  501    0 -0.65045211163E+02  0.54463477131E+02 -0.42037739443E+03  0.46243194482E+03  0.17300000000E+03 0. -1.
         -6    1    1    2    0  502  0.65045211163E+02 -0.54463477131E+02 -0.86659827848E+02  0.21127251501E+03  0.17300000000E+03 0. -1.
<mgrwt>
<rscale>  2 0.19268147E+03</rscale>
<asrwt>0</asrwt>
<pdfrwt beam="1">  1       21 0.12820557E-01 0.19268147E+03</pdfrwt>
<pdfrwt beam="2">  1       21 0.90826284E-01 0.19268147E+03</pdfrwt>
<totfact> 0.53609808E+04</totfact>
</mgrwt>
</event>
<event>
 4    1  0.4023583E+000  0.2274848E+03  0.7546771E-02  0.1128423E+00
         21   -1    0    0  503  502  0.00000000000E+00  0.00000000000E+00  0.38543120481E+03  0.38543120481E+03  0.00000000000E+00 0. -1.
         21   -1    0    0  501  503 -0.00000000000E+00 -0.00000000000E+00 -0.15537052645E+03  0.15537052645E+03  0.00000000000E+00 0. -1.
          6    1    1    2  501    0  0.19555243585E+02  0.14641693475E+03  0.15366475511E+02  0.22800319055E+03  0.17300000000E+03 0. -1.
         -6    1    1    2    0  502 -0.19555243585E+02 -0.14641693475E+03  0.21469420285E+03  0.31279854071E+03  0.17300000000E+03 0. -1.
<mgrwt>
<rscale>  2 0.22748478E+03</rscale>
<asrwt>0</asrwt>
<pdfrwt beam="1">  1       21 0.59297108E-01 0.22748478E+03</pdfrwt>
<pdfrwt beam="2">  1       21 0.23903158E-01 0.22748478E+03</pdfrwt>
<totfact> 0.43107892E+04</totfact>
</mgrwt>
</event>
<event>
 4    1  0.4023583E+000  0.3348883E+03  0.7546771E-02  0.1068994E+00
         21   -1    0    0  501  502  0.00000000000E+00  0.00000000000E+00  0.17677157102E+03  0.17677157102E+03  0.00000000000E+00 0. -1.
         21   -1    0    0  502  503 -0.00000000000E+00 -0.00000000000E+00 -0.24225825061E+04  0.24225825061E+04  0.00000000000E+00 0.  1.
          6    1    1    2  501    0  0.12959649548E+03  0.25578487794E+03 -0.63050882462E+01  0.33494762212E+03  0.17300000000E+03 0. -1.
         -6    1    1    2    0  503 -0.12959649548E+03 -0.25578487794E+03 -0.22395058468E+04  0.22644064550E+04  0.17300000000E+03 0.  1.
<mgrwt>
<rscale>  2 0.33488827E+03</rscale>
<asrwt>0</asrwt>
<pdfrwt beam="1">  1       21 0.27195628E-01 0.33488827E+03</pdfrwt>
<pdfrwt beam="2">  1       21 0.37270498E+00 0.33488827E+03</pdfrwt>
<totfact> 0.13757693E+02</totfact>
</mgrwt>
</event>
<event>
 4    1  0.4023583E+000  0.2244084E+03  0.7546771E-02  0.1130638E+00
         21   -1    0    0  503  502  0.00000000000E+00  0.00000000000E+00  0.10759408627E+03  0.10759408627E+03  0.00000000000E+00 0. -1.
         21   -1    0    0  501  503 -0.00000000000E+00 -0.00000000000E+00 -0.79969569570E+03  0.79969569570E+03  0.00000000000E+00 0.  1.
          6    1    1    2  501    0  0.10350896047E+02  0.14255865228E+03 -0.63819190687E+03  0.67649687389E+03  0.17300000000E+03 0.  1.
         -6    1    1    2    0  502 -0.10350896047E+02 -0.14255865228E+03 -0.53909702562E+02  0.23079290808E+03  0.17300000000E+03 0. -1.
<mgrwt>
<rscale>  2 0.22440836E+03</rscale>
<asrwt>0</asrwt>
<pdfrwt beam="1">  1       21 0.16552936E-01 0.22440836E+03</pdfrwt>
<pdfrwt beam="2">  1       21 0.12303011E+00 0.22440836E+03</pdfrwt>
<totfact> 0.15933459E+04</totfact>
</mgrwt>
</event>
<event>
 4    1  0.4023583E+000  0.1779524E+03  0.7546771E-02  0.1169800E+00
         21   -1    0    0  501  502  0.00000000000E+00  0.00000000000E+00  0.73754718134E+03  0.73754718134E+03  0.00000000000E+00 0.  1.
         21   -1    0    0  502  503 -0.00000000000E+00 -0.00000000000E+00 -0.71780160067E+02  0.71780160067E+02  0.00000000000E+00 0.  1.
          6    1    1    2  501    0  0.37632769179E+02  0.17939647190E+02  0.58940497177E+03  0.61568277303E+03  0.17300000000E+03 0.  1.
         -6    1    1    2    0  503 -0.37632769179E+02 -0.17939647190E+02  0.76362049502E+02  0.19364456838E+03  0.17300000000E+03 0.  1.
<mgrwt>
<rscale>  2 0.17795240E+03</rscale>
<asrwt>0</asrwt>
<pdfrwt beam="1">  1       21 0.11346879E+00 0.17795240E+03</pdfrwt>
<pdfrwt beam="2">  1       21 0.11043102E-01 0.17795240E+03</pdfrwt>
<totfact> 0.41551637E+04</totfact>
</mgrwt>
</event>
<event>
 4    1  0.4023583E+000  0.2538906E+03  0.7546771E-02  0.1110870E+00
         21   -1    0    0  501  502  0.00000000000E+00  0.00000000000E+00  0.47527061131E+03  0.47527061131E+03  0.00000000000E+00 0.  1.
         21   -1    0    0  502  503 -0.00000000000E+00 -0.00000000000E+00 -0.23733864362E+03  0.23733864362E+03  0.00000000000E+00 0. -1.
          6    1    1    2  501    0  0.14429671667E+03  0.11708931845E+03  0.35221424855E+03  0.43418351859E+03  0.17300000000E+03 0.  1.
         -6    1    1    2    0  503 -0.14429671667E+03 -0.11708931845E+03 -0.11428228086E+03  0.27842573634E+03  0.17300000000E+03 0. -1.
<mgrwt>
<rscale>  2 0.25389063E+03</rscale>
<asrwt>0</asrwt>
<pdfrwt beam="1">  1       21 0.73118556E-01 0.25389063E+03</pdfrwt>
<pdfrwt beam="2">  1       21 0.36513637E-01 0.25389063E+03</pdfrwt>
<totfact> 0.11729320E+04</totfact>
</mgrwt>
</event>
<event>
 4    1  0.4023583E+000  0.2044061E+03  0.7546771E-02  0.1146074E+00
         21   -1    0    0  501  502  0.00000000000E+00  0.00000000000E+00  0.23562469847E+03  0.23562469847E+03  0.00000000000E+00 0. -1.
         21   -1    0    0  502  503 -0.00000000000E+00 -0.00000000000E+00 -0.23842577476E+03  0.23842577476E+03  0.00000000000E+00 0. -1.
          6    1    1    2  501    0 -0.10739805576E+03  0.17846680468E+02  0.11858970139E+03  0.23631623656E+03  0.17300000000E+03 0. -1.
         -6    1    1    2    0  503  0.10739805576E+03 -0.17846680468E+02 -0.12139077767E+03  0.23773423668E+03  0.17300000000E+03 0. -1.
<mgrwt>
<rscale>  2 0.20440608E+03</rscale>
<asrwt>0</asrwt>
<pdfrwt beam="1">  1       21 0.36249954E-01 0.20440608E+03</pdfrwt>
<pdfrwt beam="2">  1       21 0.36680888E-01 0.20440608E+03</pdfrwt>
<totfact> 0.52306889E+04</totfact>
</mgrwt>
</event>
<event>
 4    1  0.4023583E+000  0.1908342E+03  0.7546771E-02  0.1157711E+00
         21   -1    0    0  501  502  0.00000000000E+00  0.00000000000E+00  0.15261175188E+03  0.15261175188E+03  0.00000000000E+00 0.  1.
         21   -1    0    0  502  503 -0.00000000000E+00 -0.00000000000E+00 -0.30534360244E+03  0.30534360244E+03  0.00000000000E+00 0.  1.
          6    1    1    2  501    0  0.72640813979E+02 -0.34814118760E+02  0.30664340476E+02  0.19328220947E+03  0.17300000000E+03 0.  1.
         -6    1    1    2    0  503 -0.72640813979E+02  0.34814118760E+02 -0.18339619103E+03  0.26467314485E+03  0.17300000000E+03 0.  1.
<mgrwt>
<rscale>  2 0.19083425E+03</rscale>
<asrwt>0</asrwt>
<pdfrwt beam="1">  1       21 0.23478731E-01 0.19083425E+03</pdfrwt>
<pdfrwt beam="2">  1       21 0.46975939E-01 0.19083425E+03</pdfrwt>
<totfact> 0.74090366E+04</totfact>
</mgrwt>
</event>
<event>
 4    1  0.4023583E+000  0.2378564E+03  0.7546771E-02  0.1121229E+00
         21   -1    0    0  503  502  0.00000000000E+00  0.00000000000E+00  0.11351896301E+04  0.11351896301E+04  0.00000000000E+00 0.  1.
         21   -1    0    0  501  503 -0.00000000000E+00 -0.00000000000E+00 -0.56733388600E+02  0.56733388600E+02  0.00000000000E+00 0.  1.
          6    1    1    2  501    0 -0.15990662571E+03  0.32810545290E+02  0.33146139195E+03  0.40797342460E+03  0.17300000000E+03 0.  1.
         -6    1    1    2    0  502  0.15990662571E+03 -0.32810545290E+02  0.74699484954E+03  0.78394959408E+03  0.17300000000E+03 0.  1.
<mgrwt>
<rscale>  2 0.23785639E+03</rscale>
<asrwt>0</asrwt>
<pdfrwt beam="1">  1       21 0.17464454E+00 0.23785639E+03</pdfrwt>
<pdfrwt beam="2">  1       21 0.87282145E-02 0.23785639E+03</pdfrwt>
<totfact> 0.19808912E+04</totfact>
</mgrwt>
</event>
<event>
 4    1  0.4023583E+000  0.1760330E+03  0.7546771E-02  0.1171698E+00
         21   -1    0    0  503  502  0.00000000000E+00  0.00000000000E+00  0.11037132589E+03  0.11037132589E+03  0.00000000000E+00 0.  1.
         21   -1    0    0  501  503 -0.00000000000E+00 -0.00000000000E+00 -0.28167985070E+03  0.28167985070E+03  0.00000000000E+00 0.  1.
          6    1    1    2  501    0  0.27774975462E+02  0.16946010785E+02 -0.74439252046E+02  0.19112513908E+03  0.17300000000E+03 0.  1.
         -6    1    1    2    0  502 -0.27774975462E+02 -0.16946010785E+02 -0.96869272763E+02  0.20092603751E+03  0.17300000000E+03 0.  1.
<mgrwt>
<rscale>  2 0.17603300E+03</rscale>
<asrwt>0</asrwt>
<pdfrwt beam="1">  1       21 0.16980204E-01 0.17603300E+03</pdfrwt>
<pdfrwt beam="2">  1       21 0.43335361E-01 0.17603300E+03</pdfrwt>
<totfact> 0.16088310E+05</totfact>
</mgrwt>
</event>
<event>
 4    1  0.4023583E+000  0.2500493E+03  0.7546771E-02  0.1113274E+00
         21   -1    0    0  501  502  0.00000000000E+00  0.00000000000E+00  0.72591143155E+02  0.72591143155E+02  0.00000000000E+00 0. -1.
         21   -1    0    0  502  503 -0.00000000000E+00 -0.00000000000E+00 -0.89733653641E+03  0.89733653641E+03  0.00000000000E+00 0.  1.
          6    1    1    2  501    0 -0.61347553585E+02 -0.16980028250E+03 -0.31522223374E+03  0.40235520987E+03  0.17300000000E+03 0. -1.
         -6    1    1    2    0  503  0.61347553585E+02  0.16980028250E+03 -0.50952315952E+03  0.56757246969E+03  0.17300000000E+03 0. -1.
<mgrwt>
<rscale>  2 0.25004931E+03</rscale>
<asrwt>0</asrwt>
<pdfrwt beam="1">  1       21 0.11167868E-01 0.25004931E+03</pdfrwt>
<pdfrwt beam="2">  1       21 0.13805177E+00 0.25004931E+03</pdfrwt>
<totfact> 0.23941967E+04</totfact>
</mgrwt>
</event>
<event>
 4    1  0.4023583E+000  0.2020387E+03  0.7546771E-02  0.1148030E+00
         21   -1    0    0  503  502  0.00000000000E+00  0.00000000000E+00  0.21798229620E+03  0.21798229620E+03  0.00000000000E+00 0.  1.
         21   -1    0    0  501  503 -0.00000000000E+00 -0.00000000000E+00 -0.19568771434E+03  0.19568771434E+03  0.00000000000E+00 0.  1.
          6    1    1    2  501    0 -0.83735583727E+02  0.62281460554E+02  0.54067913558E+02  0.20914819528E+03  0.17300000000E+03 0.  1.
         -6    1    1    2    0  502  0.83735583727E+02 -0.62281460554E+02 -0.31773331696E+02  0.20452181526E+03  0.17300000000E+03 0.  1.
<mgrwt>
<rscale>  2 0.20203868E+03</rscale>
<asrwt>0</asrwt>
<pdfrwt beam="1">  1       21 0.33535738E-01 0.20203868E+03</pdfrwt>
<pdfrwt beam="2">  1       21 0.30105802E-01 0.20203868E+03</pdfrwt>
<totfact> 0.90284761E+04</totfact>
</mgrwt>
</event>
<event>
 4    1  0.4023583E+000  0.2237081E+03  0.7546771E-02  0.1131148E+00
         21   -1    0    0  501  502  0.00000000000E+00  0.00000000000E+00  0.22323311635E+02  0.22323311635E+02  0.00000000000E+00 0. -1.
         21   -1    0    0  502  503 -0.00000000000E+00 -0.00000000000E+00 -0.25868223373E+04  0.25868223373E+04  0.00000000000E+00 0. -1.
          6    1    1    2  501    0  0.31358747862E+01  0.14179725789E+03 -0.80583677023E+03  0.83631226005E+03  0.17300000000E+03 0. -1.
         -6    1    1    2    0  503 -0.31358747862E+01 -0.14179725789E+03 -0.17586622555E+04  0.17728333889E+04  0.17300000000E+03 0. -1.
<mgrwt>
<rscale>  2 0.22370806E+03</rscale>
<asrwt>0</asrwt>
<pdfrwt beam="1">  1       21 0.34343572E-02 0.22370806E+03</pdfrwt>
<pdfrwt beam="2">  1       21 0.39797249E+00 0.22370806E+03</pdfrwt>
<totfact> 0.43568957E+03</totfact>
</mgrwt>
</event>
<event>
 4    1  0.4023583E+000  0.1730016E+03  0.7546771E-02  0.1174753E+00
         21   -1    0    0  501  502  0.00000000000E+00  0.00000000000E+00  0.23164891345E+03  0.23164891345E+03  0.00000000000E+00 0. -1.
         21   -1    0    0  502  503 -0.00000000000E+00 -0.00000000000E+00 -0.13865503883E+03  0.13865503883E+03  0.00000000000E+00 0. -1.
          6    1    1    2  501    0 -0.31184518718E-02 -0.74966454635E+00 -0.18468181494E+01  0.17301148154E+03  0.17300000000E+03 0. -1.
         -6    1    1    2    0  503  0.31184518718E-02  0.74966454635E+00  0.94840692773E+02  0.19729247074E+03  0.17300000000E+03 0. -1.
<mgrwt>
<rscale>  2 0.17300162E+03</rscale>
<asrwt>0</asrwt>
<pdfrwt beam="1">  1       21 0.35638294E-01 0.17300162E+03</pdfrwt>
<pdfrwt beam="2">  1       21 0.21331544E-01 0.17300162E+03</pdfrwt>
<totfact> 0.15628806E+05</totfact>
</mgrwt>
</event>
<event>
 4    1  0.4023583E+000  0.1810647E+03  0.7546771E-02  0.1166777E+00
         21   -1    0    0  501  502  0.00000000000E+00  0.00000000000E+00  0.95223576689E+02  0.95223576689E+02  0.00000000000E+00 0. -1.
         21   -1    0    0  502  503 -0.00000000000E+00 -0.00000000000E+00 -0.68404287594E+03  0.68404287594E+03  0.00000000000E+00 0. -1.
          6    1    1    2  501    0  0.53037022268E+02  0.65181265992E+01 -0.19812101436E+02  0.18214535698E+03  0.17300000000E+03 0. -1.
         -6    1    1    2    0  503 -0.53037022268E+02 -0.65181265992E+01 -0.56900719781E+03  0.59712109565E+03  0.17300000000E+03 0. -1.
<mgrwt>
<rscale>  2 0.18106466E+03</rscale>
<asrwt>0</asrwt>
<pdfrwt beam="1">  1       21 0.14649782E-01 0.18106466E+03</pdfrwt>
<pdfrwt beam="2">  1       21 0.10523736E+00 0.18106466E+03</pdfrwt>
<totfact> 0.29954610E+04</totfact>
</mgrwt>
</event>
<event>
 4    1  0.4023583E+000  0.1939203E+03  0.7546771E-02  0.1154972E+00
         21   -1    0    0  501  502  0.00000000000E+00  0.00000000000E+00  0.16914535543E+03  0.16914535543E+03  0.00000000000E+00 0. -1.
         21   -1    0    0  502  503 -0.00000000000E+00 -0.00000000000E+00 -0.76428278118E+03  0.76428278118E+03  0.00000000000E+00 0. -1.
          6    1    1    2  501    0  0.60174325535E+01 -0.87406359342E+02  0.95444328227E+02  0.21613583909E+03  0.17300000000E+03 0. -1.
         -6    1    1    2    0  503 -0.60174325535E+01  0.87406359342E+02 -0.69058175399E+03  0.71729229752E+03  0.17300000000E+03 0. -1.
<mgrwt>
<rscale>  2 0.19392030E+03</rscale>
<asrwt>0</asrwt>
<pdfrwt beam="1">  1       21 0.26022363E-01 0.19392030E+03</pdfrwt>
<pdfrwt beam="2">  1       21 0.11758196E+00 0.19392030E+03</pdfrwt>
<totfact> 0.77832064E+03</totfact>
</mgrwt>
</event>
<event>
 4    1  0.4023583E+000  0.2260896E+03  0.7546771E-02  0.1129423E+00
         21   -1    0    0  503  502  0.00000000000E+00  0.00000000000E+00  0.24732638702E+04  0.24732638702E+04  0.00000000000E+00 0. -1.
         21   -1    0    0  501  503 -0.00000000000E+00 -0.00000000000E+00 -0.21451322000E+02  0.21451322000E+02  0.00000000000E+00 0.  1.
          6    1    1    2  501    0 -0.14499622977E+03 -0.12789812170E+02  0.14643239847E+04  0.14816751392E+04  0.17300000000E+03 0. -1.
         -6    1    1    2    0  502  0.14499622977E+03  0.12789812170E+02  0.98748856343E+03  0.10130400529E+04  0.17300000000E+03 0. -1.
<mgrwt>
<rscale>  2 0.22608955E+03</rscale>
<asrwt>0</asrwt>
<pdfrwt beam="1">  1       21 0.38050191E+00 0.22608955E+03</pdfrwt>
<pdfrwt beam="2">  1       21 0.33002053E-02 0.22608955E+03</pdfrwt>
<totfact> 0.59548248E+03</totfact>
</mgrwt>
</event>
<event>
 4    1  0.4023583E+000  0.2187712E+03  0.7546771E-02  0.1134802E+00
         21   -1    0    0  503  502  0.00000000000E+00  0.00000000000E+00  0.41818429549E+03  0.41818429549E+03  0.00000000000E+00 0. -1.
         21   -1    0    0  501  503 -0.00000000000E+00 -0.00000000000E+00 -0.23501557287E+03  0.23501557287E+03  0.00000000000E+00 0. -1.
          6    1    1    2  501    0 -0.18468288380E+02 -0.13263024429E+03 -0.14234291523E+03  0.26100261473E+03  0.17300000000E+03 0. -1.
         -6    1    1    2    0  502  0.18468288380E+02  0.13263024429E+03  0.32551163785E+03  0.39219725363E+03  0.17300000000E+03 0. -1.
<mgrwt>
<rscale>  2 0.21877125E+03</rscale>
<asrwt>0</asrwt>
<pdfrwt beam="1">  1       21 0.64336045E-01 0.21877125E+03</pdfrwt>
<pdfrwt beam="2">  1       21 0.36156242E-01 0.21877125E+03</pdfrwt>
<totfact> 0.16180230E+04</totfact>
</mgrwt>
</event>
<event>
 4    1  0.4023583E+000  0.1735604E+03  0.7546771E-02  0.1174185E+00
         21   -1    0    0  501  502  0.00000000000E+00  0.00000000000E+00  0.41168160844E+03  0.41168160844E+03  0.00000000000E+00 0. -1.
         21   -1    0    0  502  503 -0.00000000000E+00 -0.00000000000E+00 -0.15227778867E+03  0.15227778867E+03  0.00000000000E+00 0. -1.
          6    1    1    2  501    0  0.15235391378E+01 -0.13852472924E+02  0.33294044552E+03  0.37546311729E+03  0.17300000000E+03 0. -1.
         -6    1    1    2    0  503 -0.15235391378E+01  0.13852472924E+02 -0.73536625755E+02  0.18849627982E+03  0.17300000000E+03 0. -1.
<mgrwt>
<rscale>  2 0.17356040E+03</rscale>
<asrwt>0</asrwt>
<pdfrwt beam="1">  1       21 0.63335632E-01 0.17356040E+03</pdfrwt>
<pdfrwt beam="2">  1       21 0.23427352E-01 0.17356040E+03</pdfrwt>
<totfact> 0.39910089E+04</totfact>
</mgrwt>
</event>
<event>
 4    1  0.4023583E+000  0.2236388E+03  0.7546771E-02  0.1131199E+00
         21   -1    0    0  503  502  0.00000000000E+00  0.00000000000E+00  0.11343024579E+04  0.11343024579E+04  0.00000000000E+00 0.  1.
         21   -1    0    0  501  503 -0.00000000000E+00 -0.00000000000E+00 -0.15428401030E+03  0.15428401030E+03  0.00000000000E+00 0. -1.
          6    1    1    2  501    0 -0.13112950328E+03  0.53762045440E+02 -0.54489733169E+02  0.23018130937E+03  0.17300000000E+03 0. -1.
         -6    1    1    2    0  502  0.13112950328E+03 -0.53762045440E+02  0.10345081808E+04  0.10584051589E+04  0.17300000000E+03 0.  1.
<mgrwt>
<rscale>  2 0.22363878E+03</rscale>
<asrwt>0</asrwt>
<pdfrwt beam="1">  1       21 0.17450806E+00 0.22363878E+03</pdfrwt>
<pdfrwt beam="2">  1       21 0.23736002E-01 0.22363878E+03</pdfrwt>
<totfact> 0.32282913E+03</totfact>
</mgrwt>
</event>
<event>
 4    1  0.4023583E+000  0.4529619E+03  0.7546771E-02  0.1026842E+00
         21   -1    0    0  501  502  0.00000000000E+00  0.00000000000E+00  0.33130864520E+03  0.33130864520E+03  0.00000000000E+00 0. -1.
         21   -1    0    0  502  503 -0.00000000000E+00 -0.00000000000E+00 -0.68119550157E+03  0.68119550157E+03  0.00000000000E+00 0.  1.
          6    1    1    2  501    0  0.38220217756E+03 -0.17078331753E+03 -0.22322746248E+02  0.45351157767E+03  0.17300000000E+03 0. -1.
         -6    1    1    2    0  503 -0.38220217756E+03  0.17078331753E+03 -0.32756411012E+03  0.55899256911E+03  0.17300000000E+03 0.  1.
<mgrwt>
<rscale>  2 0.45296186E+03</rscale>
<asrwt>0</asrwt>
<pdfrwt beam="1">  1       21 0.50970561E-01 0.45296186E+03</pdfrwt>
<pdfrwt beam="2">  1       21 0.10479931E+00 0.45296186E+03</pdfrwt>
<totfact> 0.23205199E+03</totfact>
</mgrwt>
</event>
<event>
 4    1  0.4023583E+000  0.1973616E+03  0.7546771E-02  0.1151984E+00
         21   -1    0    0  501  502  0.00000000000E+00  0.00000000000E+00  0.28469231649E+03  0.28469231649E+03  0.00000000000E+00 0.  1.
         21   -1    0    0  502  503 -0.00000000000E+00 -0.00000000000E+00 -0.15479957219E+03  0.15479957219E+03  0.00000000000E+00 0. -1.
          6    1    1    2  501    0  0.21361211742E+02  0.92554290493E+02  0.13983672317E+03  0.24187994378E+03  0.17300000000E+03 0.  1.
         -6    1    1    2    0  503 -0.21361211742E+02 -0.92554290493E+02 -0.99439788631E+01  0.19761194491E+03  0.17300000000E+03 0. -1.
<mgrwt>
<rscale>  2 0.19736159E+03</rscale>
<asrwt>0</asrwt>
<pdfrwt beam="1">  1       21 0.43798818E-01 0.19736159E+03</pdfrwt>
<pdfrwt beam="2">  1       21 0.23815319E-01 0.19736159E+03</pdfrwt>
<totfact> 0.83051458E+04</totfact>
</mgrwt>
</event>
<event>
 4    1  0.4023583E+000  0.1834655E+03  0.7546771E-02  0.1164491E+00
         21   -1    0    0  503  502  0.00000000000E+00  0.00000000000E+00  0.77513639099E+02  0.77513639099E+02  0.00000000000E+00 0. -1.
         21   -1    0    0  501  503 -0.00000000000E+00 -0.00000000000E+00 -0.46124311669E+03  0.46124311669E+03  0.00000000000E+00 0. -1.
          6    1    1    2  501    0  0.41201518854E+02 -0.45089181583E+02 -0.25704209833E+03  0.31580094960E+03  0.17300000000E+03 0. -1.
         -6    1    1    2    0  502 -0.41201518854E+02  0.45089181583E+02 -0.12668737926E+03  0.22295580620E+03  0.17300000000E+03 0. -1.
<mgrwt>
<rscale>  2 0.18346553E+03</rscale>
<asrwt>0</asrwt>
<pdfrwt beam="1">  1       21 0.11925175E-01 0.18346553E+03</pdfrwt>
<pdfrwt beam="2">  1       21 0.70960480E-01 0.18346553E+03</pdfrwt>
<totfact> 0.10706838E+05</totfact>
</mgrwt>
</event>
<event>
 4    1  0.4023583E+000  0.2028695E+03  0.7546771E-02  0.1147340E+00
         21   -1    0    0  501  502  0.00000000000E+00  0.00000000000E+00  0.68617072164E+02  0.68617072164E+02  0.00000000000E+00 0.  1.
         21   -1    0    0  502  503 -0.00000000000E+00 -0.00000000000E+00 -0.67354980023E+03  0.67354980023E+03  0.00000000000E+00 0.  1.
          6    1    1    2  501    0  0.30701896471E+02  0.10141220828E+03 -0.17966940153E+03  0.27099287127E+03  0.17300000000E+03 0.  1.
         -6    1    1    2    0  503 -0.30701896471E+02 -0.10141220828E+03 -0.42526332654E+03  0.47117400113E+03  0.17300000000E+03 0.  1.
<mgrwt>
<rscale>  2 0.20286952E+03</rscale>
<asrwt>0</asrwt>
<pdfrwt beam="1">  1       21 0.10556473E-01 0.20286952E+03</pdfrwt>
<pdfrwt beam="2">  1       21 0.10362304E+00 0.20286952E+03</pdfrwt>
<totfact> 0.55313765E+04</totfact>
</mgrwt>
</event>
<event>
 4    1  0.4023583E+000  0.1981084E+03  0.7546771E-02  0.1151345E+00
         21   -1    0    0  501  502  0.00000000000E+00  0.00000000000E+00  0.45473246567E+02  0.45473246567E+02  0.00000000000E+00 0.  1.
         21   -1    0    0  502  503 -0.00000000000E+00 -0.00000000000E+00 -0.16291555435E+04  0.16291555435E+04  0.00000000000E+00 0.  1.
          6    1    1    2  501    0  0.34504278621E+02  0.90152074199E+02 -0.21766684257E+03  0.29432260545E+03  0.17300000000E+03 0.  1.
         -6    1    1    2    0  503 -0.34504278621E+02 -0.90152074199E+02 -0.13660154544E+04  0.13803061846E+04  0.17300000000E+03 0.  1.
<mgrwt>
<rscale>  2 0.19810841E+03</rscale>
<asrwt>0</asrwt>
<pdfrwt beam="1">  1       21 0.69958837E-02 0.19810841E+03</pdfrwt>
<pdfrwt beam="2">  1       21 0.25063933E+00 0.19810841E+03</pdfrwt>
<totfact> 0.99299205E+03</totfact>
</mgrwt>
</event>
<event>
 4    1  0.4023583E+000  0.1807694E+03  0.7546771E-02  0.1167060E+00
         21   -1    0    0  503  502  0.00000000000E+00  0.00000000000E+00  0.11881652640E+04  0.11881652640E+04  0.00000000000E+00 0.  1.
         21   -1    0    0  501  503 -0.00000000000E+00 -0.00000000000E+00 -0.28229627061E+02  0.28229627061E+02  0.00000000000E+00 0.  1.
          6    1    1    2  501    0  0.32164895822E+02  0.41400463363E+02  0.48236077466E+03  0.51512085555E+03  0.17300000000E+03 0.  1.
         -6    1    1    2    0  502 -0.32164895822E+02 -0.41400463363E+02  0.67757486225E+03  0.70127403548E+03  0.17300000000E+03 0.  1.
<mgrwt>
<rscale>  2 0.18076941E+03</rscale>
<asrwt>0</asrwt>
<pdfrwt beam="1">  1       21 0.18279462E+00 0.18076941E+03</pdfrwt>
<pdfrwt beam="2">  1       21 0.43430205E-02 0.18076941E+03</pdfrwt>
<totfact> 0.59874408E+04</totfact>
</mgrwt>
</event>
<event>
 4    1  0.4023583E+000  0.1827002E+03  0.7546771E-02  0.1165215E+00
         21   -1    0    0  503  502  0.00000000000E+00  0.00000000000E+00  0.20246646914E+04  0.20246646914E+04  0.00000000000E+00 0. -1.
         21   -1    0    0  501  503 -0.00000000000E+00 -0.00000000000E+00 -0.29324809557E+02  0.29324809557E+02  0.00000000000E+00 0. -1.
          6    1    1    2  501    0 -0.24888081658E+02 -0.53206594548E+02  0.31814273071E+03  0.36687076119E+03  0.17300000000E+03 0. -1.
         -6    1    1    2    0  502  0.24888081658E+02  0.53206594548E+02  0.16771971512E+04  0.16871187398E+04  0.17300000000E+03 0. -1.
<mgrwt>
<rscale>  2 0.18270019E+03</rscale>
<asrwt>0</asrwt>
<pdfrwt beam="1">  1       21 0.31148677E+00 0.18270019E+03</pdfrwt>
<pdfrwt beam="2">  1       21 0.45115107E-02 0.18270019E+03</pdfrwt>
<totfact> 0.94886107E+03</totfact>
</mgrwt>
</event>
<event>
 4    1  0.4023583E+000  0.2321535E+03  0.7546771E-02  0.1125133E+00
         21   -1    0    0  501  502  0.00000000000E+00  0.00000000000E+00  0.38832099528E+02  0.38832099528E+02  0.00000000000E+00 0.  1.
         21   -1    0    0  502  503 -0.00000000000E+00 -0.00000000000E+00 -0.25197683493E+04  0.25197683493E+04  0.00000000000E+00 0.  1.
          6    1    1    2  501    0 -0.32318808035E+02 -0.15139935277E+03 -0.38305693842E+03  0.44791504490E+03  0.17300000000E+03 0.  1.
         -6    1    1    2    0  503  0.32318808035E+02  0.15139935277E+03 -0.20978793113E+04  0.21106854039E+04  0.17300000000E+03 0.  1.
<mgrwt>
<rscale>  2 0.23215355E+03</rscale>
<asrwt>0</asrwt>
<pdfrwt beam="1">  1       21 0.59741697E-02 0.23215355E+03</pdfrwt>
<pdfrwt beam="2">  1       21 0.38765663E+00 0.23215355E+03</pdfrwt>
<totfact> 0.19568175E+03</totfact>
</mgrwt>
</event>
<event>
 4    1  0.4023583E+000  0.2535172E+03  0.7546771E-02  0.1111102E+00
         21   -1    0    0  501  502  0.00000000000E+00  0.00000000000E+00  0.14257974650E+03  0.14257974650E+03  0.00000000000E+00 0.  1.
         21   -1    0    0  502  503 -0.00000000000E+00 -0.00000000000E+00 -0.72287785469E+03  0.72287785469E+03  0.00000000000E+00 0. -1.
          6    1    1    2  501    0  0.59566258552E+02  0.17548171097E+03 -0.24656580627E+02  0.25471340171E+03  0.17300000000E+03 0. -1.
         -6    1    1    2    0  503 -0.59566258552E+02 -0.17548171097E+03 -0.55564152757E+03  0.61074419948E+03  0.17300000000E+03 0. -1.
<mgrwt>
<rscale>  2 0.25351720E+03</rscale>
<asrwt>0</asrwt>
<pdfrwt beam="1">  1       21 0.21935346E-01 0.25351720E+03</pdfrwt>
<pdfrwt beam="2">  1       21 0.11121198E+00 0.25351720E+03</pdfrwt>
<totfact> 0.11886107E+04</totfact>
</mgrwt>
</event>
<event>
 4    1  0.4023583E+000  0.2137274E+03  0.7546771E-02  0.1138648E+00
         21   -1    0    0  503  502  0.00000000000E+00  0.00000000000E+00  0.14407592546E+03  0.14407592546E+03  0.00000000000E+00 0.  1.
         21   -1    0    0  501  503 -0.00000000000E+00 -0.00000000000E+00 -0.10892311919E+04  0.10892311919E+04  0.00000000000E+00 0.  1.
          6    1    1    2  501    0 -0.12457208089E+03 -0.15238234835E+02 -0.99178465051E+03  0.10145522166E+04  0.17300000000E+03 0.  1.
         -6    1    1    2    0  502  0.12457208089E+03  0.15238234835E+02  0.46629384119E+02  0.21875490075E+03  0.17300000000E+03 0.  1.
<mgrwt>
<rscale>  2 0.21372741E+03</rscale>
<asrwt>0</asrwt>
<pdfrwt beam="1">  1       21 0.22165528E-01 0.21372741E+03</pdfrwt>
<pdfrwt beam="2">  1       21 0.16757402E+00 0.21372741E+03</pdfrwt>
<totfact> 0.41480259E+03</totfact>
</mgrwt>
</event>
<event>
 4    1  0.4023583E+000  0.1896143E+03  0.7546771E-02  0.1158810E+00
         21   -1    0    0  503  502  0.00000000000E+00  0.00000000000E+00  0.59323627901E+03  0.59323627901E+03  0.00000000000E+00 0.  1.
         21   -1    0    0  501  503 -0.00000000000E+00 -0.00000000000E+00 -0.82948799224E+02  0.82948799224E+02  0.00000000000E+00 0. -1.
          6    1    1    2  501    0  0.17395768876E+02  0.75643730041E+02  0.79674569905E+02  0.20567358547E+03  0.17300000000E+03 0. -1.
         -6    1    1    2    0  502 -0.17395768876E+02 -0.75643730041E+02  0.43061290988E+03  0.47051149277E+03  0.17300000000E+03 0. -1.
<mgrwt>
<rscale>  2 0.18961431E+03</rscale>
<asrwt>0</asrwt>
<pdfrwt beam="1">  1       21 0.91267117E-01 0.18961431E+03</pdfrwt>
<pdfrwt beam="2">  1       21 0.12761354E-01 0.18961431E+03</pdfrwt>
<totfact> 0.53530440E+04</totfact>
</mgrwt>
</event>
<event>
 4    1  0.4023583E+000  0.1906013E+03  0.7546771E-02  0.1157920E+00
         21   -1    0    0  503  502  0.00000000000E+00  0.00000000000E+00  0.28173719723E+03  0.28173719723E+03  0.00000000000E+00 0.  1.
         21   -1    0    0  501  503 -0.00000000000E+00 -0.00000000000E+00 -0.35874667143E+03  0.35874667143E+03  0.00000000000E+00 0.  1.
          6    1    1    2  501    0  0.79798745504E+02  0.56571075955E+01  0.21780201521E+03  0.28942453331E+03  0.17300000000E+03 0.  1.
         -6    1    1    2    0  502 -0.79798745504E+02 -0.56571075955E+01 -0.29481148941E+03  0.35105933535E+03  0.17300000000E+03 0.  1.
<mgrwt>
<rscale>  2 0.19060127E+03</rscale>
<asrwt>0</asrwt>
<pdfrwt beam="1">  1       21 0.43344184E-01 0.19060127E+03</pdfrwt>
<pdfrwt beam="2">  1       21 0.55191795E-01 0.19060127E+03</pdfrwt>
<totfact> 0.15864018E+04</totfact>
</mgrwt>
</event>
<event>
 4    1  0.4023583E+000  0.2389671E+03  0.7546771E-02  0.1120483E+00
         21   -1    0    0  501  502  0.00000000000E+00  0.00000000000E+00  0.42811894304E+03  0.42811894304E+03  0.00000000000E+00 0. -1.
         21   -1    0    0  502  503 -0.00000000000E+00 -0.00000000000E+00 -0.18552691140E+03  0.18552691140E+03  0.00000000000E+00 0.  1.
          6    1    1    2  501    0  0.75321893025E+02  0.14663866389E+03 -0.41360549952E+02  0.24252006187E+03  0.17300000000E+03 0.  1.
         -6    1    1    2    0  503 -0.75321893025E+02 -0.14663866389E+03  0.28395258160E+03  0.37112579257E+03  0.17300000000E+03 0. -1.
<mgrwt>
<rscale>  2 0.23896712E+03</rscale>
<asrwt>0</asrwt>
<pdfrwt beam="1">  1       21 0.65864452E-01 0.23896712E+03</pdfrwt>
<pdfrwt beam="2">  1       21 0.28542602E-01 0.23896712E+03</pdfrwt>
<totfact> 0.24245366E+04</totfact>
</mgrwt>
</event>
<event>
 4    1  0.4023583E+000  0.2850786E+03  0.7546771E-02  0.1092947E+00
         21   -1    0    0  501  502  0.00000000000E+00  0.00000000000E+00  0.46032573949E+03  0.46032573949E+03  0.00000000000E+00 0. -1.
         21   -1    0    0  502  503 -0.00000000000E+00 -0.00000000000E+00 -0.20062813575E+03  0.20062813575E+03  0.00000000000E+00 0.  1.
          6    1    1    2  501    0 -0.73657942230E+02  0.21427865497E+03  0.24433941720E+03  0.37546182925E+03  0.17300000000E+03 0. -1.
         -6    1    1    2    0  503  0.73657942230E+02 -0.21427865497E+03  0.15358186540E+02  0.28549204599E+03  0.17300000000E+03 0. -1.
<mgrwt>
<rscale>  2 0.28507865E+03</rscale>
<asrwt>0</asrwt>
<pdfrwt beam="1">  1       21 0.70819344E-01 0.28507865E+03</pdfrwt>
<pdfrwt beam="2">  1       21 0.30865867E-01 0.28507865E+03</pdfrwt>
<totfact> 0.17341326E+04</totfact>
</mgrwt>
</event>
<event>
 4    1  0.4023583E+000  0.2320102E+03  0.7546771E-02  0.1125233E+00
         21   -1    0    0  503  502  0.00000000000E+00  0.00000000000E+00  0.36224147802E+03  0.36224147802E+03  0.00000000000E+00 0.  1.
         21   -1    0    0  501  503 -0.00000000000E+00 -0.00000000000E+00 -0.17215768314E+03  0.17215768314E+03  0.00000000000E+00 0.  1.
          6    1    1    2  501    0 -0.12203861148E+03 -0.94901620998E+02 -0.38014830917E+01  0.23204135759E+03  0.17300000000E+03 0.  1.
         -6    1    1    2    0  502  0.12203861148E+03  0.94901620998E+02  0.19388527798E+03  0.30235780357E+03  0.17300000000E+03 0.  1.
<mgrwt>
<rscale>  2 0.23201022E+03</rscale>
<asrwt>0</asrwt>
<pdfrwt beam="1">  1       21 0.55729458E-01 0.23201022E+03</pdfrwt>
<pdfrwt beam="2">  1       21 0.26485798E-01 0.23201022E+03</pdfrwt>
<totfact> 0.40353953E+04</totfact>
</mgrwt>
</event>
<event>
 4    1  0.4023583E+000  0.1739322E+03  0.7546771E-02  0.1173808E+00
         21   -1    0    0  501  502  0.00000000000E+00  0.00000000000E+00  0.16718835956E+04  0.16718835956E+04  0.00000000000E+00 0. -1.
         21   -1    0    0  502  503 -0.00000000000E+00 -0.00000000000E+00 -0.49661379036E+02  0.49661379036E+02  0.00000000000E+00 0. -1.
          6    1    1    2  501    0  0.11955939118E+02 -0.13433983685E+02  0.14973774174E+04  0.15074453710E+04  0.17300000000E+03 0. -1.
         -6    1    1    2    0  503 -0.11955939118E+02  0.13433983685E+02  0.12484479915E+03  0.21409960363E+03  0.17300000000E+03 0. -1.
<mgrwt>
<rscale>  2 0.17393222E+03</rscale>
<asrwt>0</asrwt>
<pdfrwt beam="1">  1       21 0.25721282E+00 0.17393222E+03</pdfrwt>
<pdfrwt beam="2">  1       21 0.76402134E-02 0.17393222E+03</pdfrwt>
<totfact> 0.79964236E+03</totfact>
</mgrwt>
</event>
<event>
 4    1  0.4023583E+000  0.1862128E+03  0.7546771E-02  0.1161922E+00
         21   -1    0    0  503  502  0.00000000000E+00  0.00000000000E+00  0.26821489770E+03  0.26821489770E+03  0.00000000000E+00 0.  1.
         21   -1    0    0  501  503 -0.00000000000E+00 -0.00000000000E+00 -0.24651257466E+03  0.24651257466E+03  0.00000000000E+00 0.  1.
          6    1    1    2  501    0 -0.62120478748E+02 -0.29786945788E+02 -0.16662876657E+03  0.24988069527E+03  0.17300000000E+03 0.  1.
         -6    1    1    2    0  502  0.62120478748E+02  0.29786945788E+02  0.18833108962E+03  0.26484677709E+03  0.17300000000E+03 0.  1.
<mgrwt>
<rscale>  2 0.18621282E+03</rscale>
<asrwt>0</asrwt>
<pdfrwt beam="1">  1       21 0.41263830E-01 0.18621282E+03</pdfrwt>
<pdfrwt beam="2">  1       21 0.37925012E-01 0.18621282E+03</pdfrwt>
<totfact> 0.38046026E+04</totfact>
</mgrwt>
</event>
<event>
 4    1  0.4023583E+000  0.1927079E+03  0.7546771E-02  0.1156041E+00
         21   -1    0    0  501  502  0.00000000000E+00  0.00000000000E+00  0.50219595106E+03  0.50219595106E+03  0.00000000000E+00 0. -1.
         21   -1    0    0  502  503 -0.00000000000E+00 -0.00000000000E+00 -0.10940449591E+03  0.10940449591E+03  0.00000000000E+00 0. -1.
          6    1    1    2  501    0  0.69488952169E+02  0.48771264827E+02  0.37048361395E+03  0.41760562610E+03  0.17300000000E+03 0. -1.
         -6    1    1    2    0  503 -0.69488952169E+02 -0.48771264827E+02  0.22307841206E+02  0.19399482087E+03  0.17300000000E+03 0. -1.
<mgrwt>
<rscale>  2 0.19270794E+03</rscale>
<asrwt>0</asrwt>
<pdfrwt beam="1">  1       21 0.77260914E-01 0.19270794E+03</pdfrwt>
<pdfrwt beam="2">  1       21 0.16831461E-01 0.19270794E+03</pdfrwt>
<totfact> 0.47269716E+04</totfact>
</mgrwt>
</event>
<event>
 4    1  0.4023583E+000  0.1912277E+03  0.7546771E-02  0.1157359E+00
         21   -1    0    0  503  502  0.00000000000E+00  0.00000000000E+00  0.27283124224E+03  0.27283124224E+03  0.00000000000E+00 0.  1.
         21   -1    0    0  501  503 -0.00000000000E+00 -0.00000000000E+00 -0.13925121545E+03  0.13925121545E+03  0.00000000000E+00 0.  1.
          6    1    1    2  501    0  0.39007254547E+02 -0.71536585217E+02  0.10668034397E+03  0.21897201813E+03  0.17300000000E+03 0.  1.
         -6    1    1    2    0  502 -0.39007254547E+02  0.71536585217E+02  0.26899682821E+02  0.19311043956E+03  0.17300000000E+03 0.  1.
<mgrwt>
<rscale>  2 0.19122774E+03</rscale>
<asrwt>0</asrwt>
<pdfrwt beam="1">  1       21 0.41974037E-01 0.19122774E+03</pdfrwt>
<pdfrwt beam="2">  1       21 0.21423264E-01 0.19122774E+03</pdfrwt>
<totfact> 0.11092451E+05</totfact>
</mgrwt>
</event>
<event>
 4    1  0.4023583E+000  0.1862727E+03  0.7546771E-02  0.1161867E+00
         21   -1    0    0  501  502  0.00000000000E+00  0.00000000000E+00  0.21893169828E+03  0.21893169828E+03  0.00000000000E+00 0. -1.
         21   -1    0    0  502  503 -0.00000000000E+00 -0.00000000000E+00 -0.16167300388E+03  0.16167300388E+03  0.00000000000E+00 0. -1.
          6    1    1    2  501    0 -0.28052730311E+02  0.63099555234E+02  0.55350038310E+02  0.19432224857E+03  0.17300000000E+03 0. -1.
         -6    1    1    2    0  503  0.28052730311E+02 -0.63099555234E+02  0.19086560901E+01  0.18628245359E+03  0.17300000000E+03 0. -1.
<mgrwt>
<rscale>  2 0.18627268E+03</rscale>
<asrwt>0</asrwt>
<pdfrwt beam="1">  1       21 0.33681800E-01 0.18627268E+03</pdfrwt>
<pdfrwt beam="2">  1       21 0.24872770E-01 0.18627268E+03</pdfrwt>
<totfact> 0.13015044E+05</totfact>
</mgrwt>
</event>
<event>
 4    1  0.4023583E+000  0.2266473E+03  0.7546771E-02  0.1129022E+00
         21   -1    0    0  503  502  0.00000000000E+00  0.00000000000E+00  0.97676386307E+02  0.97676386307E+02  0.00000000000E+00 0.  1.
         21   -1    0    0  501  503 -0.00000000000E+00 -0.00000000000E+00 -0.11156214165E+04  0.11156214165E+04  0.00000000000E+00 0.  1.
          6    1    1    2  501    0 -0.31945476283E+02  0.14289670400E+03 -0.95003364701E+03  0.97669489193E+03  0.17300000000E+03 0.  1.
         -6    1    1    2    0  502  0.31945476283E+02 -0.14289670400E+03 -0.67911383185E+02  0.23660291088E+03  0.17300000000E+03 0.  1.
<mgrwt>
<rscale>  2 0.22664726E+03</rscale>
<asrwt>0</asrwt>
<pdfrwt beam="1">  1       21 0.15027136E-01 0.22664726E+03</pdfrwt>
<pdfrwt beam="2">  1       21 0.17163407E+00 0.22664726E+03</pdfrwt>
<totfact> 0.79138998E+03</totfact>
</mgrwt>
</event>
<event>
 4    1  0.4023583E+000  0.1816691E+03  0.7546771E-02  0.1166197E+00
         21   -1    0    0  501  502  0.00000000000E+00  0.00000000000E+00  0.44163091544E+02  0.44163091544E+02  0.00000000000E+00 0. -1.
         21   -1    0    0  502  503 -0.00000000000E+00 -0.00000000000E+00 -0.14428549531E+04  0.14428549531E+04  0.00000000000E+00 0. -1.
          6    1    1    2  501    0 -0.24542155377E+02 -0.49722797816E+02 -0.18312403865E+03  0.25794977717E+03  0.17300000000E+03 0. -1.
         -6    1    1    2    0  503  0.24542155377E+02  0.49722797816E+02 -0.12155678229E+04  0.12290682674E+04  0.17300000000E+03 0. -1.
<mgrwt>
<rscale>  2 0.18166913E+03</rscale>
<asrwt>0</asrwt>
<pdfrwt beam="1">  1       21 0.67943235E-02 0.18166913E+03</pdfrwt>
<pdfrwt beam="2">  1       21 0.22197763E+00 0.18166913E+03</pdfrwt>
<totfact> 0.15726158E+04</totfact>
</mgrwt>
</event>
<event>
 4    1  0.4023583E+000  0.2123975E+03  0.7546771E-02  0.1139681E+00
         21   -1    0    0  501  502  0.00000000000E+00  0.00000000000E+00  0.24435464378E+03  0.24435464378E+03  0.00000000000E+00 0. -1.
         21   -1    0    0  502  503 -0.00000000000E+00 -0.00000000000E+00 -0.37916023248E+03  0.37916023248E+03  0.00000000000E+00 0. -1.
          6    1    1    2  501    0 -0.10911402066E+03 -0.57252501343E+02  0.15590830671E+03  0.26347697910E+03  0.17300000000E+03 0. -1.
         -6    1    1    2    0  503  0.10911402066E+03  0.57252501343E+02 -0.29071389541E+03  0.36003789717E+03  0.17300000000E+03 0. -1.
<mgrwt>
<rscale>  2 0.21239755E+03</rscale>
<asrwt>0</asrwt>
<pdfrwt beam="1">  1       21 0.37593022E-01 0.21239755E+03</pdfrwt>
<pdfrwt beam="2">  1       21 0.58332344E-01 0.21239755E+03</pdfrwt>
<totfact> 0.18562026E+04</totfact>
</mgrwt>
</event>
<event>
 4    1  0.4023583E+000  0.3162754E+03  0.7546771E-02  0.1077376E+00
         21   -1    0    0  501  502  0.00000000000E+00  0.00000000000E+00  0.87753136649E+03  0.87753136649E+03  0.00000000000E+00 0. -1.
         21   -1    0    0  502  503 -0.00000000000E+00 -0.00000000000E+00 -0.37206085613E+03  0.37206085613E+03  0.00000000000E+00 0. -1.
          6    1    1    2  501    0 -0.22297107383E+03  0.14277613397E+03  0.77309117323E+03  0.83528443438E+03  0.17300000000E+03 0. -1.
         -6    1    1    2    0  503  0.22297107383E+03 -0.14277613397E+03 -0.26762066287E+03  0.41430778823E+03  0.17300000000E+03 0. -1.
<mgrwt>
<rscale>  2 0.31627539E+03</rscale>
<asrwt>0</asrwt>
<pdfrwt beam="1">  1       21 0.13500483E+00 0.31627539E+03</pdfrwt>
<pdfrwt beam="2">  1       21 0.57240132E-01 0.31627539E+03</pdfrwt>
<totfact> 0.10198309E+03</totfact>
</mgrwt>
</event>
<event>
 4    1  0.4023583E+000  0.2254521E+03  0.7546771E-02  0.1129882E+00
         21   -1    0    0  503  502  0.00000000000E+00  0.00000000000E+00  0.26915491309E+03  0.26915491309E+03  0.00000000000E+00 0.  1.
         21   -1    0    0  501  503 -0.00000000000E+00 -0.00000000000E+00 -0.23152522491E+03  0.23152522491E+03  0.00000000000E+00 0.  1.
          6    1    1    2  501    0  0.98389150705E+02  0.10592090036E+03  0.12629854739E+03  0.25841823694E+03  0.17300000000E+03 0.  1.
         -6    1    1    2    0  502 -0.98389150705E+02 -0.10592090036E+03 -0.88668859209E+02  0.24226190105E+03  0.17300000000E+03 0.  1.
<mgrwt>
<rscale>  2 0.22545213E+03</rscale>
<asrwt>0</asrwt>
<pdfrwt beam="1">  1       21 0.41408448E-01 0.22545213E+03</pdfrwt>
<pdfrwt beam="2">  1       21 0.35619266E-01 0.22545213E+03</pdfrwt>
<totfact> 0.42001538E+04</totfact>
</mgrwt>
</event>
<event>
 4    1  0.4023583E+000  0.2010824E+03  0.7546771E-02  0.1148829E+00
         21   -1    0    0  501  502  0.00000000000E+00  0.00000000000E+00  0.96790698504E+02  0.96790698504E+02  0.00000000000E+00 0. -1.
         21   -1    0    0  502  503 -0.00000000000E+00 -0.00000000000E+00 -0.84981014676E+03  0.84981014676E+03  0.00000000000E+00 0. -1.
          6    1    1    2  501    0  0.95327275956E+02 -0.37653986718E+02 -0.39028908806E+02  0.20483497743E+03  0.17300000000E+03 0. -1.
         -6    1    1    2    0  503 -0.95327275956E+02  0.37653986718E+02 -0.71399053944E+03  0.74176586783E+03  0.17300000000E+03 0. -1.
<mgrwt>
<rscale>  2 0.20108235E+03</rscale>
<asrwt>0</asrwt>
<pdfrwt beam="1">  1       21 0.14890876E-01 0.20108235E+03</pdfrwt>
<pdfrwt beam="2">  1       21 0.13074003E+00 0.20108235E+03</pdfrwt>
<totfact> 0.16843316E+04</totfact>
</mgrwt>
</event>
<event>
 4    1  0.4023583E+000  0.3260152E+03  0.7546771E-02  0.1072914E+00
         21   -1    0    0  503  502  0.00000000000E+00  0.00000000000E+00  0.56350629785E+03  0.56350629785E+03  0.00000000000E+00 0.  1.
         21   -1    0    0  501  503 -0.00000000000E+00 -0.00000000000E+00 -0.19542831357E+03  0.19542831357E+03  0.00000000000E+00 0. -1.
          6    1    1    2  501    0 -0.94161973714E+02 -0.25978914773E+03  0.11318701183E+03  0.34510459026E+03  0.17300000000E+03 0. -1.
         -6    1    1    2    0  502  0.94161973714E+02  0.25978914773E+03  0.25489097246E+03  0.41383002116E+03  0.17300000000E+03 0.  1.
<mgrwt>
<rscale>  2 0.32601515E+03</rscale>
<asrwt>0</asrwt>
<pdfrwt beam="1">  1       21 0.86693276E-01 0.32601515E+03</pdfrwt>
<pdfrwt beam="2">  1       21 0.30065895E-01 0.32601515E+03</pdfrwt>
<totfact> 0.11320944E+04</totfact>
</mgrwt>
</event>
<event>
 4    1  0.4023583E+000  0.2941466E+03  0.7546771E-02  0.1088204E+00
         21   -1    0    0  503  502  0.00000000000E+00  0.00000000000E+00  0.75905966361E+03  0.75905966361E+03  0.00000000000E+00 0. -1.
         21   -1    0    0  501  503 -0.00000000000E+00 -0.00000000000E+00 -0.12045944006E+03  0.12045944006E+03  0.00000000000E+00 0.  1.
          6    1    1    2  501    0  0.23387897431E+03  0.43518517807E+02  0.42124365453E+03  0.51377860261E+03  0.17300000000E+03 0. -1.
         -6    1    1    2    0  502 -0.23387897431E+03 -0.43518517807E+02  0.21735656902E+03  0.36574050105E+03  0.17300000000E+03 0. -1.
<mgrwt>
<rscale>  2 0.29414662E+03</rscale>
<asrwt>0</asrwt>
<pdfrwt beam="1">  1       21 0.11677841E+00 0.29414662E+03</pdfrwt>
<pdfrwt beam="2">  1       21 0.18532222E-01 0.29414662E+03</pdfrwt>
<totfact> 0.14191952E+04</totfact>
</mgrwt>
</event>
<event>
 4    1  0.4023583E+000  0.1925886E+03  0.7546771E-02  0.1156147E+00
         21   -1    0    0  501  502  0.00000000000E+00  0.00000000000E+00  0.14795505544E+04  0.14795505544E+04  0.00000000000E+00 0. -1.
         21   -1    0    0  502  503 -0.00000000000E+00 -0.00000000000E+00 -0.73565687201E+02  0.73565687201E+02  0.00000000000E+00 0. -1.
          6    1    1    2  501    0 -0.72819430780E+02  0.43112538261E+02  0.13335051416E+04  0.13473404630E+04  0.17300000000E+03 0. -1.
         -6    1    1    2    0  503  0.72819430780E+02 -0.43112538261E+02  0.72479725604E+02  0.20577577865E+03  0.17300000000E+03 0. -1.
<mgrwt>
<rscale>  2 0.19258858E+03</rscale>
<asrwt>0</asrwt>
<pdfrwt beam="1">  1       21 0.22762314E+00 0.19258858E+03</pdfrwt>
<pdfrwt beam="2">  1       21 0.11317799E-01 0.19258858E+03</pdfrwt>
<totfact> 0.58893629E+03</totfact>
</mgrwt>
</event>
<event>
 4    1  0.4023583E+000  0.1800846E+03  0.7546771E-02  0.1167721E+00
         21   -1    0    0  503  502  0.00000000000E+00  0.00000000000E+00  0.69149662405E+02  0.69149662405E+02  0.00000000000E+00 0.  1.
         21   -1    0    0  501  503 -0.00000000000E+00 -0.00000000000E+00 -0.53824792974E+03  0.53824792974E+03  0.00000000000E+00 0.  1.
          6    1    1    2  501    0  0.56611367523E+01 -0.49693029652E+02 -0.34348956999E+03  0.38783441100E+03  0.17300000000E+03 0.  1.
         -6    1    1    2    0  502 -0.56611367523E+01  0.49693029652E+02 -0.12560869735E+03  0.21956318114E+03  0.17300000000E+03 0.  1.
<mgrwt>
<rscale>  2 0.18008455E+03</rscale>
<asrwt>0</asrwt>
<pdfrwt beam="1">  1       21 0.10638410E-01 0.18008455E+03</pdfrwt>
<pdfrwt beam="2">  1       21 0.82807375E-01 0.18008455E+03</pdfrwt>
<totfact> 0.92969755E+04</totfact>
</mgrwt>
</event>
<event>
 4    1  0.4023583E+000  0.3110148E+03  0.7546771E-02  0.1079860E+00
         21   -1    0    0  501  502  0.00000000000E+00  0.00000000000E+00  0.40383242276E+03  0.40383242276E+03  0.00000000000E+00 0. -1.
         21   -1    0    0  502  503 -0.00000000000E+00 -0.00000000000E+00 -0.23977611794E+03  0.23977611794E+03  0.00000000000E+00 0.  1.
          6    1    1    2  501    0 -0.25839101906E+03 -0.59413933196E+01  0.92325809363E+02  0.32442915091E+03  0.17300000000E+03 0.  1.
         -6    1    1    2    0  503  0.25839101906E+03  0.59413933196E+01  0.71730495452E+02  0.31917938979E+03  0.17300000000E+03 0. -1.
<mgrwt>
<rscale>  2 0.31101482E+03</rscale>
<asrwt>0</asrwt>
<pdfrwt beam="1">  1       21 0.62128065E-01 0.31101482E+03</pdfrwt>
<pdfrwt beam="2">  1       21 0.36888634E-01 0.31101482E+03</pdfrwt>
<totfact> 0.16048086E+04</totfact>
</mgrwt>
</event>
<event>
 4    1  0.4023583E+000  0.1928652E+03  0.7546771E-02  0.1155902E+00
         21   -1    0    0  503  502  0.00000000000E+00  0.00000000000E+00  0.90702489110E+02  0.90702489110E+02  0.00000000000E+00 0. -1.
         21   -1    0    0  501  503 -0.00000000000E+00 -0.00000000000E+00 -0.41601661101E+03  0.41601661101E+03  0.00000000000E+00 0.  1.
          6    1    1    2  501    0  0.71186729815E+02  0.46908951888E+02 -0.13243980145E+03  0.23396004205E+03  0.17300000000E+03 0. -1.
         -6    1    1    2    0  502 -0.71186729815E+02 -0.46908951888E+02 -0.19287432044E+03  0.27275905806E+03  0.17300000000E+03 0. -1.
<mgrwt>
<rscale>  2 0.19286524E+03</rscale>
<asrwt>0</asrwt>
<pdfrwt beam="1">  1       21 0.13954229E-01 0.19286524E+03</pdfrwt>
<pdfrwt beam="2">  1       21 0.64002556E-01 0.19286524E+03</pdfrwt>
<totfact> 0.10081631E+05</totfact>
</mgrwt>
</event>
<event>
 4    1  0.4023583E+000  0.1842302E+03  0.7546771E-02  0.1163771E+00
         21   -1    0    0  501  502  0.00000000000E+00  0.00000000000E+00  0.42775680835E+03  0.42775680835E+03  0.00000000000E+00 0.  1.
         21   -1    0    0  502  503 -0.00000000000E+00 -0.00000000000E+00 -0.80938338452E+02  0.80938338452E+02  0.00000000000E+00 0. -1.
          6    1    1    2  501    0  0.29598010269E+02 -0.55997505828E+02  0.13773313737E+03  0.23002430307E+03  0.17300000000E+03 0. -1.
         -6    1    1    2    0  503 -0.29598010269E+02  0.55997505828E+02  0.20908533252E+03  0.27867084373E+03  0.17300000000E+03 0.  1.
<mgrwt>
<rscale>  2 0.18423019E+03</rscale>
<asrwt>0</asrwt>
<pdfrwt beam="1">  1       21 0.65808738E-01 0.18423019E+03</pdfrwt>
<pdfrwt beam="2">  1       21 0.12452052E-01 0.18423019E+03</pdfrwt>
<totfact> 0.11687476E+05</totfact>
</mgrwt>
</event>
<event>
 4    1  0.4023583E+000  0.2130471E+03  0.7546771E-02  0.1139175E+00
         21   -1    0    0  501  502  0.00000000000E+00  0.00000000000E+00  0.81007067494E+02  0.81007067494E+02  0.00000000000E+00 0.  1.
         21   -1    0    0  502  503 -0.00000000000E+00 -0.00000000000E+00 -0.58398355516E+03  0.58398355516E+03  0.00000000000E+00 0. -1.
          6    1    1    2  501    0 -0.44760941641E+02 -0.11600226146E+03 -0.31843312052E+03  0.38313015910E+03  0.17300000000E+03 0. -1.
         -6    1    1    2    0  503  0.44760941641E+02  0.11600226146E+03 -0.18454336714E+03  0.28186046356E+03  0.17300000000E+03 0.  1.
<mgrwt>
<rscale>  2 0.21304710E+03</rscale>
<asrwt>0</asrwt>
<pdfrwt beam="1">  1       21 0.12462626E-01 0.21304710E+03</pdfrwt>
<pdfrwt beam="2">  1       21 0.89843620E-01 0.21304710E+03</pdfrwt>
<totfact> 0.57276822E+04</totfact>
</mgrwt>
</event>
<event>
 4    1  0.4023583E+000  0.2018515E+03  0.7546771E-02  0.1148186E+00
         21   -1    0    0  501  502  0.00000000000E+00  0.00000000000E+00  0.12060311893E+03  0.12060311893E+03  0.00000000000E+00 0.  1.
         21   -1    0    0  502  503 -0.00000000000E+00 -0.00000000000E+00 -0.33785522909E+03  0.33785522909E+03  0.00000000000E+00 0.  1.
          6    1    1    2  501    0  0.95884465291E+02  0.40264321574E+02 -0.11036619249E+03  0.23005378223E+03  0.17300000000E+03 0.  1.
         -6    1    1    2    0  503 -0.95884465291E+02 -0.40264321574E+02 -0.10688591768E+03  0.22840456579E+03  0.17300000000E+03 0.  1.
<mgrwt>
<rscale>  2 0.20185155E+03</rscale>
<asrwt>0</asrwt>
<pdfrwt beam="1">  1       21 0.18554326E-01 0.20185155E+03</pdfrwt>
<pdfrwt beam="2">  1       21 0.51977727E-01 0.20185155E+03</pdfrwt>
<totfact> 0.92902589E+04</totfact>
</mgrwt>
</event>
<event>
 4    1  0.4023583E+000  0.1783390E+03  0.7546771E-02  0.1169420E+00
         21   -1    0    0  501  502  0.00000000000E+00  0.00000000000E+00  0.94431245944E+03  0.94431245944E+03  0.00000000000E+00 0.  1.
         21   -1    0    0  502  503 -0.00000000000E+00 -0.00000000000E+00 -0.46593304046E+02  0.46593304046E+02  0.00000000000E+00 0.  1.
          6    1    1    2  501    0 -0.35402264331E+02 -0.24949333843E+02  0.70968692977E+03  0.73175154790E+03  0.17300000000E+03 0.  1.
         -6    1    1    2    0  503  0.35402264331E+02  0.24949333843E+02  0.18803222563E+03  0.25915421558E+03  0.17300000000E+03 0.  1.
<mgrwt>
<rscale>  2 0.17833897E+03</rscale>
<asrwt>0</asrwt>
<pdfrwt beam="1">  1       21 0.14527883E+00 0.17833897E+03</pdfrwt>
<pdfrwt beam="2">  1       21 0.71682013E-02 0.17833897E+03</pdfrwt>
<totfact> 0.47571289E+04</totfact>
</mgrwt>
</event>
<event>
 4    1  0.4023583E+000  0.1842730E+03  0.7546771E-02  0.1163730E+00
         21   -1    0    0  501  502  0.00000000000E+00  0.00000000000E+00  0.91385562698E+03  0.91385562698E+03  0.00000000000E+00 0.  1.
         21   -1    0    0  502  503 -0.00000000000E+00 -0.00000000000E+00 -0.45915364523E+02  0.45915364523E+02  0.00000000000E+00 0.  1.
          6    1    1    2  501    0 -0.55706018220E+02 -0.30403825577E+02  0.64355442389E+03  0.66941679811E+03  0.17300000000E+03 0.  1.
         -6    1    1    2    0  503  0.55706018220E+02  0.30403825577E+02  0.22438583857E+03  0.29035419340E+03  0.17300000000E+03 0.  1.
<mgrwt>
<rscale>  2 0.18427304E+03</rscale>
<asrwt>0</asrwt>
<pdfrwt beam="1">  1       21 0.14059316E+00 0.18427304E+03</pdfrwt>
<pdfrwt beam="2">  1       21 0.70639029E-02 0.18427304E+03</pdfrwt>
<totfact> 0.52942514E+04</totfact>
</mgrwt>
</event>
<event>
 4    1  0.4023583E+000  0.2201951E+03  0.7546771E-02  0.1133738E+00
         21   -1    0    0  503  502  0.00000000000E+00  0.00000000000E+00  0.18167305165E+03  0.18167305165E+03  0.00000000000E+00 0.  1.
         21   -1    0    0  501  503 -0.00000000000E+00 -0.00000000000E+00 -0.37170464316E+03  0.37170464316E+03  0.00000000000E+00 0. -1.
          6    1    1    2  501    0  0.12428018542E+03 -0.55779285493E+02  0.51915083801E+02  0.22623233435E+03  0.17300000000E+03 0.  1.
         -6    1    1    2    0  502 -0.12428018542E+03  0.55779285493E+02 -0.24194667531E+03  0.32714536046E+03  0.17300000000E+03 0.  1.
<mgrwt>
<rscale>  2 0.22019513E+03</rscale>
<asrwt>0</asrwt>
<pdfrwt beam="1">  1       21 0.27949701E-01 0.22019513E+03</pdfrwt>
<pdfrwt beam="2">  1       21 0.57185329E-01 0.22019513E+03</pdfrwt>
<totfact> 0.34610687E+04</totfact>
</mgrwt>
</event>
<event>
 4    1  0.4023583E+000  0.2174458E+03  0.7546771E-02  0.1135802E+00
         21   -1    0    0  503  502  0.00000000000E+00  0.00000000000E+00  0.20048751607E+03  0.20048751607E+03  0.00000000000E+00 0.  1.
         21   -1    0    0  501  503 -0.00000000000E+00 -0.00000000000E+00 -0.51219252005E+03  0.51219252005E+03  0.00000000000E+00 0.  1.
          6    1    1    2  501    0  0.11850899501E+03 -0.57526325033E+02 -0.41759903275E+03  0.47082014838E+03  0.17300000000E+03 0.  1.
         -6    1    1    2    0  502 -0.11850899501E+03  0.57526325033E+02  0.10589402876E+03  0.24185988774E+03  0.17300000000E+03 0.  1.
<mgrwt>
<rscale>  2 0.21744576E+03</rscale>
<asrwt>0</asrwt>
<pdfrwt beam="1">  1       21 0.30844234E-01 0.21744576E+03</pdfrwt>
<pdfrwt beam="2">  1       21 0.78798848E-01 0.21744576E+03</pdfrwt>
<totfact> 0.14141438E+04</totfact>
</mgrwt>
</event>
<event>
 4    1  0.4023583E+000  0.2097688E+03  0.7546771E-02  0.1141749E+00
         21   -1    0    0  501  502  0.00000000000E+00  0.00000000000E+00  0.47093270783E+02  0.47093270783E+02  0.00000000000E+00 0. -1.
         21   -1    0    0  502  503 -0.00000000000E+00 -0.00000000000E+00 -0.10808333753E+04  0.10808333753E+04  0.00000000000E+00 0.  1.
          6    1    1    2  501    0 -0.90978044792E+02 -0.76137566985E+02 -0.72446825640E+03  0.75422621824E+03  0.17300000000E+03 0. -1.
         -6    1    1    2    0  503  0.90978044792E+02  0.76137566985E+02 -0.30927184815E+03  0.37370042788E+03  0.17300000000E+03 0.  1.
<mgrwt>
<rscale>  2 0.20976876E+03</rscale>
<asrwt>0</asrwt>
<pdfrwt beam="1">  1       21 0.72451180E-02 0.20976876E+03</pdfrwt>
<pdfrwt beam="2">  1       21 0.16628207E+00 0.20976876E+03</pdfrwt>
<totfact> 0.31962785E+04</totfact>
</mgrwt>
</event>
<event>
 4    1  0.4023583E+000  0.2017027E+03  0.7546771E-02  0.1148310E+00
         21   -1    0    0  503  502  0.00000000000E+00  0.00000000000E+00  0.26229750690E+03  0.26229750690E+03  0.00000000000E+00 0. -1.
         21   -1    0    0  501  503 -0.00000000000E+00 -0.00000000000E+00 -0.22069925569E+03  0.22069925569E+03  0.00000000000E+00 0. -1.
          6    1    1    2  501    0  0.57479270786E+02 -0.86319832475E+02  0.15245571161E+03  0.25283734702E+03  0.17300000000E+03 0. -1.
         -6    1    1    2    0  502 -0.57479270786E+02  0.86319832475E+02 -0.11085746040E+03  0.23015941557E+03  0.17300000000E+03 0. -1.
<mgrwt>
<rscale>  2 0.20170270E+03</rscale>
<asrwt>0</asrwt>
<pdfrwt beam="1">  1       21 0.40353462E-01 0.20170270E+03</pdfrwt>
<pdfrwt beam="2">  1       21 0.33953732E-01 0.20170270E+03</pdfrwt>
<totfact> 0.49232854E+04</totfact>
</mgrwt>
</event>
<event>
 4    1  0.4023583E+000  0.2517907E+03  0.7546771E-02  0.1112178E+00
         21   -1    0    0  501  502  0.00000000000E+00  0.00000000000E+00  0.58974636481E+03  0.58974636481E+03  0.00000000000E+00 0. -1.
         21   -1    0    0  502  503 -0.00000000000E+00 -0.00000000000E+00 -0.10834289415E+03  0.10834289415E+03  0.00000000000E+00 0.  1.
          6    1    1    2  501    0  0.16775831926E+03 -0.72984198046E+02  0.20993991790E+03  0.32783123093E+03  0.17300000000E+03 0.  1.
         -6    1    1    2    0  503 -0.16775831926E+03  0.72984198046E+02  0.27146355275E+03  0.37025802802E+03  0.17300000000E+03 0. -1.
<mgrwt>
<rscale>  2 0.25179068E+03</rscale>
<asrwt>0</asrwt>
<pdfrwt beam="1">  1       21 0.90730208E-01 0.25179068E+03</pdfrwt>
<pdfrwt beam="2">  1       21 0.16668138E-01 0.25179068E+03</pdfrwt>
<totfact> 0.32372900E+04</totfact>
</mgrwt>
</event>
<event>
 4    1  0.4023583E+000  0.2182527E+03  0.7546771E-02  0.1135192E+00
         21   -1    0    0  503  502  0.00000000000E+00  0.00000000000E+00  0.11539114294E+03  0.11539114294E+03  0.00000000000E+00 0.  1.
         21   -1    0    0  501  503 -0.00000000000E+00 -0.00000000000E+00 -0.58634784047E+03  0.58634784047E+03  0.00000000000E+00 0.  1.
          6    1    1    2  501    0  0.38581304409E+02 -0.12734497523E+03 -0.42636208133E+03  0.47897691402E+03  0.17300000000E+03 0.  1.
         -6    1    1    2    0  502 -0.38581304409E+02  0.12734497523E+03 -0.44594616201E+02  0.22276206939E+03  0.17300000000E+03 0.  1.
<mgrwt>
<rscale>  2 0.21825274E+03</rscale>
<asrwt>0</asrwt>
<pdfrwt beam="1">  1       21 0.17752483E-01 0.21825274E+03</pdfrwt>
<pdfrwt beam="2">  1       21 0.90207361E-01 0.21825274E+03</pdfrwt>
<totfact> 0.29676678E+04</totfact>
</mgrwt>
</event>
<event>
 4    1  0.4023583E+000  0.2609369E+03  0.7546771E-02  0.1106582E+00
         21   -1    0    0  501  502  0.00000000000E+00  0.00000000000E+00  0.75930360066E+02  0.75930360066E+02  0.00000000000E+00 0. -1.
         21   -1    0    0  502  503 -0.00000000000E+00 -0.00000000000E+00 -0.20120715032E+04  0.20120715032E+04  0.00000000000E+00 0.  1.
          6    1    1    2  501    0  0.78573179185E+02 -0.17884444912E+03 -0.19077615283E+03  0.32323926426E+03  0.17300000000E+03 0. -1.
         -6    1    1    2    0  503 -0.78573179185E+02  0.17884444912E+03 -0.17453649903E+04  0.17647625990E+04  0.17300000000E+03 0.  1.
<mgrwt>
<rscale>  2 0.26093693E+03</rscale>
<asrwt>0</asrwt>
<pdfrwt beam="1">  1       21 0.11681594E-01 0.26093693E+03</pdfrwt>
<pdfrwt beam="2">  1       21 0.30954946E+00 0.26093693E+03</pdfrwt>
<totfact> 0.17151687E+03</totfact>
</mgrwt>
</event>
<event>
 4    1  0.4023583E+000  0.1999941E+03  0.7546771E-02  0.1149744E+00
         21   -1    0    0  503  502  0.00000000000E+00  0.00000000000E+00  0.14311037454E+03  0.14311037454E+03  0.00000000000E+00 0. -1.
         21   -1    0    0  501  503 -0.00000000000E+00 -0.00000000000E+00 -0.32692385851E+03  0.32692385851E+03  0.00000000000E+00 0.  1.
          6    1    1    2  501    0 -0.96081477583E+00  0.10033807308E+03 -0.18142856908E+03  0.27002588349E+03  0.17300000000E+03 0. -1.
         -6    1    1    2    0  502  0.96081477583E+00 -0.10033807308E+03 -0.23849148964E+01  0.20000834956E+03  0.17300000000E+03 0. -1.
<mgrwt>
<rscale>  2 0.19999413E+03</rscale>
<asrwt>0</asrwt>
<pdfrwt beam="1">  1       21 0.22016981E-01 0.19999413E+03</pdfrwt>
<pdfrwt beam="2">  1       21 0.50295978E-01 0.19999413E+03</pdfrwt>
<totfact> 0.72311210E+04</totfact>
</mgrwt>
</event>
<event>
 4    1  0.4023583E+000  0.1846463E+03  0.7546771E-02  0.1163381E+00
         21   -1    0    0  501  502  0.00000000000E+00  0.00000000000E+00  0.66016715986E+02  0.66016715986E+02  0.00000000000E+00 0.  1.
         21   -1    0    0  502  503 -0.00000000000E+00 -0.00000000000E+00 -0.60305219574E+03  0.60305219574E+03  0.00000000000E+00 0.  1.
          6    1    1    2  501    0 -0.54861609198E+01 -0.64305310667E+02 -0.39529174508E+03  0.43629099769E+03  0.17300000000E+03 0.  1.
         -6    1    1    2    0  503  0.54861609198E+01  0.64305310667E+02 -0.14174373468E+03  0.23277791403E+03  0.17300000000E+03 0.  1.
<mgrwt>
<rscale>  2 0.18464634E+03</rscale>
<asrwt>0</asrwt>
<pdfrwt beam="1">  1       21 0.10156417E-01 0.18464634E+03</pdfrwt>
<pdfrwt beam="2">  1       21 0.92777265E-01 0.18464634E+03</pdfrwt>
<totfact> 0.77560865E+04</totfact>
</mgrwt>
</event>
<event>
 4    1  0.4023583E+000  0.1955713E+03  0.7546771E-02  0.1153530E+00
         21   -1    0    0  501  502  0.00000000000E+00  0.00000000000E+00  0.61508762688E+03  0.61508762688E+03  0.00000000000E+00 0. -1.
         21   -1    0    0  502  503 -0.00000000000E+00 -0.00000000000E+00 -0.62371449134E+02  0.62371449134E+02  0.00000000000E+00 0. -1.
          6    1    1    2  501    0 -0.85569533817E+02  0.31575029232E+02  0.25774979152E+03  0.32354765123E+03  0.17300000000E+03 0.  1.
         -6    1    1    2    0  503  0.85569533817E+02 -0.31575029232E+02  0.29496638623E+03  0.35391142479E+03  0.17300000000E+03 0.  1.
<mgrwt>
<rscale>  2 0.19557129E+03</rscale>
<asrwt>0</asrwt>
<pdfrwt beam="1">  1       21 0.94628862E-01 0.19557129E+03</pdfrwt>
<pdfrwt beam="2">  1       21 0.95956080E-02 0.19557129E+03</pdfrwt>
<totfact> 0.81485888E+04</totfact>
</mgrwt>
</event>
<event>
 4    1  0.4023583E+000  0.1807232E+03  0.7546771E-02  0.1167105E+00
         21   -1    0    0  503  502  0.00000000000E+00  0.00000000000E+00  0.46553995558E+03  0.46553995558E+03  0.00000000000E+00 0. -1.
         21   -1    0    0  501  503 -0.00000000000E+00 -0.00000000000E+00 -0.71179163969E+02  0.71179163969E+02  0.00000000000E+00 0. -1.
          6    1    1    2  501    0  0.50516613541E+02  0.13414488838E+02  0.16502118108E+03  0.24473019217E+03  0.17300000000E+03 0. -1.
         -6    1    1    2    0  502 -0.50516613541E+02 -0.13414488838E+02  0.22933961053E+03  0.29198892738E+03  0.17300000000E+03 0. -1.
<mgrwt>
<rscale>  2 0.18072320E+03</rscale>
<asrwt>0</asrwt>
<pdfrwt beam="1">  1       21 0.71621530E-01 0.18072320E+03</pdfrwt>
<pdfrwt beam="2">  1       21 0.10950641E-01 0.18072320E+03</pdfrwt>
<totfact> 0.12221759E+05</totfact>
</mgrwt>
</event>
<event>
 4    1  0.4023583E+000  0.2108593E+03  0.7546771E-02  0.1140887E+00
         21   -1    0    0  503  502  0.00000000000E+00  0.00000000000E+00  0.14165466923E+04  0.14165466923E+04  0.00000000000E+00 0.  1.
         21   -1    0    0  501  503 -0.00000000000E+00 -0.00000000000E+00 -0.98928104745E+02  0.98928104745E+02  0.00000000000E+00 0. -1.
          6    1    1    2  501    0 -0.11300461304E+03 -0.41983325077E+02  0.32711975761E+02  0.21338161943E+03  0.17300000000E+03 0. -1.
         -6    1    1    2    0  502  0.11300461304E+03  0.41983325077E+02  0.12849066118E+04  0.13020931776E+04  0.17300000000E+03 0.  1.
<mgrwt>
<rscale>  2 0.21085929E+03</rscale>
<asrwt>0</asrwt>
<pdfrwt beam="1">  1       21 0.21793025E+00 0.21085929E+03</pdfrwt>
<pdfrwt beam="2">  1       21 0.15219709E-01 0.21085929E+03</pdfrwt>
<totfact> 0.38883491E+03</totfact>
</mgrwt>
</event>
<event>
 4    1  0.4023583E+000  0.1965003E+03  0.7546771E-02  0.1152726E+00
         21   -1    0    0  501  502  0.00000000000E+00  0.00000000000E+00  0.15185215673E+03  0.15185215673E+03  0.00000000000E+00 0. -1.
         21   -1    0    0  502  503 -0.00000000000E+00 -0.00000000000E+00 -0.28375380323E+03  0.28375380323E+03  0.00000000000E+00 0. -1.
          6    1    1    2  501    0  0.89926889992E+02 -0.24424126884E+02 -0.13615118346E+03  0.23905967513E+03  0.17300000000E+03 0. -1.
         -6    1    1    2    0  503 -0.89926889992E+02  0.24424126884E+02  0.42495369585E+01  0.19654628483E+03  0.17300000000E+03 0. -1.
<mgrwt>
<rscale>  2 0.19650034E+03</rscale>
<asrwt>0</asrwt>
<pdfrwt beam="1">  1       21 0.23361870E-01 0.19650034E+03</pdfrwt>
<pdfrwt beam="2">  1       21 0.43654431E-01 0.19650034E+03</pdfrwt>
<totfact> 0.86755655E+04</totfact>
</mgrwt>
</event>
<event>
 4    1  0.4023583E+000  0.1739339E+03  0.7546771E-02  0.1173806E+00
         21   -1    0    0  501  502  0.00000000000E+00  0.00000000000E+00  0.19884801093E+03  0.19884801093E+03  0.00000000000E+00 0.  1.
         21   -1    0    0  502  503 -0.00000000000E+00 -0.00000000000E+00 -0.16661982324E+03  0.16661982324E+03  0.00000000000E+00 0.  1.
          6    1    1    2  501    0 -0.17435622329E+02 -0.44706972687E+01  0.69980559087E+02  0.18748404388E+03  0.17300000000E+03 0.  1.
         -6    1    1    2    0  503  0.17435622329E+02  0.44706972687E+01 -0.37752371397E+02  0.17798379029E+03  0.17300000000E+03 0.  1.
<mgrwt>
<rscale>  2 0.17393386E+03</rscale>
<asrwt>0</asrwt>
<pdfrwt beam="1">  1       21 0.30592002E-01 0.17393386E+03</pdfrwt>
<pdfrwt beam="2">  1       21 0.25633819E-01 0.17393386E+03</pdfrwt>
<totfact> 0.14901228E+05</totfact>
</mgrwt>
</event>
<event>
 4    1  0.4023583E+000  0.1778001E+03  0.7546771E-02  0.1169949E+00
         21   -1    0    0  503  502  0.00000000000E+00  0.00000000000E+00  0.81948590989E+02  0.81948590989E+02  0.00000000000E+00 0.  1.
         21   -1    0    0  501  503 -0.00000000000E+00 -0.00000000000E+00 -0.68888739709E+03  0.68888739709E+03  0.00000000000E+00 0.  1.
          6    1    1    2  501    0  0.32829873258E+02 -0.24618557967E+02 -0.55913193880E+03  0.58672088676E+03  0.17300000000E+03 0.  1.
         -6    1    1    2    0  502 -0.32829873258E+02  0.24618557967E+02 -0.47806867309E+02  0.18411510133E+03  0.17300000000E+03 0.  1.
<mgrwt>
<rscale>  2 0.17780010E+03</rscale>
<asrwt>0</asrwt>
<pdfrwt beam="1">  1       21 0.12607475E-01 0.17780010E+03</pdfrwt>
<pdfrwt beam="2">  1       21 0.10598268E+00 0.17780010E+03</pdfrwt>
<totfact> 0.38682940E+04</totfact>
</mgrwt>
</event>
<event>
 4    1  0.4023583E+000  0.1857020E+03  0.7546771E-02  0.1162396E+00
         21   -1    0    0  503  502  0.00000000000E+00  0.00000000000E+00  0.43177181208E+03  0.43177181208E+03  0.00000000000E+00 0.  1.
         21   -1    0    0  501  503 -0.00000000000E+00 -0.00000000000E+00 -0.80371717039E+02  0.80371717039E+02  0.00000000000E+00 0.  1.
          6    1    1    2  501    0 -0.65357988401E+02 -0.16869560147E+02  0.19594915978E+03  0.26996540876E+03  0.17300000000E+03 0. -1.
         -6    1    1    2    0  502  0.65357988401E+02  0.16869560147E+02  0.15545093526E+03  0.24217812036E+03  0.17300000000E+03 0. -1.
<mgrwt>
<rscale>  2 0.18570204E+03</rscale>
<asrwt>0</asrwt>
<pdfrwt beam="1">  1       21 0.66426431E-01 0.18570204E+03</pdfrwt>
<pdfrwt beam="2">  1       21 0.12364880E-01 0.18570204E+03</pdfrwt>
<totfact> 0.11590658E+05</totfact>
</mgrwt>
</event>
<event>
 4    1  0.4023583E+000  0.2832267E+03  0.7546771E-02  0.1093940E+00
         21   -1    0    0  501  502  0.00000000000E+00  0.00000000000E+00  0.19121275734E+03  0.19121275734E+03  0.00000000000E+00 0.  1.
         21   -1    0    0  502  503 -0.00000000000E+00 -0.00000000000E+00 -0.57604730054E+03  0.57604730054E+03  0.00000000000E+00 0.  1.
          6    1    1    2  501    0 -0.39961500304E+01  0.22421507439E+03  0.75597392154E+01  0.28332758153E+03  0.17300000000E+03 0.  1.
         -6    1    1    2    0  503  0.39961500304E+01 -0.22421507439E+03 -0.39239428241E+03  0.48393247635E+03  0.17300000000E+03 0.  1.
<mgrwt>
<rscale>  2 0.28322671E+03</rscale>
<asrwt>0</asrwt>
<pdfrwt beam="1">  1       21 0.29417347E-01 0.28322671E+03</pdfrwt>
<pdfrwt beam="2">  1       21 0.88622662E-01 0.28322671E+03</pdfrwt>
<totfact> 0.11440058E+04</totfact>
</mgrwt>
</event>
<event>
 4    1  0.4023583E+000  0.2112764E+03  0.7546771E-02  0.1140559E+00
         21   -1    0    0  501  502  0.00000000000E+00  0.00000000000E+00  0.93203958552E+03  0.93203958552E+03  0.00000000000E+00 0. -1.
         21   -1    0    0  502  503 -0.00000000000E+00 -0.00000000000E+00 -0.56182228648E+02  0.56182228648E+02  0.00000000000E+00 0. -1.
          6    1    1    2  501    0  0.10641670957E+03 -0.58173899143E+02  0.62772804461E+03  0.66232938679E+03  0.17300000000E+03 0. -1.
         -6    1    1    2    0  503 -0.10641670957E+03  0.58173899143E+02  0.24812931226E+03  0.32589242738E+03  0.17300000000E+03 0. -1.
<mgrwt>
<rscale>  2 0.21127640E+03</rscale>
<asrwt>0</asrwt>
<pdfrwt beam="1">  1       21 0.14339069E+00 0.21127640E+03</pdfrwt>
<pdfrwt beam="2">  1       21 0.86434205E-02 0.21127640E+03</pdfrwt>
<totfact> 0.34874451E+04</totfact>
</mgrwt>
</event>
<event>
 4    1  0.4023583E+000  0.2104291E+03  0.7546771E-02  0.1141227E+00
         21   -1    0    0  503  502  0.00000000000E+00  0.00000000000E+00  0.23482746362E+03  0.23482746362E+03  0.00000000000E+00 0. -1.
         21   -1    0    0  501  503 -0.00000000000E+00 -0.00000000000E+00 -0.19093067574E+03  0.19093067574E+03  0.00000000000E+00 0. -1.
          6    1    1    2  501    0 -0.79322139991E+02  0.89774163206E+02  0.45640820481E+02  0.21532182139E+03  0.17300000000E+03 0. -1.
         -6    1    1    2    0  502  0.79322139991E+02 -0.89774163206E+02 -0.17440326090E+01  0.21043631797E+03  0.17300000000E+03 0. -1.
<mgrwt>
<rscale>  2 0.21042909E+03</rscale>
<asrwt>0</asrwt>
<pdfrwt beam="1">  1       21 0.36127302E-01 0.21042909E+03</pdfrwt>
<pdfrwt beam="2">  1       21 0.29373950E-01 0.21042909E+03</pdfrwt>
<totfact> 0.81418438E+04</totfact>
</mgrwt>
</event>
<event>
 4    1  0.4023583E+000  0.2425737E+03  0.7546771E-02  0.1118090E+00
         21   -1    0    0  503  502  0.00000000000E+00  0.00000000000E+00  0.18851254983E+03  0.18851254983E+03  0.00000000000E+00 0. -1.
         21   -1    0    0  501  503 -0.00000000000E+00 -0.00000000000E+00 -0.36782648673E+03  0.36782648673E+03  0.00000000000E+00 0. -1.
          6    1    1    2  501    0  0.16905069635E+03  0.18299088101E+02 -0.19789239114E+03  0.31305493612E+03  0.17300000000E+03 0. -1.
         -6    1    1    2    0  502 -0.16905069635E+03 -0.18299088101E+02  0.18578454241E+02  0.24328410043E+03  0.17300000000E+03 0. -1.
<mgrwt>
<rscale>  2 0.24257369E+03</rscale>
<asrwt>0</asrwt>
<pdfrwt beam="1">  1       21 0.29001931E-01 0.24257369E+03</pdfrwt>
<pdfrwt beam="2">  1       21 0.56588690E-01 0.24257369E+03</pdfrwt>
<totfact> 0.32595276E+04</totfact>
</mgrwt>
</event>
<event>
 4    1  0.4023583E+000  0.1972600E+03  0.7546771E-02  0.1152072E+00
         21   -1    0    0  501  502  0.00000000000E+00  0.00000000000E+00  0.26441068545E+03  0.26441068545E+03  0.00000000000E+00 0. -1.
         21   -1    0    0  502  503 -0.00000000000E+00 -0.00000000000E+00 -0.29482476371E+03  0.29482476371E+03  0.00000000000E+00 0.  1.
          6    1    1    2  501    0  0.85016317590E+02  0.41889554911E+02  0.18267962365E+03  0.26885563778E+03  0.17300000000E+03 0. -1.
         -6    1    1    2    0  503 -0.85016317590E+02 -0.41889554911E+02 -0.21309370191E+03  0.29037981139E+03  0.17300000000E+03 0.  1.
<mgrwt>
<rscale>  2 0.19726000E+03</rscale>
<asrwt>0</asrwt>
<pdfrwt beam="1">  1       21 0.40678567E-01 0.19726000E+03</pdfrwt>
<pdfrwt beam="2">  1       21 0.45357656E-01 0.19726000E+03</pdfrwt>
<totfact> 0.27073216E+04</totfact>
</mgrwt>
</event>
<event>
 4    1  0.4023583E+000  0.2185582E+03  0.7546771E-02  0.1134963E+00
         21   -1    0    0  501  502  0.00000000000E+00  0.00000000000E+00  0.16837465411E+03  0.16837465411E+03  0.00000000000E+00 0. -1.
         21   -1    0    0  502  503 -0.00000000000E+00 -0.00000000000E+00 -0.28666449034E+03  0.28666449034E+03  0.00000000000E+00 0.  1.
          6    1    1    2  501    0  0.30577844174E+02 -0.13001420352E+03 -0.36003487016E+02  0.22150383461E+03  0.17300000000E+03 0.  1.
         -6    1    1    2    0  503 -0.30577844174E+02  0.13001420352E+03 -0.82286349212E+02  0.23353530983E+03  0.17300000000E+03 0. -1.
<mgrwt>
<rscale>  2 0.21855822E+03</rscale>
<asrwt>0</asrwt>
<pdfrwt beam="1">  1       21 0.25903793E-01 0.21855822E+03</pdfrwt>
<pdfrwt beam="2">  1       21 0.44102229E-01 0.21855822E+03</pdfrwt>
<totfact> 0.69104431E+04</totfact>
</mgrwt>
</event>
<event>
 4    1  0.4023583E+000  0.2177294E+03  0.7546771E-02  0.1135587E+00
         21   -1    0    0  503  502  0.00000000000E+00  0.00000000000E+00  0.14996600811E+03  0.14996600811E+03  0.00000000000E+00 0. -1.
         21   -1    0    0  501  503 -0.00000000000E+00 -0.00000000000E+00 -0.33440928968E+03  0.33440928968E+03  0.00000000000E+00 0. -1.
          6    1    1    2  501    0 -0.10365521255E+03  0.82053085434E+02 -0.35571410111E+02  0.22061604007E+03  0.17300000000E+03 0. -1.
         -6    1    1    2    0  502  0.10365521255E+03 -0.82053085434E+02 -0.14887187146E+03  0.26375925772E+03  0.17300000000E+03 0. -1.
<mgrwt>
<rscale>  2 0.21772945E+03</rscale>
<asrwt>0</asrwt>
<pdfrwt beam="1">  1       21 0.23071694E-01 0.21772945E+03</pdfrwt>
<pdfrwt beam="2">  1       21 0.51447583E-01 0.21772945E+03</pdfrwt>
<totfact> 0.62627483E+04</totfact>
</mgrwt>
</event>
<event>
 4    1  0.4023583E+000  0.2342622E+03  0.7546771E-02  0.1123675E+00
         21   -1    0    0  501  502  0.00000000000E+00  0.00000000000E+00  0.46824474630E+03  0.46824474630E+03  0.00000000000E+00 0. -1.
         21   -1    0    0  502  503 -0.00000000000E+00 -0.00000000000E+00 -0.11777711563E+03  0.11777711563E+03  0.00000000000E+00 0. -1.
          6    1    1    2  501    0 -0.26423038875E+02  0.15572929313E+03  0.15474210357E+03  0.28075595869E+03  0.17300000000E+03 0. -1.
         -6    1    1    2    0  503  0.26423038875E+02 -0.15572929313E+03  0.19572552710E+03  0.30526590324E+03  0.17300000000E+03 0. -1.
<mgrwt>
<rscale>  2 0.23426222E+03</rscale>
<asrwt>0</asrwt>
<pdfrwt beam="1">  1       21 0.72037652E-01 0.23426222E+03</pdfrwt>
<pdfrwt beam="2">  1       21 0.18119557E-01 0.23426222E+03</pdfrwt>
<totfact> 0.47289324E+04</totfact>
</mgrwt>
</event>
<event>
 4    1  0.4023583E+000  0.2173590E+03  0.7546771E-02  0.1135867E+00
         21   -1    0    0  503  502  0.00000000000E+00  0.00000000000E+00  0.16874384354E+03  0.16874384354E+03  0.00000000000E+00 0.  1.
         21   -1    0    0  501  503 -0.00000000000E+00 -0.00000000000E+00 -0.49058423444E+03  0.49058423444E+03  0.00000000000E+00 0.  1.
          6    1    1    2  501    0 -0.63046837263E+02  0.11550338836E+03 -0.37691739303E+03  0.43509959501E+03  0.17300000000E+03 0.  1.
         -6    1    1    2    0  502  0.63046837263E+02 -0.11550338836E+03  0.55077002132E+02  0.22422848297E+03  0.17300000000E+03 0.  1.
<mgrwt>
<rscale>  2 0.21735900E+03</rscale>
<asrwt>0</asrwt>
<pdfrwt beam="1">  1       21 0.25960592E-01 0.21735900E+03</pdfrwt>
<pdfrwt beam="2">  1       21 0.75474497E-01 0.21735900E+03</pdfrwt>
<totfact> 0.21777692E+04</totfact>
</mgrwt>
</event>
<event>
 4    1  0.4023583E+000  0.2022104E+03  0.7546771E-02  0.1147887E+00
         21   -1    0    0  503  502  0.00000000000E+00  0.00000000000E+00  0.37495057518E+02  0.37495057518E+02  0.00000000000E+00 0. -1.
         21   -1    0    0  501  503 -0.00000000000E+00 -0.00000000000E+00 -0.13283765177E+04  0.13283765177E+04  0.00000000000E+00 0. -1.
          6    1    1    2  501    0  0.42381891414E+02 -0.95727760264E+02 -0.35645341192E+03  0.40981466991E+03  0.17300000000E+03 0. -1.
         -6    1    1    2    0  502 -0.42381891414E+02  0.95727760264E+02 -0.93442804822E+03  0.95605690526E+03  0.17300000000E+03 0. -1.
<mgrwt>
<rscale>  2 0.20221036E+03</rscale>
<asrwt>0</asrwt>
<pdfrwt beam="1">  1       21 0.57684699E-02 0.20221036E+03</pdfrwt>
<pdfrwt beam="2">  1       21 0.20436564E+00 0.20221036E+03</pdfrwt>
<totfact> 0.26372165E+04</totfact>
</mgrwt>
</event>
<event>
 4    1  0.4023583E+000  0.1736532E+03  0.7546771E-02  0.1174091E+00
         21   -1    0    0  503  502  0.00000000000E+00  0.00000000000E+00  0.42486864009E+03  0.42486864009E+03  0.00000000000E+00 0.  1.
         21   -1    0    0  501  503 -0.00000000000E+00 -0.00000000000E+00 -0.22943493085E+03  0.22943493085E+03  0.00000000000E+00 0.  1.
          6    1    1    2  501    0 -0.13488423024E+02  0.66696050897E+01 -0.17416364847E+03  0.24594389124E+03  0.17300000000E+03 0.  1.
         -6    1    1    2    0  502  0.13488423024E+02 -0.66696050897E+01  0.36959735770E+03  0.40835967970E+03  0.17300000000E+03 0.  1.
<mgrwt>
<rscale>  2 0.17365316E+03</rscale>
<asrwt>0</asrwt>
<pdfrwt beam="1">  1       21 0.65364406E-01 0.17365316E+03</pdfrwt>
<pdfrwt beam="2">  1       21 0.35297682E-01 0.17365316E+03</pdfrwt>
<totfact> 0.16862368E+04</totfact>
</mgrwt>
</event>
<event>
 4    1  0.4023583E+000  0.1766466E+03  0.7546771E-02  0.1171089E+00
         21   -1    0    0  501  502  0.00000000000E+00  0.00000000000E+00  0.68326480696E+03  0.68326480696E+03  0.00000000000E+00 0.  1.
         21   -1    0    0  502  503 -0.00000000000E+00 -0.00000000000E+00 -0.44339827110E+03  0.44339827110E+03  0.00000000000E+00 0.  1.
          6    1    1    2  501    0  0.17049753727E+02  0.31373945719E+02  0.65346572870E+03  0.67692058409E+03  0.17300000000E+03 0.  1.
         -6    1    1    2    0  503 -0.17049753727E+02 -0.31373945719E+02 -0.41359919284E+03  0.44974249397E+03  0.17300000000E+03 0.  1.
<mgrwt>
<rscale>  2 0.17664659E+03</rscale>
<asrwt>0</asrwt>
<pdfrwt beam="1">  1       21 0.10511766E+00 0.17664659E+03</pdfrwt>
<pdfrwt beam="2">  1       21 0.68215119E-01 0.17664659E+03</pdfrwt>
<totfact> 0.14519339E+03</totfact>
</mgrwt>
</event>
<event>
 4    1  0.4023583E+000  0.1777694E+03  0.7546771E-02  0.1169979E+00
         21   -1    0    0  503  502  0.00000000000E+00  0.00000000000E+00  0.22922775662E+03  0.22922775662E+03  0.00000000000E+00 0. -1.
         21   -1    0    0  501  503 -0.00000000000E+00 -0.00000000000E+00 -0.15108525644E+03  0.15108525644E+03  0.00000000000E+00 0.  1.
          6    1    1    2  501    0 -0.40719646435E+02  0.38570774854E+01 -0.17183241244E+02  0.17859795753E+03  0.17300000000E+03 0.  1.
         -6    1    1    2    0  502  0.40719646435E+02 -0.38570774854E+01  0.95325741425E+02  0.20171505554E+03  0.17300000000E+03 0. -1.
<mgrwt>
<rscale>  2 0.17776942E+03</rscale>
<asrwt>0</asrwt>
<pdfrwt beam="1">  1       21 0.35265809E-01 0.17776942E+03</pdfrwt>
<pdfrwt beam="2">  1       21 0.23243885E-01 0.17776942E+03</pdfrwt>
<totfact> 0.13554144E+05</totfact>
</mgrwt>
</event>
<event>
 4    1  0.4023583E+000  0.1862395E+03  0.7546771E-02  0.1161897E+00
         21   -1    0    0  501  502  0.00000000000E+00  0.00000000000E+00  0.93549824432E+02  0.93549824432E+02  0.00000000000E+00 0. -1.
         21   -1    0    0  502  503 -0.00000000000E+00 -0.00000000000E+00 -0.37366109980E+03  0.37366109980E+03  0.00000000000E+00 0. -1.
          6    1    1    2  501    0  0.66022217822E+02  0.19930714525E+02 -0.11949589167E+03  0.22127908793E+03  0.17300000000E+03 0. -1.
         -6    1    1    2    0  503 -0.66022217822E+02 -0.19930714525E+02 -0.16061538369E+03  0.24593183630E+03  0.17300000000E+03 0. -1.
<mgrwt>
<rscale>  2 0.18623954E+03</rscale>
<asrwt>0</asrwt>
<pdfrwt beam="1">  1       21 0.14392280E-01 0.18623954E+03</pdfrwt>
<pdfrwt beam="2">  1       21 0.57486324E-01 0.18623954E+03</pdfrwt>
<totfact> 0.12036925E+05</totfact>
</mgrwt>
</event>
<event>
 4    1  0.4023583E+000  0.1831592E+03  0.7546771E-02  0.1164780E+00
         21   -1    0    0  503  502  0.00000000000E+00  0.00000000000E+00  0.11497988957E+03  0.11497988957E+03  0.00000000000E+00 0. -1.
         21   -1    0    0  501  503 -0.00000000000E+00 -0.00000000000E+00 -0.56114666950E+03  0.56114666950E+03  0.00000000000E+00 0. -1.
          6    1    1    2  501    0  0.53260005855E+02  0.27958409274E+02 -0.45731336366E+03  0.49262847406E+03  0.17300000000E+03 0. -1.
         -6    1    1    2    0  502 -0.53260005855E+02 -0.27958409274E+02  0.11146583726E+02  0.18349808501E+03  0.17300000000E+03 0. -1.
<mgrwt>
<rscale>  2 0.18315922E+03</rscale>
<asrwt>0</asrwt>
<pdfrwt beam="1">  1       21 0.17689214E-01 0.18315922E+03</pdfrwt>
<pdfrwt beam="2">  1       21 0.86330258E-01 0.18315922E+03</pdfrwt>
<totfact> 0.33698947E+04</totfact>
</mgrwt>
</event>
<event>
 4    1  0.4023583E+000  0.2011141E+03  0.7546771E-02  0.1148802E+00
         21   -1    0    0  503  502  0.00000000000E+00  0.00000000000E+00  0.74461019484E+03  0.74461019484E+03  0.00000000000E+00 0.  1.
         21   -1    0    0  501  503 -0.00000000000E+00 -0.00000000000E+00 -0.67872643386E+02  0.67872643386E+02  0.00000000000E+00 0.  1.
          6    1    1    2  501    0  0.22917085259E+02 -0.99963497623E+02  0.15683561438E+03  0.25503784737E+03  0.17300000000E+03 0.  1.
         -6    1    1    2    0  502 -0.22917085259E+02  0.99963497623E+02  0.51990193708E+03  0.55744499086E+03  0.17300000000E+03 0.  1.
<mgrwt>
<rscale>  2 0.20111413E+03</rscale>
<asrwt>0</asrwt>
<pdfrwt beam="1">  1       21 0.11455541E+00 0.20111413E+03</pdfrwt>
<pdfrwt beam="2">  1       21 0.10441946E-01 0.20111413E+03</pdfrwt>
<totfact> 0.44282972E+04</totfact>
</mgrwt>
</event>
<event>
 4    1  0.4023583E+000  0.1831801E+03  0.7546771E-02  0.1164760E+00
         21   -1    0    0  501  502  0.00000000000E+00  0.00000000000E+00  0.38516481636E+03  0.38516481636E+03  0.00000000000E+00 0.  1.
         21   -1    0    0  502  503 -0.00000000000E+00 -0.00000000000E+00 -0.94572791237E+02  0.94572791237E+02  0.00000000000E+00 0.  1.
          6    1    1    2  501    0  0.19761716167E+02  0.56880770990E+02  0.21263962038E+03  0.28066092654E+03  0.17300000000E+03 0.  1.
         -6    1    1    2    0  503 -0.19761716167E+02 -0.56880770990E+02  0.77952404748E+02  0.19907668106E+03  0.17300000000E+03 0.  1.
<mgrwt>
<rscale>  2 0.18318010E+03</rscale>
<asrwt>0</asrwt>
<pdfrwt beam="1">  1       21 0.59256125E-01 0.18318010E+03</pdfrwt>
<pdfrwt beam="2">  1       21 0.14549660E-01 0.18318010E+03</pdfrwt>
<totfact> 0.11074173E+05</totfact>
</mgrwt>
</event>
<event>
 4    1  0.4023583E+000  0.2401815E+03  0.7546771E-02  0.1119672E+00
         21   -1    0    0  501  502  0.00000000000E+00  0.00000000000E+00  0.14174769363E+03  0.14174769363E+03  0.00000000000E+00 0.  1.
         21   -1    0    0  502  503 -0.00000000000E+00 -0.00000000000E+00 -0.13810081017E+04  0.13810081017E+04  0.00000000000E+00 0. -1.
          6    1    1    2  501    0 -0.92708410203E+02 -0.13843156413E+03  0.19795346331E+02  0.24099585683E+03  0.17300000000E+03 0.  1.
         -6    1    1    2    0  503  0.92708410203E+02  0.13843156413E+03 -0.12590557544E+04  0.12817599385E+04  0.17300000000E+03 0. -1.
<mgrwt>
<rscale>  2 0.24018149E+03</rscale>
<asrwt>0</asrwt>
<pdfrwt beam="1">  1       21 0.21807337E-01 0.24018149E+03</pdfrwt>
<pdfrwt beam="2">  1       21 0.21246279E+00 0.24018149E+03</pdfrwt>
<totfact> 0.20995594E+03</totfact>
</mgrwt>
</event>
<event>
 4    1  0.4023583E+000  0.1782554E+03  0.7546771E-02  0.1169502E+00
         21   -1    0    0  503  502  0.00000000000E+00  0.00000000000E+00  0.10417436188E+03  0.10417436188E+03  0.00000000000E+00 0. -1.
         21   -1    0    0  501  503 -0.00000000000E+00 -0.00000000000E+00 -0.38378789061E+03  0.38378789061E+03  0.00000000000E+00 0. -1.
          6    1    1    2  501    0  0.80380420704E+01  0.42206512215E+02 -0.25033982446E+03  0.30731909720E+03  0.17300000000E+03 0. -1.
         -6    1    1    2    0  502 -0.80380420704E+01 -0.42206512215E+02 -0.29273704273E+02  0.18064315530E+03  0.17300000000E+03 0. -1.
<mgrwt>
<rscale>  2 0.17825543E+03</rscale>
<asrwt>0</asrwt>
<pdfrwt beam="1">  1       21 0.16026825E-01 0.17825543E+03</pdfrwt>
<pdfrwt beam="2">  1       21 0.59044291E-01 0.17825543E+03</pdfrwt>
<totfact> 0.93756904E+04</totfact>
</mgrwt>
</event>
<event>
 4    1  0.4023583E+000  0.1849090E+03  0.7546771E-02  0.1163135E+00
         21   -1    0    0  503  502  0.00000000000E+00  0.00000000000E+00  0.37201410641E+03  0.37201410641E+03  0.00000000000E+00 0. -1.
         21   -1    0    0  501  503 -0.00000000000E+00 -0.00000000000E+00 -0.93181220490E+02  0.93181220490E+02  0.00000000000E+00 0. -1.
          6    1    1    2  501    0  0.36951273508E+02 -0.53823270657E+02  0.11223517000E+03  0.21630551186E+03  0.17300000000E+03 0. -1.
         -6    1    1    2    0  502 -0.36951273508E+02  0.53823270657E+02  0.16659771592E+03  0.24888981504E+03  0.17300000000E+03 0. -1.
<mgrwt>
<rscale>  2 0.18490901E+03</rscale>
<asrwt>0</asrwt>
<pdfrwt beam="1">  1       21 0.57232939E-01 0.18490901E+03</pdfrwt>
<pdfrwt beam="2">  1       21 0.14335573E-01 0.18490901E+03</pdfrwt>
<totfact> 0.12243702E+05</totfact>
</mgrwt>
</event>
<event>
 4    1  0.4023583E+000  0.2020355E+03  0.7546771E-02  0.1148033E+00
         21   -1    0    0  501  502  0.00000000000E+00  0.00000000000E+00  0.10140298550E+04  0.10140298550E+04  0.00000000000E+00 0. -1.
         21   -1    0    0  502  503 -0.00000000000E+00 -0.00000000000E+00 -0.40882242599E+02  0.40882242599E+02  0.00000000000E+00 0. -1.
          6    1    1    2  501    0 -0.70805247050E+02 -0.76654937982E+02  0.42116785035E+03  0.46711959999E+03  0.17300000000E+03 0. -1.
         -6    1    1    2    0  503  0.70805247050E+02  0.76654937982E+02  0.55197976201E+03  0.58779249756E+03  0.17300000000E+03 0. -1.
<mgrwt>
<rscale>  2 0.20203555E+03</rscale>
<asrwt>0</asrwt>
<pdfrwt beam="1">  1       21 0.15600457E+00 0.20203555E+03</pdfrwt>
<pdfrwt beam="2">  1       21 0.62895766E-02 0.20203555E+03</pdfrwt>
<totfact> 0.48728283E+04</totfact>
</mgrwt>
</event>
<event>
 4    1  0.4023583E+000  0.2871428E+03  0.7546771E-02  0.1091850E+00
         21   -1    0    0  501  502  0.00000000000E+00  0.00000000000E+00  0.16160280903E+03  0.16160280903E+03  0.00000000000E+00 0. -1.
         21   -1    0    0  502  503 -0.00000000000E+00 -0.00000000000E+00 -0.68840061761E+03  0.68840061761E+03  0.00000000000E+00 0. -1.
          6    1    1    2  501    0 -0.20124708234E+02  0.22829150692E+03 -0.47169309217E+02  0.29099133964E+03  0.17300000000E+03 0. -1.
         -6    1    1    2    0  503  0.20124708234E+02 -0.22829150692E+03 -0.47962849936E+03  0.55901208700E+03  0.17300000000E+03 0. -1.
<mgrwt>
<rscale>  2 0.28714285E+03</rscale>
<asrwt>0</asrwt>
<pdfrwt beam="1">  1       21 0.24861970E-01 0.28714285E+03</pdfrwt>
<pdfrwt beam="2">  1       21 0.10590779E+00 0.28714285E+03</pdfrwt>
<totfact> 0.10359781E+04</totfact>
</mgrwt>
</event>
<event>
 4    1  0.4023583E+000  0.2039156E+03  0.7546771E-02  0.1146477E+00
         21   -1    0    0  501  502  0.00000000000E+00  0.00000000000E+00  0.19471531210E+03  0.19471531210E+03  0.00000000000E+00 0. -1.
         21   -1    0    0  502  503 -0.00000000000E+00 -0.00000000000E+00 -0.24658095979E+04  0.24658095979E+04  0.00000000000E+00 0. -1.
          6    1    1    2  501    0 -0.10789269350E+03  0.34266811133E+01  0.13580754263E+03  0.24500053896E+03  0.17300000000E+03 0. -1.
         -6    1    1    2    0  503  0.10789269350E+03 -0.34266811133E+01 -0.24069018284E+04  0.24155243710E+04  0.17300000000E+03 0. -1.
<mgrwt>
<rscale>  2 0.20391561E+03</rscale>
<asrwt>0</asrwt>
<pdfrwt beam="1">  1       21 0.29956201E-01 0.20391561E+03</pdfrwt>
<pdfrwt beam="2">  1       21 0.37935533E+00 0.20391561E+03</pdfrwt>
<totfact> 0.12231071E+02</totfact>
</mgrwt>
</event>
<event>
 4    1  0.4023583E+000  0.2350043E+03  0.7546771E-02  0.1123166E+00
         21   -1    0    0  503  502  0.00000000000E+00  0.00000000000E+00  0.60703891540E+03  0.60703891540E+03  0.00000000000E+00 0.  1.
         21   -1    0    0  501  503 -0.00000000000E+00 -0.00000000000E+00 -0.90993937196E+02  0.90993937196E+02  0.00000000000E+00 0.  1.
          6    1    1    2  501    0  0.13453859299E+03 -0.84837513897E+02  0.26267705784E+03  0.35245747755E+03  0.17300000000E+03 0.  1.
         -6    1    1    2    0  502 -0.13453859299E+03  0.84837513897E+02  0.25336792036E+03  0.34557537504E+03  0.17300000000E+03 0.  1.
<mgrwt>
<rscale>  2 0.23500433E+03</rscale>
<asrwt>0</asrwt>
<pdfrwt beam="1">  1       21 0.93390600E-01 0.23500433E+03</pdfrwt>
<pdfrwt beam="2">  1       21 0.13999068E-01 0.23500433E+03</pdfrwt>
<totfact> 0.41978052E+04</totfact>
</mgrwt>
</event>
<event>
 4    1  0.4023583E+000  0.1986267E+03  0.7546771E-02  0.1150903E+00
         21   -1    0    0  501  502  0.00000000000E+00  0.00000000000E+00  0.11908654336E+03  0.11908654336E+03  0.00000000000E+00 0. -1.
         21   -1    0    0  502  503 -0.00000000000E+00 -0.00000000000E+00 -0.41903670735E+03  0.41903670735E+03  0.00000000000E+00 0. -1.
          6    1    1    2  501    0  0.11288439250E+02  0.96933725688E+02 -0.26853856087E+02  0.20043379362E+03  0.17300000000E+03 0. -1.
         -6    1    1    2    0  503 -0.11288439250E+02 -0.96933725688E+02 -0.27309630791E+03  0.33768945709E+03  0.17300000000E+03 0. -1.
<mgrwt>
<rscale>  2 0.19862673E+03</rscale>
<asrwt>0</asrwt>
<pdfrwt beam="1">  1       21 0.18321007E-01 0.19862673E+03</pdfrwt>
<pdfrwt beam="2">  1       21 0.64467186E-01 0.19862673E+03</pdfrwt>
<totfact> 0.60122479E+04</totfact>
</mgrwt>
</event>
<event>
 4    1  0.4023583E+000  0.1845764E+03  0.7546771E-02  0.1163446E+00
         21   -1    0    0  503  502  0.00000000000E+00  0.00000000000E+00  0.59193592526E+02  0.59193592526E+02  0.00000000000E+00 0. -1.
         21   -1    0    0  501  503 -0.00000000000E+00 -0.00000000000E+00 -0.66344065776E+03  0.66344065776E+03  0.00000000000E+00 0. -1.
          6    1    1    2  501    0 -0.52812878093E+02 -0.36745783972E+02 -0.43363885936E+03  0.47128665702E+03  0.17300000000E+03 0. -1.
         -6    1    1    2    0  502  0.52812878093E+02  0.36745783972E+02 -0.17060820587E+03  0.25134759327E+03  0.17300000000E+03 0. -1.
<mgrwt>
<rscale>  2 0.18457641E+03</rscale>
<asrwt>0</asrwt>
<pdfrwt beam="1">  1       21 0.91067069E-02 0.18457641E+03</pdfrwt>
<pdfrwt beam="2">  1       21 0.10206779E+00 0.18457641E+03</pdfrwt>
<totfact> 0.75083445E+04</totfact>
</mgrwt>
</event>
<event>
 4    1  0.4023583E+000  0.1839337E+03  0.7546771E-02  0.1164049E+00
         21   -1    0    0  501  502  0.00000000000E+00  0.00000000000E+00  0.11346194061E+03  0.11346194061E+03  0.00000000000E+00 0. -1.
         21   -1    0    0  502  503 -0.00000000000E+00 -0.00000000000E+00 -0.45175699001E+03  0.45175699001E+03  0.00000000000E+00 0. -1.
          6    1    1    2  501    0 -0.59059158832E+02  0.20362455935E+02 -0.43680304474E+01  0.18398557972E+03  0.17300000000E+03 0. -1.
         -6    1    1    2    0  503  0.59059158832E+02 -0.20362455935E+02 -0.33392701895E+03  0.38123335090E+03  0.17300000000E+03 0. -1.
<mgrwt>
<rscale>  2 0.18393372E+03</rscale>
<asrwt>0</asrwt>
<pdfrwt beam="1">  1       21 0.17455683E-01 0.18393372E+03</pdfrwt>
<pdfrwt beam="2">  1       21 0.69501076E-01 0.18393372E+03</pdfrwt>
<totfact> 0.56156078E+04</totfact>
</mgrwt>
</event>
<event>
 4    1  0.4023583E+000  0.1931088E+03  0.7546771E-02  0.1155687E+00
         21   -1    0    0  503  502  0.00000000000E+00  0.00000000000E+00  0.57527574701E+03  0.57527574701E+03  0.00000000000E+00 0.  1.
         21   -1    0    0  501  503 -0.00000000000E+00 -0.00000000000E+00 -0.10356175773E+03  0.10356175773E+03  0.00000000000E+00 0. -1.
          6    1    1    2  501    0  0.52301472108E+02 -0.68018851081E+02  0.28265352557E+02  0.19516643728E+03  0.17300000000E+03 0. -1.
         -6    1    1    2    0  502 -0.52301472108E+02  0.68018851081E+02  0.44344863672E+03  0.48367106746E+03  0.17300000000E+03 0.  1.
<mgrwt>
<rscale>  2 0.19310880E+03</rscale>
<asrwt>0</asrwt>
<pdfrwt beam="1">  1       21 0.88503959E-01 0.19310880E+03</pdfrwt>
<pdfrwt beam="2">  1       21 0.15932578E-01 0.19310880E+03</pdfrwt>
<totfact> 0.38367315E+04</totfact>
</mgrwt>
</event>
<event>
 4    1  0.4023583E+000  0.4847167E+03  0.7546771E-02  0.1017847E+00
         21   -1    0    0  503  502  0.00000000000E+00  0.00000000000E+00  0.74576944921E+03  0.74576944921E+03  0.00000000000E+00 0.  1.
         21   -1    0    0  501  503 -0.00000000000E+00 -0.00000000000E+00 -0.31532206755E+03  0.31532206755E+03  0.00000000000E+00 0. -1.
          6    1    1    2  501    0 -0.44074035611E+03  0.10377501900E+03  0.23097400197E+03  0.53693510377E+03  0.17300000000E+03 0. -1.
         -6    1    1    2    0  502  0.44074035611E+03 -0.10377501900E+03  0.19947337969E+03  0.52415641299E+03  0.17300000000E+03 0.  1.
<mgrwt>
<rscale>  2 0.48471674E+03</rscale>
<asrwt>0</asrwt>
<pdfrwt beam="1">  1       21 0.11473376E+00 0.48471674E+03</pdfrwt>
<pdfrwt beam="2">  1       21 0.48511088E-01 0.48471674E+03</pdfrwt>
<totfact> 0.20352705E+03</totfact>
</mgrwt>
</event>
<event>
 4    1  0.4023583E+000  0.1753487E+03  0.7546771E-02  0.1172382E+00
         21   -1    0    0  501  502  0.00000000000E+00  0.00000000000E+00  0.17458102921E+03  0.17458102921E+03  0.00000000000E+00 0.  1.
         21   -1    0    0  502  503 -0.00000000000E+00 -0.00000000000E+00 -0.17750753719E+03  0.17750753719E+03  0.00000000000E+00 0.  1.
          6    1    1    2  501    0 -0.22737807724E+02  0.17353530452E+02  0.14103131489E+02  0.17591489771E+03  0.17300000000E+03 0. -1.
         -6    1    1    2    0  503  0.22737807724E+02 -0.17353530452E+02 -0.17029639466E+02  0.17617366869E+03  0.17300000000E+03 0. -1.
<mgrwt>
<rscale>  2 0.17534866E+03</rscale>
<asrwt>0</asrwt>
<pdfrwt beam="1">  1       21 0.26858620E-01 0.17534866E+03</pdfrwt>
<pdfrwt beam="2">  1       21 0.27308852E-01 0.17534866E+03</pdfrwt>
<totfact> 0.16969768E+05</totfact>
</mgrwt>
</event>
<event>
 4    1  0.4023583E+000  0.1890584E+03  0.7546771E-02  0.1159313E+00
         21   -1    0    0  503  502  0.00000000000E+00  0.00000000000E+00  0.12899618549E+03  0.12899618549E+03  0.00000000000E+00 0. -1.
         21   -1    0    0  501  503 -0.00000000000E+00 -0.00000000000E+00 -0.31864844262E+03  0.31864844262E+03  0.00000000000E+00 0. -1.
          6    1    1    2  501    0 -0.74390404506E+02 -0.16737241745E+02 -0.17566063260E+03  0.25806922597E+03  0.17300000000E+03 0. -1.
         -6    1    1    2    0  502  0.74390404506E+02  0.16737241745E+02 -0.13991624525E+02  0.18957540215E+03  0.17300000000E+03 0. -1.
<mgrwt>
<rscale>  2 0.18905837E+03</rscale>
<asrwt>0</asrwt>
<pdfrwt beam="1">  1       21 0.19845567E-01 0.18905837E+03</pdfrwt>
<pdfrwt beam="2">  1       21 0.49022837E-01 0.18905837E+03</pdfrwt>
<totfact> 0.93113096E+04</totfact>
</mgrwt>
</event>
<event>
 4    1  0.4023583E+000  0.1813623E+03  0.7546771E-02  0.1166491E+00
         21   -1    0    0  501  502  0.00000000000E+00  0.00000000000E+00  0.12288095452E+03  0.12288095452E+03  0.00000000000E+00 0.  1.
         21   -1    0    0  502  503 -0.00000000000E+00 -0.00000000000E+00 -0.63727912598E+03  0.63727912598E+03  0.00000000000E+00 0.  1.
          6    1    1    2  501    0 -0.32729778420E+02 -0.43497489668E+02  0.32253939990E+02  0.18420799833E+03  0.17300000000E+03 0.  1.
         -6    1    1    2    0  503  0.32729778420E+02  0.43497489668E+02 -0.54665211145E+03  0.57595208217E+03  0.17300000000E+03 0.  1.
<mgrwt>
<rscale>  2 0.18136226E+03</rscale>
<asrwt>0</asrwt>
<pdfrwt beam="1">  1       21 0.18904762E-01 0.18136226E+03</pdfrwt>
<pdfrwt beam="2">  1       21 0.98042945E-01 0.18136226E+03</pdfrwt>
<totfact> 0.22203507E+04</totfact>
</mgrwt>
</event>
<event>
 4    1  0.4023583E+000  0.1891655E+03  0.7546771E-02  0.1159216E+00
         21   -1    0    0  503  502  0.00000000000E+00  0.00000000000E+00  0.16183474315E+04  0.16183474315E+04  0.00000000000E+00 0. -1.
         21   -1    0    0  501  503 -0.00000000000E+00 -0.00000000000E+00 -0.30490408151E+02  0.30490408151E+02  0.00000000000E+00 0.  1.
          6    1    1    2  501    0  0.52364843908E+02  0.55789728825E+02  0.36174484569E+03  0.40821918635E+03  0.17300000000E+03 0.  1.
         -6    1    1    2    0  502 -0.52364843908E+02 -0.55789728825E+02  0.12261121777E+04  0.12406186533E+04  0.17300000000E+03 0. -1.
<mgrwt>
<rscale>  2 0.18916546E+03</rscale>
<asrwt>0</asrwt>
<pdfrwt beam="1">  1       21 0.24897646E+00 0.18916546E+03</pdfrwt>
<pdfrwt beam="2">  1       21 0.46908333E-02 0.18916546E+03</pdfrwt>
<totfact> 0.20266870E+04</totfact>
</mgrwt>
</event>
<event>
 4    1  0.4023583E+000  0.2809829E+03  0.7546771E-02  0.1095153E+00
         21   -1    0    0  501  502  0.00000000000E+00  0.00000000000E+00  0.29050567634E+03  0.29050567634E+03  0.00000000000E+00 0.  1.
         21   -1    0    0  502  503 -0.00000000000E+00 -0.00000000000E+00 -0.28756900950E+03  0.28756900950E+03  0.00000000000E+00 0. -1.
          6    1    1    2  501    0 -0.60271976608E+02 -0.21304858574E+03  0.69211502685E+02  0.28938148378E+03  0.17300000000E+03 0.  1.
         -6    1    1    2    0  503  0.60271976608E+02  0.21304858574E+03 -0.66274835847E+02  0.28869320206E+03  0.17300000000E+03 0.  1.
<mgrwt>
<rscale>  2 0.28098294E+03</rscale>
<asrwt>0</asrwt>
<pdfrwt beam="1">  1       21 0.44693181E-01 0.28098294E+03</pdfrwt>
<pdfrwt beam="2">  1       21 0.44241386E-01 0.28098294E+03</pdfrwt>
<totfact> 0.22564142E+04</totfact>
</mgrwt>
</event>
<event>
 4    1  0.4023583E+000  0.2224456E+03  0.7546771E-02  0.1132073E+00
         21   -1    0    0  503  502  0.00000000000E+00  0.00000000000E+00  0.12761861908E+03  0.12761861908E+03  0.00000000000E+00 0.  1.
         21   -1    0    0  501  503 -0.00000000000E+00 -0.00000000000E+00 -0.45492974422E+03  0.45492974422E+03  0.00000000000E+00 0. -1.
          6    1    1    2  501    0  0.13548474749E+03 -0.34596776131E+02 -0.27559968973E+03  0.35417120535E+03  0.17300000000E+03 0. -1.
         -6    1    1    2    0  502 -0.13548474749E+03  0.34596776131E+02 -0.51711435414E+02  0.22837715795E+03  0.17300000000E+03 0.  1.
<mgrwt>
<rscale>  2 0.22244562E+03</rscale>
<asrwt>0</asrwt>
<pdfrwt beam="1">  1       21 0.19633634E-01 0.22244562E+03</pdfrwt>
<pdfrwt beam="2">  1       21 0.69989191E-01 0.22244562E+03</pdfrwt>
<totfact> 0.43640842E+04</totfact>
</mgrwt>
</event>
<event>
 4    1  0.4023583E+000  0.2727532E+03  0.7546771E-02  0.1099714E+00
         21   -1    0    0  501  502  0.00000000000E+00  0.00000000000E+00  0.12660382209E+03  0.12660382209E+03  0.00000000000E+00 0. -1.
         21   -1    0    0  502  503 -0.00000000000E+00 -0.00000000000E+00 -0.66686275181E+03  0.66686275181E+03  0.00000000000E+00 0. -1.
          6    1    1    2  501    0 -0.16053933258E+03 -0.13672034467E+03 -0.40689395280E+03  0.48985407906E+03  0.17300000000E+03 0. -1.
         -6    1    1    2    0  503  0.16053933258E+03  0.13672034467E+03 -0.13336497692E+03  0.30361249484E+03  0.17300000000E+03 0. -1.
<mgrwt>
<rscale>  2 0.27275324E+03</rscale>
<asrwt>0</asrwt>
<pdfrwt beam="1">  1       21 0.19477512E-01 0.27275324E+03</pdfrwt>
<pdfrwt beam="2">  1       21 0.10259427E+00 0.27275324E+03</pdfrwt>
<totfact> 0.17922037E+04</totfact>
</mgrwt>
</event>
<event>
 4    1  0.4023583E+000  0.3270867E+03  0.7546771E-02  0.1072433E+00
         21   -1    0    0  501  502  0.00000000000E+00  0.00000000000E+00  0.15008635535E+04  0.15008635535E+04  0.00000000000E+00 0.  1.
         21   -1    0    0  502  503 -0.00000000000E+00 -0.00000000000E+00 -0.25167321003E+03  0.25167321003E+03  0.00000000000E+00 0.  1.
          6    1    1    2  501    0 -0.21321891121E+03  0.17774822973E+03  0.13664610313E+04  0.14050628055E+04  0.17300000000E+03 0.  1.
         -6    1    1    2    0  503  0.21321891121E+03 -0.17774822973E+03 -0.11727068786E+03  0.34747395802E+03  0.17300000000E+03 0.  1.
<mgrwt>
<rscale>  2 0.32708674E+03</rscale>
<asrwt>0</asrwt>
<pdfrwt beam="1">  1       21 0.23090208E+00 0.32708674E+03</pdfrwt>
<pdfrwt beam="2">  1       21 0.38718956E-01 0.32708674E+03</pdfrwt>
<totfact> 0.48778214E+02</totfact>
</mgrwt>
</event>
<event>
 4    1  0.4023583E+000  0.1736367E+03  0.7546771E-02  0.1174108E+00
         21   -1    0    0  503  502  0.00000000000E+00  0.00000000000E+00  0.39248608997E+03  0.39248608997E+03  0.00000000000E+00 0.  1.
         21   -1    0    0  501  503 -0.00000000000E+00 -0.00000000000E+00 -0.24820930998E+03  0.24820930998E+03  0.00000000000E+00 0.  1.
          6    1    1    2  501    0  0.14289439308E+02  0.40630072541E+01 -0.19406154509E+03  0.26040272538E+03  0.17300000000E+03 0.  1.
         -6    1    1    2    0  502 -0.14289439308E+02 -0.40630072541E+01  0.33833832508E+03  0.38029267456E+03  0.17300000000E+03 0.  1.
<mgrwt>
<rscale>  2 0.17363668E+03</rscale>
<asrwt>0</asrwt>
<pdfrwt beam="1">  1       21 0.60382475E-01 0.17363668E+03</pdfrwt>
<pdfrwt beam="2">  1       21 0.38186048E-01 0.17363668E+03</pdfrwt>
<totfact> 0.17107718E+04</totfact>
</mgrwt>
</event>
<event>
 4    1  0.4023583E+000  0.1977106E+03  0.7546771E-02  0.1151685E+00
         21   -1    0    0  501  502  0.00000000000E+00  0.00000000000E+00  0.29450710320E+03  0.29450710320E+03  0.00000000000E+00 0. -1.
         21   -1    0    0  502  503 -0.00000000000E+00 -0.00000000000E+00 -0.35528910091E+03  0.35528910091E+03  0.00000000000E+00 0. -1.
          6    1    1    2  501    0  0.51227910284E+02 -0.80846620613E+02  0.22675537918E+03  0.30084460581E+03  0.17300000000E+03 0. -1.
         -6    1    1    2    0  503 -0.51227910284E+02  0.80846620613E+02 -0.28753737688E+03  0.34895159831E+03  0.17300000000E+03 0. -1.
<mgrwt>
<rscale>  2 0.19771058E+03</rscale>
<asrwt>0</asrwt>
<pdfrwt beam="1">  1       21 0.45308785E-01 0.19771058E+03</pdfrwt>
<pdfrwt beam="2">  1       21 0.54659862E-01 0.19771058E+03</pdfrwt>
<totfact> 0.14719248E+04</totfact>
</mgrwt>
</event>
<event>
 4    1  0.4023583E+000  0.2510361E+03  0.7546771E-02  0.1112652E+00
         21   -1    0    0  503  502  0.00000000000E+00  0.00000000000E+00  0.13835135320E+04  0.13835135320E+04  0.00000000000E+00 0.  1.
         21   -1    0    0  501  503 -0.00000000000E+00 -0.00000000000E+00 -0.28726184402E+03  0.28726184402E+03  0.00000000000E+00 0. -1.
          6    1    1    2  501    0 -0.16782611133E+03  0.70175009989E+02 -0.21817270445E+03  0.33259354269E+03  0.17300000000E+03 0. -1.
         -6    1    1    2    0  502  0.16782611133E+03 -0.70175009989E+02  0.13144243924E+04  0.13381818333E+04  0.17300000000E+03 0.  1.
<mgrwt>
<rscale>  2 0.25103612E+03</rscale>
<asrwt>0</asrwt>
<pdfrwt beam="1">  1       21 0.21284823E+00 0.25103612E+03</pdfrwt>
<pdfrwt beam="2">  1       21 0.44194131E-01 0.25103612E+03</pdfrwt>
<totfact> 0.51388033E+02</totfact>
</mgrwt>
</event>
<event>
 4    1  0.4023583E+000  0.2020402E+03  0.7546771E-02  0.1148029E+00
         21   -1    0    0  503  502  0.00000000000E+00  0.00000000000E+00  0.60310660192E+02  0.60310660192E+02  0.00000000000E+00 0.  1.
         21   -1    0    0  501  503 -0.00000000000E+00 -0.00000000000E+00 -0.69436286612E+03  0.69436286612E+03  0.00000000000E+00 0. -1.
          6    1    1    2  501    0  0.61667498830E+02  0.84192479684E+02 -0.25707138948E+03  0.32696475855E+03  0.17300000000E+03 0. -1.
         -6    1    1    2    0  502 -0.61667498830E+02 -0.84192479684E+02 -0.37698081645E+03  0.42770876776E+03  0.17300000000E+03 0. -1.
<mgrwt>
<rscale>  2 0.20204023E+03</rscale>
<asrwt>0</asrwt>
<pdfrwt beam="1">  1       21 0.92785627E-02 0.20204023E+03</pdfrwt>
<pdfrwt beam="2">  1       21 0.10682506E+00 0.20204023E+03</pdfrwt>
<totfact> 0.64604347E+04</totfact>
</mgrwt>
</event>
<event>
 4    1  0.4023583E+000  0.2410767E+03  0.7546771E-02  0.1119078E+00
         21   -1    0    0  501  502  0.00000000000E+00  0.00000000000E+00  0.27962759377E+03  0.27962759377E+03  0.00000000000E+00 0. -1.
         21   -1    0    0  502  503 -0.00000000000E+00 -0.00000000000E+00 -0.31013550135E+03  0.31013550135E+03  0.00000000000E+00 0. -1.
          6    1    1    2  501    0 -0.16763398518E+03 -0.93701030901E+01  0.15410141299E+03  0.28612094874E+03  0.17300000000E+03 0. -1.
         -6    1    1    2    0  503  0.16763398518E+03  0.93701030901E+01 -0.18460932058E+03  0.30364214639E+03  0.17300000000E+03 0. -1.
<mgrwt>
<rscale>  2 0.24107665E+03</rscale>
<asrwt>0</asrwt>
<pdfrwt beam="1">  1       21 0.43019630E-01 0.24107665E+03</pdfrwt>
<pdfrwt beam="2">  1       21 0.47713154E-01 0.24107665E+03</pdfrwt>
<totfact> 0.21249462E+04</totfact>
</mgrwt>
</event>
<event>
 4    1  0.4023583E+000  0.1943557E+03  0.7546771E-02  0.1154590E+00
         21   -1    0    0  503  502  0.00000000000E+00  0.00000000000E+00  0.11795013728E+03  0.11795013728E+03  0.00000000000E+00 0. -1.
         21   -1    0    0  501  503 -0.00000000000E+00 -0.00000000000E+00 -0.40535175740E+03  0.40535175740E+03  0.00000000000E+00 0. -1.
          6    1    1    2  501    0 -0.73657015671E+02 -0.49191313660E+02 -0.23816498745E+02  0.19580951690E+03  0.17300000000E+03 0. -1.
         -6    1    1    2    0  502  0.73657015671E+02  0.49191313660E+02 -0.26358512137E+03  0.32749237778E+03  0.17300000000E+03 0. -1.
<mgrwt>
<rscale>  2 0.19435571E+03</rscale>
<asrwt>0</asrwt>
<pdfrwt beam="1">  1       21 0.18146175E-01 0.19435571E+03</pdfrwt>
<pdfrwt beam="2">  1       21 0.62361808E-01 0.19435571E+03</pdfrwt>
<totfact> 0.65902217E+04</totfact>
</mgrwt>
</event>
<event>
 4    1  0.4023583E+000  0.1833619E+03  0.7546771E-02  0.1164588E+00
         21   -1    0    0  503  502  0.00000000000E+00  0.00000000000E+00  0.31400149428E+03  0.31400149428E+03  0.00000000000E+00 0.  1.
         21   -1    0    0  501  503 -0.00000000000E+00 -0.00000000000E+00 -0.11631948089E+03  0.11631948089E+03  0.00000000000E+00 0.  1.
          6    1    1    2  501    0 -0.34082368183E+02 -0.50308998576E+02  0.38183361138E+02  0.18729541432E+03  0.17300000000E+03 0.  1.
         -6    1    1    2    0  502  0.34082368183E+02  0.50308998576E+02  0.15949865225E+03  0.24302556086E+03  0.17300000000E+03 0.  1.
<mgrwt>
<rscale>  2 0.18336195E+03</rscale>
<asrwt>0</asrwt>
<pdfrwt beam="1">  1       21 0.48307922E-01 0.18336195E+03</pdfrwt>
<pdfrwt beam="2">  1       21 0.17895305E-01 0.18336195E+03</pdfrwt>
<totfact> 0.11655287E+05</totfact>
</mgrwt>
</event>
<event>
 4    1  0.4023583E+000  0.2840153E+03  0.7546771E-02  0.1093516E+00
         21   -1    0    0  501  502  0.00000000000E+00  0.00000000000E+00  0.52152772716E+03  0.52152772716E+03  0.00000000000E+00 0.  1.
         21   -1    0    0  502  503 -0.00000000000E+00 -0.00000000000E+00 -0.37309628581E+03  0.37309628581E+03  0.00000000000E+00 0.  1.
          6    1    1    2  501    0  0.18938281938E+02  0.22444833237E+03  0.41647285292E+03  0.50409755965E+03  0.17300000000E+03 0.  1.
         -6    1    1    2    0  503 -0.18938281938E+02 -0.22444833237E+03 -0.26804141157E+03  0.39052645332E+03  0.17300000000E+03 0.  1.
<mgrwt>
<rscale>  2 0.28401534E+03</rscale>
<asrwt>0</asrwt>
<pdfrwt beam="1">  1       21 0.80235035E-01 0.28401534E+03</pdfrwt>
<pdfrwt beam="2">  1       21 0.57399429E-01 0.28401534E+03</pdfrwt>
<totfact> 0.36548684E+03</totfact>
</mgrwt>
</event>
<event>
 4    1  0.4023583E+000  0.1940123E+03  0.7546771E-02  0.1154891E+00
         21   -1    0    0  503  502  0.00000000000E+00  0.00000000000E+00  0.11431530928E+03  0.11431530928E+03  0.00000000000E+00 0.  1.
         21   -1    0    0  501  503 -0.00000000000E+00 -0.00000000000E+00 -0.60580858591E+03  0.60580858591E+03  0.00000000000E+00 0.  1.
          6    1    1    2  501    0 -0.66785528559E+01  0.87562399441E+02 -0.24779681117E+01  0.19402813505E+03  0.17300000000E+03 0.  1.
         -6    1    1    2    0  502  0.66785528559E+01 -0.87562399441E+02 -0.48901530852E+03  0.52609576014E+03  0.17300000000E+03 0.  1.
<mgrwt>
<rscale>  2 0.19401231E+03</rscale>
<asrwt>0</asrwt>
<pdfrwt beam="1">  1       21 0.17586971E-01 0.19401231E+03</pdfrwt>
<pdfrwt beam="2">  1       21 0.93201320E-01 0.19401231E+03</pdfrwt>
<totfact> 0.28366378E+04</totfact>
</mgrwt>
</event>
<event>
 4    1  0.4023583E+000  0.1980705E+03  0.7546771E-02  0.1151377E+00
         21   -1    0    0  501  502  0.00000000000E+00  0.00000000000E+00  0.66753490027E+03  0.66753490027E+03  0.00000000000E+00 0. -1.
         21   -1    0    0  502  503 -0.00000000000E+00 -0.00000000000E+00 -0.66599583953E+02  0.66599583953E+02  0.00000000000E+00 0.  1.
          6    1    1    2  501    0  0.59054521805E+02 -0.76259431606E+02  0.17462109911E+03  0.26405390682E+03  0.17300000000E+03 0.  1.
         -6    1    1    2    0  503 -0.59054521805E+02  0.76259431606E+02  0.42631421721E+03  0.47008057740E+03  0.17300000000E+03 0. -1.
<mgrwt>
<rscale>  2 0.19807054E+03</rscale>
<asrwt>0</asrwt>
<pdfrwt beam="1">  1       21 0.10269767E+00 0.19807054E+03</pdfrwt>
<pdfrwt beam="2">  1       21 0.10246090E-01 0.19807054E+03</pdfrwt>
<totfact> 0.59729782E+04</totfact>
</mgrwt>
</event>
<event>
 4    1  0.4023583E+000  0.1960238E+03  0.7546771E-02  0.1153138E+00
         21   -1    0    0  501  502  0.00000000000E+00  0.00000000000E+00  0.50606194138E+03  0.50606194138E+03  0.00000000000E+00 0.  1.
         21   -1    0    0  502  503 -0.00000000000E+00 -0.00000000000E+00 -0.95885634978E+02  0.95885634978E+02  0.00000000000E+00 0.  1.
          6    1    1    2  501    0  0.75006532260E+02 -0.53575612343E+02  0.34239233143E+03  0.39453496010E+03  0.17300000000E+03 0.  1.
         -6    1    1    2    0  503 -0.75006532260E+02  0.53575612343E+02  0.67783974972E+02  0.20741261626E+03  0.17300000000E+03 0.  1.
<mgrwt>
<rscale>  2 0.19602379E+03</rscale>
<asrwt>0</asrwt>
<pdfrwt beam="1">  1       21 0.77855682E-01 0.19602379E+03</pdfrwt>
<pdfrwt beam="2">  1       21 0.14751636E-01 0.19602379E+03</pdfrwt>
<totfact> 0.59036356E+04</totfact>
</mgrwt>
</event>
<event>
 4    1  0.4023583E+000  0.1950908E+03  0.7546771E-02  0.1153948E+00
         21   -1    0    0  503  502  0.00000000000E+00  0.00000000000E+00  0.43442256843E+03  0.43442256843E+03  0.00000000000E+00 0.  1.
         21   -1    0    0  501  503 -0.00000000000E+00 -0.00000000000E+00 -0.14311653626E+03  0.14311653626E+03  0.00000000000E+00 0. -1.
          6    1    1    2  501    0  0.81746219556E+02  0.38065388129E+02 -0.34181329378E+02  0.19806256957E+03  0.17300000000E+03 0. -1.
         -6    1    1    2    0  502 -0.81746219556E+02 -0.38065388129E+02  0.32548736155E+03  0.37947653513E+03  0.17300000000E+03 0.  1.
<mgrwt>
<rscale>  2 0.19509079E+03</rscale>
<asrwt>0</asrwt>
<pdfrwt beam="1">  1       21 0.66834241E-01 0.19509079E+03</pdfrwt>
<pdfrwt beam="2">  1       21 0.22017929E-01 0.19509079E+03</pdfrwt>
<totfact> 0.39483399E+04</totfact>
</mgrwt>
</event>
<event>
 4    1  0.4023583E+000  0.1979952E+03  0.7546771E-02  0.1151442E+00
         21   -1    0    0  501  502  0.00000000000E+00  0.00000000000E+00  0.13275856758E+03  0.13275856758E+03  0.00000000000E+00 0.  1.
         21   -1    0    0  502  503 -0.00000000000E+00 -0.00000000000E+00 -0.29650377279E+03  0.29650377279E+03  0.00000000000E+00 0.  1.
          6    1    1    2  501    0  0.80685887687E+02 -0.52563342456E+02 -0.95611815578E+02  0.21987209173E+03  0.17300000000E+03 0.  1.
         -6    1    1    2    0  503 -0.80685887687E+02  0.52563342456E+02 -0.68133389629E+02  0.20939024864E+03  0.17300000000E+03 0.  1.
<mgrwt>
<rscale>  2 0.19799525E+03</rscale>
<asrwt>0</asrwt>
<pdfrwt beam="1">  1       21 0.20424395E-01 0.19799525E+03</pdfrwt>
<pdfrwt beam="2">  1       21 0.45615965E-01 0.19799525E+03</pdfrwt>
<totfact> 0.10205524E+05</totfact>
</mgrwt>
</event>
<event>
 4    1  0.4023583E+000  0.1757250E+03  0.7546771E-02  0.1172006E+00
         21   -1    0    0  501  502  0.00000000000E+00  0.00000000000E+00  0.72153352512E+02  0.72153352512E+02  0.00000000000E+00 0.  1.
         21   -1    0    0  502  503 -0.00000000000E+00 -0.00000000000E+00 -0.53258825124E+03  0.53258825124E+03  0.00000000000E+00 0.  1.
          6    1    1    2  501    0  0.30163129646E+02  0.63622472261E+01 -0.96202606792E+02  0.20033530426E+03  0.17300000000E+03 0.  1.
         -6    1    1    2    0  503 -0.30163129646E+02 -0.63622472261E+01 -0.36423229194E+03  0.40440629949E+03  0.17300000000E+03 0.  1.
<mgrwt>
<rscale>  2 0.17572505E+03</rscale>
<asrwt>0</asrwt>
<pdfrwt beam="1">  1       21 0.11100516E-01 0.17572505E+03</pdfrwt>
<pdfrwt beam="2">  1       21 0.81936655E-01 0.17572505E+03</pdfrwt>
<totfact> 0.88471801E+04</totfact>
</mgrwt>
</event>
<event>
 4    1  0.4023583E+000  0.2129928E+03  0.7546771E-02  0.1139218E+00
         21   -1    0    0  501  502  0.00000000000E+00  0.00000000000E+00  0.65748124857E+03  0.65748124857E+03  0.00000000000E+00 0.  1.
         21   -1    0    0  502  503 -0.00000000000E+00 -0.00000000000E+00 -0.15016174842E+03  0.15016174842E+03  0.00000000000E+00 0.  1.
          6    1    1    2  501    0  0.10338128987E+03 -0.68914650769E+02  0.55054364471E+03  0.59030858448E+03  0.17300000000E+03 0.  1.
         -6    1    1    2    0  503 -0.10338128987E+03  0.68914650769E+02 -0.43224144552E+02  0.21733441250E+03  0.17300000000E+03 0.  1.
<mgrwt>
<rscale>  2 0.21299277E+03</rscale>
<asrwt>0</asrwt>
<pdfrwt beam="1">  1       21 0.10115096E+00 0.21299277E+03</pdfrwt>
<pdfrwt beam="2">  1       21 0.23101808E-01 0.21299277E+03</pdfrwt>
<totfact> 0.13875243E+04</totfact>
</mgrwt>
</event>
<event>
 4    1  0.4023583E+000  0.2166551E+03  0.7546771E-02  0.1136402E+00
         21   -1    0    0  501  502  0.00000000000E+00  0.00000000000E+00  0.36276219286E+02  0.36276219286E+02  0.00000000000E+00 0. -1.
         21   -1    0    0  502  503 -0.00000000000E+00 -0.00000000000E+00 -0.14624738979E+04  0.14624738979E+04  0.00000000000E+00 0. -1.
          6    1    1    2  501    0  0.12902644286E+03 -0.19042302720E+02 -0.96748435172E+03  0.99144611708E+03  0.17300000000E+03 0. -1.
         -6    1    1    2    0  503 -0.12902644286E+03  0.19042302720E+02 -0.45871332685E+03  0.50730400006E+03  0.17300000000E+03 0. -1.
<mgrwt>
<rscale>  2 0.21665510E+03</rscale>
<asrwt>0</asrwt>
<pdfrwt beam="1">  1       21 0.55809570E-02 0.21665510E+03</pdfrwt>
<pdfrwt beam="2">  1       21 0.22499598E+00 0.21665510E+03</pdfrwt>
<totfact> 0.20533805E+04</totfact>
</mgrwt>
</event>
<event>
 4    1  0.4023583E+000  0.2168563E+03  0.7546771E-02  0.1136249E+00
         21   -1    0    0  501  502  0.00000000000E+00  0.00000000000E+00  0.29792743872E+03  0.29792743872E+03  0.00000000000E+00 0. -1.
         21   -1    0    0  502  503 -0.00000000000E+00 -0.00000000000E+00 -0.20150052498E+03  0.20150052498E+03  0.00000000000E+00 0.  1.
          6    1    1    2  501    0  0.11541263450E+03 -0.61462040598E+02  0.16444374999E+03  0.27215511303E+03  0.17300000000E+03 0. -1.
         -6    1    1    2    0  503 -0.11541263450E+03  0.61462040598E+02 -0.68016836255E+02  0.22727285067E+03  0.17300000000E+03 0.  1.
<mgrwt>
<rscale>  2 0.21685631E+03</rscale>
<asrwt>0</asrwt>
<pdfrwt beam="1">  1       21 0.45834990E-01 0.21685631E+03</pdfrwt>
<pdfrwt beam="2">  1       21 0.31000081E-01 0.21685631E+03</pdfrwt>
<totfact> 0.45070115E+04</totfact>
</mgrwt>
</event>
<event>
 4    1  0.4023583E+000  0.1891652E+03  0.7546771E-02  0.1159216E+00
         21   -1    0    0  503  502  0.00000000000E+00  0.00000000000E+00  0.82170563467E+03  0.82170563467E+03  0.00000000000E+00 0. -1.
         21   -1    0    0  501  503 -0.00000000000E+00 -0.00000000000E+00 -0.44595776516E+02  0.44595776516E+02  0.00000000000E+00 0. -1.
          6    1    1    2  501    0 -0.24714572883E+02 -0.72413189072E+02  0.45495462087E+03  0.49271410282E+03  0.17300000000E+03 0. -1.
         -6    1    1    2    0  502  0.24714572883E+02  0.72413189072E+02  0.32215523729E+03  0.37358730837E+03  0.17300000000E+03 0. -1.
<mgrwt>
<rscale>  2 0.18916522E+03</rscale>
<asrwt>0</asrwt>
<pdfrwt beam="1">  1       21 0.12641624E+00 0.18916522E+03</pdfrwt>
<pdfrwt beam="2">  1       21 0.68608893E-02 0.18916522E+03</pdfrwt>
<totfact> 0.72744336E+04</totfact>
</mgrwt>
</event>
<event>
 4    1  0.4023583E+000  0.1932098E+03  0.7546771E-02  0.1155598E+00
         21   -1    0    0  503  502  0.00000000000E+00  0.00000000000E+00  0.83319800340E+02  0.83319800340E+02  0.00000000000E+00 0. -1.
         21   -1    0    0  501  503 -0.00000000000E+00 -0.00000000000E+00 -0.44821809296E+03  0.44821809296E+03  0.00000000000E+00 0.  1.
          6    1    1    2  501    0  0.57553009875E+02  0.63942669487E+02 -0.17704730930E+03  0.26206061065E+03  0.17300000000E+03 0. -1.
         -6    1    1    2    0  502 -0.57553009875E+02 -0.63942669487E+02 -0.18785098332E+03  0.26947728264E+03  0.17300000000E+03 0. -1.
<mgrwt>
<rscale>  2 0.19320977E+03</rscale>
<asrwt>0</asrwt>
<pdfrwt beam="1">  1       21 0.12818431E-01 0.19320977E+03</pdfrwt>
<pdfrwt beam="2">  1       21 0.68956630E-01 0.19320977E+03</pdfrwt>
<totfact> 0.99831282E+04</totfact>
</mgrwt>
</event>
<event>
 4    1  0.4023583E+000  0.1767762E+03  0.7546771E-02  0.1170960E+00
         21   -1    0    0  503  502  0.00000000000E+00  0.00000000000E+00  0.19485800231E+03  0.19485800231E+03  0.00000000000E+00 0.  1.
         21   -1    0    0  501  503 -0.00000000000E+00 -0.00000000000E+00 -0.33185940830E+03  0.33185940830E+03  0.00000000000E+00 0.  1.
          6    1    1    2  501    0 -0.83391595281E+01  0.35373533289E+02  0.12081486727E+03  0.21411693205E+03  0.17300000000E+03 0.  1.
         -6    1    1    2    0  502  0.83391595281E+01 -0.35373533289E+02 -0.25781627326E+03  0.31260047856E+03  0.17300000000E+03 0.  1.
<mgrwt>
<rscale>  2 0.17677621E+03</rscale>
<asrwt>0</asrwt>
<pdfrwt beam="1">  1       21 0.29978154E-01 0.17677621E+03</pdfrwt>
<pdfrwt beam="2">  1       21 0.51055294E-01 0.17677621E+03</pdfrwt>
<totfact> 0.39241851E+04</totfact>
</mgrwt>
</event>
<event>
 4    1  0.4023583E+000  0.2410090E+03  0.7546771E-02  0.1119122E+00
         21   -1    0    0  501  502  0.00000000000E+00  0.00000000000E+00  0.88856494783E+03  0.88856494783E+03  0.00000000000E+00 0. -1.
         21   -1    0    0  502  503 -0.00000000000E+00 -0.00000000000E+00 -0.72725149378E+02  0.72725149378E+02  0.00000000000E+00 0. -1.
          6    1    1    2  501    0  0.65235267454E+02 -0.15459847121E+03  0.25506360257E+03  0.35091703973E+03  0.17300000000E+03 0. -1.
         -6    1    1    2    0  503 -0.65235267454E+02  0.15459847121E+03  0.56077619588E+03  0.61037305747E+03  0.17300000000E+03 0. -1.
<mgrwt>
<rscale>  2 0.24100898E+03</rscale>
<asrwt>0</asrwt>
<pdfrwt beam="1">  1       21 0.13670229E+00 0.24100898E+03</pdfrwt>
<pdfrwt beam="2">  1       21 0.11188485E-01 0.24100898E+03</pdfrwt>
<totfact> 0.24593169E+04</totfact>
</mgrwt>
</event>
<event>
 4    1  0.4023583E+000  0.2376890E+03  0.7546771E-02  0.1121342E+00
         21   -1    0    0  503  502  0.00000000000E+00  0.00000000000E+00  0.16716796556E+03  0.16716796556E+03  0.00000000000E+00 0.  1.
         21   -1    0    0  501  503 -0.00000000000E+00 -0.00000000000E+00 -0.33824908728E+03  0.33824908728E+03  0.00000000000E+00 0. -1.
          6    1    1    2  501    0 -0.72166299896E+02  0.14614744605E+03 -0.78150084343E+02  0.25020688741E+03  0.17300000000E+03 0.  1.
         -6    1    1    2    0  502  0.72166299896E+02 -0.14614744605E+03 -0.92931037380E+02  0.25521016542E+03  0.17300000000E+03 0. -1.
<mgrwt>
<rscale>  2 0.23768898E+03</rscale>
<asrwt>0</asrwt>
<pdfrwt beam="1">  1       21 0.25718149E-01 0.23768898E+03</pdfrwt>
<pdfrwt beam="2">  1       21 0.52038321E-01 0.23768898E+03</pdfrwt>
<totfact> 0.49261446E+04</totfact>
</mgrwt>
</event>
<event>
 4    1  0.4023583E+000  0.1764355E+03  0.7546771E-02  0.1171298E+00
         21   -1    0    0  503  502  0.00000000000E+00  0.00000000000E+00  0.33683676909E+03  0.33683676909E+03  0.00000000000E+00 0. -1.
         21   -1    0    0  501  503 -0.00000000000E+00 -0.00000000000E+00 -0.72777876555E+03  0.72777876555E+03  0.00000000000E+00 0. -1.
          6    1    1    2  501    0  0.18221270602E+02  0.29469630551E+02 -0.69283416668E+03  0.71494661084E+03  0.17300000000E+03 0. -1.
         -6    1    1    2    0  502 -0.18221270602E+02 -0.29469630551E+02  0.30189217022E+03  0.34966892380E+03  0.17300000000E+03 0. -1.
<mgrwt>
<rscale>  2 0.17643547E+03</rscale>
<asrwt>0</asrwt>
<pdfrwt beam="1">  1       21 0.51821041E-01 0.17643547E+03</pdfrwt>
<pdfrwt beam="2">  1       21 0.11196596E+00 0.17643547E+03</pdfrwt>
<totfact> 0.22459924E+03</totfact>
</mgrwt>
</event>
<event>
 4    1  0.4023583E+000  0.2005882E+03  0.7546771E-02  0.1149244E+00
         21   -1    0    0  503  502  0.00000000000E+00  0.00000000000E+00  0.50598457211E+02  0.50598457211E+02  0.00000000000E+00 0.  1.
         21   -1    0    0  501  503 -0.00000000000E+00 -0.00000000000E+00 -0.11986803578E+04  0.11986803578E+04  0.00000000000E+00 0.  1.
          6    1    1    2  501    0 -0.12141784014E+02  0.10079291348E+03 -0.93644382761E+03  0.95768610547E+03  0.17300000000E+03 0.  1.
         -6    1    1    2    0  502  0.12141784014E+02 -0.10079291348E+03 -0.21163807298E+03  0.29159270955E+03  0.17300000000E+03 0.  1.
<mgrwt>
<rscale>  2 0.20058822E+03</rscale>
<asrwt>0</asrwt>
<pdfrwt beam="1">  1       21 0.77843787E-02 0.20058822E+03</pdfrwt>
<pdfrwt beam="2">  1       21 0.18441235E+00 0.20058822E+03</pdfrwt>
<totfact> 0.21257270E+04</totfact>
</mgrwt>
</event>
<event>
 4    1  0.4023583E+000  0.2487453E+03  0.7546771E-02  0.1114100E+00
         21   -1    0    0  501  502  0.00000000000E+00  0.00000000000E+00  0.15797846039E+03  0.15797846039E+03  0.00000000000E+00 0. -1.
         21   -1    0    0  502  503 -0.00000000000E+00 -0.00000000000E+00 -0.94404392217E+03  0.94404392217E+03  0.00000000000E+00 0. -1.
          6    1    1    2  501    0 -0.17823145272E+03  0.13370502025E+02  0.28453988769E+02  0.25036743107E+03  0.17300000000E+03 0. -1.
         -6    1    1    2    0  503  0.17823145272E+03 -0.13370502025E+02 -0.81451945056E+03  0.85165495149E+03  0.17300000000E+03 0. -1.
<mgrwt>
<rscale>  2 0.24874529E+03</rscale>
<asrwt>0</asrwt>
<pdfrwt beam="1">  1       21 0.24304379E-01 0.24874529E+03</pdfrwt>
<pdfrwt beam="2">  1       21 0.14523752E+00 0.24874529E+03</pdfrwt>
<totfact> 0.49838651E+03</totfact>
</mgrwt>
</event>
<event>
 4    1  0.4023583E+000  0.2029577E+03  0.7546771E-02  0.1147267E+00
         21   -1    0    0  503  502  0.00000000000E+00  0.00000000000E+00  0.19719272666E+03  0.19719272666E+03  0.00000000000E+00 0. -1.
         21   -1    0    0  501  503 -0.00000000000E+00 -0.00000000000E+00 -0.28852022677E+03  0.28852022677E+03  0.00000000000E+00 0. -1.
          6    1    1    2  501    0  0.10483238910E+03 -0.16522151004E+02  0.81920614678E+02  0.21886707927E+03  0.17300000000E+03 0. -1.
         -6    1    1    2    0  502 -0.10483238910E+03  0.16522151004E+02 -0.17324811479E+03  0.26684587416E+03  0.17300000000E+03 0. -1.
<mgrwt>
<rscale>  2 0.20295766E+03</rscale>
<asrwt>0</asrwt>
<pdfrwt beam="1">  1       21 0.30337343E-01 0.20295766E+03</pdfrwt>
<pdfrwt beam="2">  1       21 0.44387727E-01 0.20295766E+03</pdfrwt>
<totfact> 0.50560943E+04</totfact>
</mgrwt>
</event>
<event>
 4    1  0.4023583E+000  0.2049151E+03  0.7546771E-02  0.1145657E+00
         21   -1    0    0  503  502  0.00000000000E+00  0.00000000000E+00  0.18665205890E+03  0.18665205890E+03  0.00000000000E+00 0.  1.
         21   -1    0    0  501  503 -0.00000000000E+00 -0.00000000000E+00 -0.24954303579E+03  0.24954303579E+03  0.00000000000E+00 0.  1.
          6    1    1    2  501    0 -0.57151428978E+02 -0.93781258108E+02  0.37000851729E+02  0.20822889625E+03  0.17300000000E+03 0.  1.
         -6    1    1    2    0  502  0.57151428978E+02  0.93781258108E+02 -0.99891828611E+02  0.22796619844E+03  0.17300000000E+03 0.  1.
<mgrwt>
<rscale>  2 0.20491513E+03</rscale>
<asrwt>0</asrwt>
<pdfrwt beam="1">  1       21 0.28715701E-01 0.20491513E+03</pdfrwt>
<pdfrwt beam="2">  1       21 0.38391236E-01 0.20491513E+03</pdfrwt>
<totfact> 0.75505662E+04</totfact>
</mgrwt>
</event>
<event>
 4    1  0.4023583E+000  0.1902025E+03  0.7546771E-02  0.1158279E+00
         21   -1    0    0  503  502  0.00000000000E+00  0.00000000000E+00  0.22430402357E+03  0.22430402357E+03  0.00000000000E+00 0. -1.
         21   -1    0    0  501  503 -0.00000000000E+00 -0.00000000000E+00 -0.19707786593E+03  0.19707786593E+03  0.00000000000E+00 0.  1.
          6    1    1    2  501    0  0.28629356456E+02 -0.73677457793E+02 -0.76175598495E+02  0.20488955475E+03  0.17300000000E+03 0. -1.
         -6    1    1    2    0  502 -0.28629356456E+02  0.73677457793E+02  0.10340175613E+03  0.21649233476E+03  0.17300000000E+03 0. -1.
<mgrwt>
<rscale>  2 0.19020254E+03</rscale>
<asrwt>0</asrwt>
<pdfrwt beam="1">  1       21 0.34508311E-01 0.19020254E+03</pdfrwt>
<pdfrwt beam="2">  1       21 0.30319672E-01 0.19020254E+03</pdfrwt>
<totfact> 0.84564178E+04</totfact>
</mgrwt>
</event>
<event>
 4    1  0.4023583E+000  0.1825326E+03  0.7546771E-02  0.1165374E+00
         21   -1    0    0  503  502  0.00000000000E+00  0.00000000000E+00  0.68152691861E+02  0.68152691861E+02  0.00000000000E+00 0. -1.
         21   -1    0    0  501  503 -0.00000000000E+00 -0.00000000000E+00 -0.52353077356E+03  0.52353077356E+03  0.00000000000E+00 0. -1.
          6    1    1    2  501    0 -0.15503385112E+02 -0.56114132616E+02 -0.15157306879E+03  0.23726050243E+03  0.17300000000E+03 0. -1.
         -6    1    1    2    0  502  0.15503385112E+02  0.56114132616E+02 -0.30380501291E+03  0.35442296299E+03  0.17300000000E+03 0. -1.
<mgrwt>
<rscale>  2 0.18253260E+03</rscale>
<asrwt>0</asrwt>
<pdfrwt beam="1">  1       21 0.10485029E-01 0.18253260E+03</pdfrwt>
<pdfrwt beam="2">  1       21 0.80543197E-01 0.18253260E+03</pdfrwt>
<totfact> 0.10147377E+05</totfact>
</mgrwt>
</event>
<event>
 4    1  0.4023583E+000  0.1966580E+03  0.7546771E-02  0.1152590E+00
         21   -1    0    0  501  502  0.00000000000E+00  0.00000000000E+00  0.74659408644E+03  0.74659408644E+03  0.00000000000E+00 0. -1.
         21   -1    0    0  502  503 -0.00000000000E+00 -0.00000000000E+00 -0.74130489132E+02  0.74130489132E+02  0.00000000000E+00 0.  1.
          6    1    1    2  501    0  0.88110020551E+02 -0.31337005903E+02  0.56145212188E+03  0.59489735990E+03  0.17300000000E+03 0. -1.
         -6    1    1    2    0  503 -0.88110020551E+02  0.31337005903E+02  0.11101147544E+03  0.22582721567E+03  0.17300000000E+03 0. -1.
<mgrwt>
<rscale>  2 0.19665804E+03</rscale>
<asrwt>0</asrwt>
<pdfrwt beam="1">  1       21 0.11486062E+00 0.19665804E+03</pdfrwt>
<pdfrwt beam="2">  1       21 0.11404691E-01 0.19665804E+03</pdfrwt>
<totfact> 0.37702808E+04</totfact>
</mgrwt>
</event>
<event>
 4    1  0.4023583E+000  0.2302558E+03  0.7546771E-02  0.1126460E+00
         21   -1    0    0  503  502  0.00000000000E+00  0.00000000000E+00  0.93369253014E+02  0.93369253014E+02  0.00000000000E+00 0.  1.
         21   -1    0    0  501  503 -0.00000000000E+00 -0.00000000000E+00 -0.62208326184E+03  0.62208326184E+03  0.00000000000E+00 0. -1.
          6    1    1    2  501    0  0.12780701851E+03 -0.82183436628E+02 -0.37000086813E+03  0.43579627540E+03  0.17300000000E+03 0. -1.
         -6    1    1    2    0  502 -0.12780701851E+03  0.82183436628E+02 -0.15871314070E+03  0.27965623945E+03  0.17300000000E+03 0. -1.
<mgrwt>
<rscale>  2 0.23025584E+03</rscale>
<asrwt>0</asrwt>
<pdfrwt beam="1">  1       21 0.14364501E-01 0.23025584E+03</pdfrwt>
<pdfrwt beam="2">  1       21 0.95705113E-01 0.23025584E+03</pdfrwt>
<totfact> 0.37896704E+04</totfact>
</mgrwt>
</event>
<event>
 4    1  0.4023583E+000  0.1796539E+03  0.7546771E-02  0.1168138E+00
         21   -1    0    0  501  502  0.00000000000E+00  0.00000000000E+00  0.61819206368E+03  0.61819206368E+03  0.00000000000E+00 0. -1.
         21   -1    0    0  502  503 -0.00000000000E+00 -0.00000000000E+00 -0.66414764313E+02  0.66414764313E+02  0.00000000000E+00 0. -1.
          6    1    1    2  501    0 -0.47237752957E+02 -0.10729429915E+02  0.43419666131E+03  0.46989601686E+03  0.17300000000E+03 0. -1.
         -6    1    1    2    0  503  0.47237752957E+02  0.10729429915E+02  0.11758063806E+03  0.21471081113E+03  0.17300000000E+03 0. -1.
<mgrwt>
<rscale>  2 0.17965391E+03</rscale>
<asrwt>0</asrwt>
<pdfrwt beam="1">  1       21 0.95106468E-01 0.17965391E+03</pdfrwt>
<pdfrwt beam="2">  1       21 0.10217656E-01 0.17965391E+03</pdfrwt>
<totfact> 0.72592472E+04</totfact>
</mgrwt>
</event>
<event>
 4    1  0.4023583E+000  0.2191066E+03  0.7546771E-02  0.1134551E+00
         21   -1    0    0  503  502  0.00000000000E+00  0.00000000000E+00  0.92111776386E+03  0.92111776386E+03  0.00000000000E+00 0. -1.
         21   -1    0    0  501  503 -0.00000000000E+00 -0.00000000000E+00 -0.90564641386E+02  0.90564641386E+02  0.00000000000E+00 0. -1.
          6    1    1    2  501    0  0.13442888085E+03 -0.27552345486E+01  0.74485481780E+03  0.77641252883E+03  0.17300000000E+03 0. -1.
         -6    1    1    2    0  502 -0.13442888085E+03  0.27552345486E+01  0.85698304671E+02  0.23526987641E+03  0.17300000000E+03 0. -1.
<mgrwt>
<rscale>  2 0.21910663E+03</rscale>
<asrwt>0</asrwt>
<pdfrwt beam="1">  1       21 0.14171042E+00 0.21910663E+03</pdfrwt>
<pdfrwt beam="2">  1       21 0.13933022E-01 0.21910663E+03</pdfrwt>
<totfact> 0.15277925E+04</totfact>
</mgrwt>
</event>
<event>
 4    1  0.4023583E+000  0.2116765E+03  0.7546771E-02  0.1140245E+00
         21   -1    0    0  501  502  0.00000000000E+00  0.00000000000E+00  0.30258361216E+03  0.30258361216E+03  0.00000000000E+00 0.  1.
         21   -1    0    0  502  503 -0.00000000000E+00 -0.00000000000E+00 -0.21196313060E+03  0.21196313060E+03  0.00000000000E+00 0.  1.
          6    1    1    2  501    0 -0.67226766978E+02  0.10177682147E+03  0.18654887870E+03  0.28214791108E+03  0.17300000000E+03 0. -1.
         -6    1    1    2    0  503  0.67226766978E+02 -0.10177682147E+03 -0.95928397130E+02  0.23239883167E+03  0.17300000000E+03 0. -1.
<mgrwt>
<rscale>  2 0.21167654E+03</rscale>
<asrwt>0</asrwt>
<pdfrwt beam="1">  1       21 0.46551325E-01 0.21167654E+03</pdfrwt>
<pdfrwt beam="2">  1       21 0.32609712E-01 0.21167654E+03</pdfrwt>
<totfact> 0.39609567E+04</totfact>
</mgrwt>
</event>
<event>
 4    1  0.4023583E+000  0.4047824E+03  0.7546771E-02  0.1042136E+00
         21   -1    0    0  501  502  0.00000000000E+00  0.00000000000E+00  0.25755090251E+03  0.25755090251E+03  0.00000000000E+00 0. -1.
         21   -1    0    0  502  503 -0.00000000000E+00 -0.00000000000E+00 -0.99022786402E+03  0.99022786402E+03  0.00000000000E+00 0.  1.
          6    1    1    2  501    0 -0.29206285355E+03  0.22049730132E+03  0.67148524510E+01  0.40483806585E+03  0.17300000000E+03 0. -1.
         -6    1    1    2    0  503  0.29206285355E+03 -0.22049730132E+03 -0.73939181396E+03  0.84294070068E+03  0.17300000000E+03 0.  1.
<mgrwt>
<rscale>  2 0.40478237E+03</rscale>
<asrwt>0</asrwt>
<pdfrwt beam="1">  1       21 0.39623215E-01 0.40478237E+03</pdfrwt>
<pdfrwt beam="2">  1       21 0.15234275E+00 0.40478237E+03</pdfrwt>
<totfact> 0.15288110E+03</totfact>
</mgrwt>
</event>
<event>
 4    1  0.4023583E+000  0.1866381E+03  0.7546771E-02  0.1161529E+00
         21   -1    0    0  501  502  0.00000000000E+00  0.00000000000E+00  0.15025442907E+03  0.15025442907E+03  0.00000000000E+00 0.  1.
         21   -1    0    0  502  503 -0.00000000000E+00 -0.00000000000E+00 -0.46393323885E+03  0.46393323885E+03  0.00000000000E+00 0.  1.
          6    1    1    2  501    0 -0.53510692613E+02  0.45181689445E+02  0.60371745438E+02  0.19615944263E+03  0.17300000000E+03 0.  1.
         -6    1    1    2    0  503  0.53510692613E+02 -0.45181689445E+02 -0.37405055521E+03  0.41802822529E+03  0.17300000000E+03 0.  1.
<mgrwt>
<rscale>  2 0.18663810E+03</rscale>
<asrwt>0</asrwt>
<pdfrwt beam="1">  1       21 0.23116066E-01 0.18663810E+03</pdfrwt>
<pdfrwt beam="2">  1       21 0.71374343E-01 0.18663810E+03</pdfrwt>
<totfact> 0.31306121E+04</totfact>
</mgrwt>
</event>
<event>
 4    1  0.4023583E+000  0.1865922E+03  0.7546771E-02  0.1161571E+00
         21   -1    0    0  503  502  0.00000000000E+00  0.00000000000E+00  0.37847662772E+02  0.37847662772E+02  0.00000000000E+00 0.  1.
         21   -1    0    0  501  503 -0.00000000000E+00 -0.00000000000E+00 -0.94949976067E+03  0.94949976067E+03  0.00000000000E+00 0.  1.
          6    1    1    2  501    0  0.50129962104E+02 -0.48730423489E+02 -0.36868557922E+03  0.41321389569E+03  0.17300000000E+03 0.  1.
         -6    1    1    2    0  502 -0.50129962104E+02  0.48730423489E+02 -0.54296651868E+03  0.57413352775E+03  0.17300000000E+03 0.  1.
<mgrwt>
<rscale>  2 0.18659225E+03</rscale>
<asrwt>0</asrwt>
<pdfrwt beam="1">  1       21 0.58227175E-02 0.18659225E+03</pdfrwt>
<pdfrwt beam="2">  1       21 0.14607688E+00 0.18659225E+03</pdfrwt>
<totfact> 0.66712922E+04</totfact>
</mgrwt>
</event>
<event>
 4    1  0.4023583E+000  0.1971455E+03  0.7546771E-02  0.1152170E+00
         21   -1    0    0  501  502  0.00000000000E+00  0.00000000000E+00  0.32806028858E+02  0.32806028858E+02  0.00000000000E+00 0.  1.
         21   -1    0    0  502  503 -0.00000000000E+00 -0.00000000000E+00 -0.14929683027E+04  0.14929683027E+04  0.00000000000E+00 0.  1.
          6    1    1    2  501    0  0.84235560639E+02 -0.42915045206E+02 -0.38344218098E+03  0.43115453951E+03  0.17300000000E+03 0.  1.
         -6    1    1    2    0  503 -0.84235560639E+02  0.42915045206E+02 -0.10767200928E+04  0.10946197920E+04  0.17300000000E+03 0.  1.
<mgrwt>
<rscale>  2 0.19714546E+03</rscale>
<asrwt>0</asrwt>
<pdfrwt beam="1">  1       21 0.50470816E-02 0.19714546E+03</pdfrwt>
<pdfrwt beam="2">  1       21 0.22968742E+00 0.19714546E+03</pdfrwt>
<totfact> 0.23169977E+04</totfact>
</mgrwt>
</event>
<event>
 4    1  0.4023583E+000  0.2434588E+03  0.7546771E-02  0.1117510E+00
         21   -1    0    0  503  502  0.00000000000E+00  0.00000000000E+00  0.18889091556E+03  0.18889091556E+03  0.00000000000E+00 0.  1.
         21   -1    0    0  501  503 -0.00000000000E+00 -0.00000000000E+00 -0.11500643505E+04  0.11500643505E+04  0.00000000000E+00 0. -1.
          6    1    1    2  501    0 -0.13576537432E+03 -0.10445552692E+03 -0.10514725080E+04  0.10792898726E+04  0.17300000000E+03 0. -1.
         -6    1    1    2    0  502  0.13576537432E+03  0.10445552692E+03  0.90299073075E+02  0.25966539347E+03  0.17300000000E+03 0.  1.
<mgrwt>
<rscale>  2 0.24345881E+03</rscale>
<asrwt>0</asrwt>
<pdfrwt beam="1">  1       21 0.29060141E-01 0.24345881E+03</pdfrwt>
<pdfrwt beam="2">  1       21 0.17693298E+00 0.24345881E+03</pdfrwt>
<totfact> 0.20681264E+03</totfact>
</mgrwt>
</event>
<event>
 4    1  0.4023583E+000  0.1842150E+03  0.7546771E-02  0.1163785E+00
         21   -1    0    0  501  502  0.00000000000E+00  0.00000000000E+00  0.45507984096E+03  0.45507984096E+03  0.00000000000E+00 0. -1.
         21   -1    0    0  502  503 -0.00000000000E+00 -0.00000000000E+00 -0.74897210892E+02  0.74897210892E+02  0.00000000000E+00 0. -1.
          6    1    1    2  501    0  0.54453338426E+02 -0.32264552993E+02  0.20761424748E+03  0.27755872028E+03  0.17300000000E+03 0. -1.
         -6    1    1    2    0  503 -0.54453338426E+02  0.32264552993E+02  0.17256838259E+03  0.25241833157E+03  0.17300000000E+03 0. -1.
<mgrwt>
<rscale>  2 0.18421500E+03</rscale>
<asrwt>0</asrwt>
<pdfrwt beam="1">  1       21 0.70012281E-01 0.18421500E+03</pdfrwt>
<pdfrwt beam="2">  1       21 0.11522648E-01 0.18421500E+03</pdfrwt>
<totfact> 0.11722630E+05</totfact>
</mgrwt>
</event>
<event>
 4    1  0.4023583E+000  0.4427204E+03  0.7546771E-02  0.1029915E+00
         21   -1    0    0  503  502  0.00000000000E+00  0.00000000000E+00  0.81166810225E+03  0.81166810225E+03  0.00000000000E+00 0. -1.
         21   -1    0    0  501  503 -0.00000000000E+00 -0.00000000000E+00 -0.25218459482E+03  0.25218459482E+03  0.00000000000E+00 0.  1.
          6    1    1    2  501    0  0.38077779015E+03 -0.14519178519E+03  0.38933484460E+03  0.58956170261E+03  0.17300000000E+03 0.  1.
         -6    1    1    2    0  502 -0.38077779015E+03  0.14519178519E+03  0.17014866284E+03  0.47429099446E+03  0.17300000000E+03 0. -1.
<mgrwt>
<rscale>  2 0.44272043E+03</rscale>
<asrwt>0</asrwt>
<pdfrwt beam="1">  1       21 0.12487201E+00 0.44272043E+03</pdfrwt>
<pdfrwt beam="2">  1       21 0.38797630E-01 0.44272043E+03</pdfrwt>
<totfact> 0.26562867E+03</totfact>
</mgrwt>
</event>
<event>
 4    1  0.4023583E+000  0.2593192E+03  0.7546771E-02  0.1107553E+00
         21   -1    0    0  503  502  0.00000000000E+00  0.00000000000E+00  0.10360079758E+04  0.10360079758E+04  0.00000000000E+00 0. -1.
         21   -1    0    0  501  503 -0.00000000000E+00 -0.00000000000E+00 -0.24935304365E+03  0.24935304365E+03  0.00000000000E+00 0.  1.
          6    1    1    2  501    0 -0.73176586519E+02 -0.17878098964E+03 -0.15941122734E+03  0.30439841405E+03  0.17300000000E+03 0.  1.
         -6    1    1    2    0  502  0.73176586519E+02  0.17878098964E+03  0.94606615952E+03  0.98096260543E+03  0.17300000000E+03 0. -1.
<mgrwt>
<rscale>  2 0.25931921E+03</rscale>
<asrwt>0</asrwt>
<pdfrwt beam="1">  1       21 0.15938584E+00 0.25931921E+03</pdfrwt>
<pdfrwt beam="2">  1       21 0.38362007E-01 0.25931921E+03</pdfrwt>
<totfact> 0.15720307E+03</totfact>
</mgrwt>
</event>
<event>
 4    1  0.4023583E+000  0.1761535E+03  0.7546771E-02  0.1171578E+00
         21   -1    0    0  503  502  0.00000000000E+00  0.00000000000E+00  0.23452960351E+03  0.23452960351E+03  0.00000000000E+00 0. -1.
         21   -1    0    0  501  503 -0.00000000000E+00 -0.00000000000E+00 -0.13234392365E+03  0.13234392365E+03  0.00000000000E+00 0. -1.
          6    1    1    2  501    0 -0.22479353282E+02  0.24407569755E+02  0.54131504736E+02  0.18428312617E+03  0.17300000000E+03 0. -1.
         -6    1    1    2    0  502  0.22479353282E+02 -0.24407569755E+02  0.48054175124E+02  0.18259040099E+03  0.17300000000E+03 0. -1.
<mgrwt>
<rscale>  2 0.17615349E+03</rscale>
<asrwt>0</asrwt>
<pdfrwt beam="1">  1       21 0.36081478E-01 0.17615349E+03</pdfrwt>
<pdfrwt beam="2">  1       21 0.20360604E-01 0.17615349E+03</pdfrwt>
<totfact> 0.16621277E+05</totfact>
</mgrwt>
</event>
<event>
 4    1  0.4023583E+000  0.1837128E+03  0.7546771E-02  0.1164257E+00
         21   -1    0    0  501  502  0.00000000000E+00  0.00000000000E+00  0.42687618934E+03  0.42687618934E+03  0.00000000000E+00 0. -1.
         21   -1    0    0  502  503 -0.00000000000E+00 -0.00000000000E+00 -0.10733727734E+03  0.10733727734E+03  0.00000000000E+00 0. -1.
          6    1    1    2  501    0 -0.46711056420E+02  0.40490147078E+02  0.29685781570E+03  0.34910591164E+03  0.17300000000E+03 0.  1.
         -6    1    1    2    0  503  0.46711056420E+02 -0.40490147078E+02  0.22681096309E+02  0.18510755504E+03  0.17300000000E+03 0.  1.
<mgrwt>
<rscale>  2 0.18371275E+03</rscale>
<asrwt>0</asrwt>
<pdfrwt beam="1">  1       21 0.65673259E-01 0.18371275E+03</pdfrwt>
<pdfrwt beam="2">  1       21 0.16513428E-01 0.18371275E+03</pdfrwt>
<totfact> 0.70398082E+04</totfact>
</mgrwt>
</event>
<event>
 4    1  0.4023583E+000  0.2051267E+03  0.7546771E-02  0.1145484E+00
         21   -1    0    0  503  502  0.00000000000E+00  0.00000000000E+00  0.10494036416E+03  0.10494036416E+03  0.00000000000E+00 0. -1.
         21   -1    0    0  501  503 -0.00000000000E+00 -0.00000000000E+00 -0.61605429257E+03  0.61605429257E+03  0.00000000000E+00 0. -1.
          6    1    1    2  501    0 -0.75193452148E+02 -0.80584751858E+02 -0.46857007535E+03  0.51150256402E+03  0.17300000000E+03 0. -1.
         -6    1    1    2    0  502  0.75193452148E+02  0.80584751858E+02 -0.42543853063E+02  0.20949209272E+03  0.17300000000E+03 0. -1.
<mgrwt>
<rscale>  2 0.20512669E+03</rscale>
<asrwt>0</asrwt>
<pdfrwt beam="1">  1       21 0.16144671E-01 0.20512669E+03</pdfrwt>
<pdfrwt beam="2">  1       21 0.94777586E-01 0.20512669E+03</pdfrwt>
<totfact> 0.31723804E+04</totfact>
</mgrwt>
</event>
<event>
 4    1  0.4023583E+000  0.2924919E+03  0.7546771E-02  0.1089055E+00
         21   -1    0    0  503  502  0.00000000000E+00  0.00000000000E+00  0.21217742242E+03  0.21217742242E+03  0.00000000000E+00 0. -1.
         21   -1    0    0  501  503 -0.00000000000E+00 -0.00000000000E+00 -0.60387838746E+03  0.60387838746E+03  0.00000000000E+00 0.  1.
          6    1    1    2  501    0 -0.22992626218E+03  0.52501669947E+02 -0.43106135492E+03  0.52092744513E+03  0.17300000000E+03 0.  1.
         -6    1    1    2    0  502  0.22992626218E+03 -0.52501669947E+02  0.39360389879E+02  0.29512836475E+03  0.17300000000E+03 0. -1.
<mgrwt>
<rscale>  2 0.29249190E+03</rscale>
<asrwt>0</asrwt>
<pdfrwt beam="1">  1       21 0.32642681E-01 0.29249190E+03</pdfrwt>
<pdfrwt beam="2">  1       21 0.92904366E-01 0.29249190E+03</pdfrwt>
<totfact> 0.83026804E+03</totfact>
</mgrwt>
</event>
<event>
 4    1  0.4023583E+000  0.1765021E+03  0.7546771E-02  0.1171232E+00
         21   -1    0    0  501  502  0.00000000000E+00  0.00000000000E+00  0.22743845190E+02  0.22743845190E+02  0.00000000000E+00 0.  1.
         21   -1    0    0  502  503 -0.00000000000E+00 -0.00000000000E+00 -0.14854482353E+04  0.14854482353E+04  0.00000000000E+00 0.  1.
          6    1    1    2  501    0 -0.10430467957E+02 -0.33394667836E+02 -0.52088088377E+03  0.54997262985E+03  0.17300000000E+03 0.  1.
         -6    1    1    2    0  503  0.10430467957E+02  0.33394667836E+02 -0.94182350634E+03  0.95821945065E+03  0.17300000000E+03 0.  1.
<mgrwt>
<rscale>  2 0.17650212E+03</rscale>
<asrwt>0</asrwt>
<pdfrwt beam="1">  1       21 0.34990535E-02 0.17650212E+03</pdfrwt>
<pdfrwt beam="2">  1       21 0.22853047E+00 0.17650212E+03</pdfrwt>
<totfact> 0.44274762E+04</totfact>
</mgrwt>
</event>
<event>
 4    1  0.4023583E+000  0.2874220E+03  0.7546771E-02  0.1091703E+00
         21   -1    0    0  503  502  0.00000000000E+00  0.00000000000E+00  0.11500777282E+04  0.11500777282E+04  0.00000000000E+00 0. -1.
         21   -1    0    0  501  503 -0.00000000000E+00 -0.00000000000E+00 -0.93425547791E+02  0.93425547791E+02  0.00000000000E+00 0.  1.
          6    1    1    2  501    0  0.17215314442E+03 -0.15180805083E+03  0.22940620734E+03  0.36774800801E+03  0.17300000000E+03 0.  1.
         -6    1    1    2    0  502 -0.17215314442E+03  0.15180805083E+03  0.82724597303E+03  0.87575526794E+03  0.17300000000E+03 0. -1.
<mgrwt>
<rscale>  2 0.28742197E+03</rscale>
<asrwt>0</asrwt>
<pdfrwt beam="1">  1       21 0.17693502E+00 0.28742197E+03</pdfrwt>
<pdfrwt beam="2">  1       21 0.14373162E-01 0.28742197E+03</pdfrwt>
<totfact> 0.75808080E+03</totfact>
</mgrwt>
</event>
<event>
 4    1  0.4023583E+000  0.2079005E+03  0.7546771E-02  0.1143239E+00
         21   -1    0    0  501  502  0.00000000000E+00  0.00000000000E+00  0.10921357631E+03  0.10921357631E+03  0.00000000000E+00 0. -1.
         21   -1    0    0  502  503 -0.00000000000E+00 -0.00000000000E+00 -0.44485067226E+03  0.44485067226E+03  0.00000000000E+00 0. -1.
          6    1    1    2  501    0 -0.10750786079E+03  0.41661711369E+02 -0.25984473419E+03  0.33277909221E+03  0.17300000000E+03 0. -1.
         -6    1    1    2    0  503  0.10750786079E+03 -0.41661711369E+02 -0.75792361759E+02  0.22128515637E+03  0.17300000000E+03 0. -1.
<mgrwt>
<rscale>  2 0.20790055E+03</rscale>
<asrwt>0</asrwt>
<pdfrwt beam="1">  1       21 0.16802089E-01 0.20790055E+03</pdfrwt>
<pdfrwt beam="2">  1       21 0.68438564E-01 0.20790055E+03</pdfrwt>
<totfact> 0.61629209E+04</totfact>
</mgrwt>
</event>
<event>
 4    1  0.4023583E+000  0.2035291E+03  0.7546771E-02  0.1146795E+00
         21   -1    0    0  503  502  0.00000000000E+00  0.00000000000E+00  0.66623892554E+02  0.66623892554E+02  0.00000000000E+00 0. -1.
         21   -1    0    0  501  503 -0.00000000000E+00 -0.00000000000E+00 -0.62238932056E+03  0.62238932056E+03  0.00000000000E+00 0. -1.
          6    1    1    2  501    0 -0.10397413671E+03 -0.26162508266E+02 -0.26693142809E+03  0.33567318219E+03  0.17300000000E+03 0. -1.
         -6    1    1    2    0  502  0.10397413671E+03  0.26162508266E+02 -0.28883399992E+03  0.35334003092E+03  0.17300000000E+03 0. -1.
<mgrwt>
<rscale>  2 0.20352911E+03</rscale>
<asrwt>0</asrwt>
<pdfrwt beam="1">  1       21 0.10249829E-01 0.20352911E+03</pdfrwt>
<pdfrwt beam="2">  1       21 0.95752205E-01 0.20352911E+03</pdfrwt>
<totfact> 0.70281480E+04</totfact>
</mgrwt>
</event>
<event>
 4    1  0.4023583E+000  0.2107991E+03  0.7546771E-02  0.1140935E+00
         21   -1    0    0  503  502  0.00000000000E+00  0.00000000000E+00  0.80113370965E+03  0.80113370965E+03  0.00000000000E+00 0. -1.
         21   -1    0    0  501  503 -0.00000000000E+00 -0.00000000000E+00 -0.55477172199E+02  0.55477172199E+02  0.00000000000E+00 0. -1.
          6    1    1    2  501    0 -0.39625760862E+02  0.11374126315E+03  0.36695518085E+03  0.42319307724E+03  0.17300000000E+03 0. -1.
         -6    1    1    2    0  502  0.39625760862E+02 -0.11374126315E+03  0.37870135660E+03  0.43341780461E+03  0.17300000000E+03 0. -1.
<mgrwt>
<rscale>  2 0.21079914E+03</rscale>
<asrwt>0</asrwt>
<pdfrwt beam="1">  1       21 0.12325133E+00 0.21079914E+03</pdfrwt>
<pdfrwt beam="2">  1       21 0.85349502E-02 0.21079914E+03</pdfrwt>
<totfact> 0.52464444E+04</totfact>
</mgrwt>
</event>
<event>
 4    1  0.4023583E+000  0.2039065E+03  0.7546771E-02  0.1146484E+00
         21   -1    0    0  501  502  0.00000000000E+00  0.00000000000E+00  0.15072216270E+03  0.15072216270E+03  0.00000000000E+00 0. -1.
         21   -1    0    0  502  503 -0.00000000000E+00 -0.00000000000E+00 -0.31344794069E+03  0.31344794069E+03  0.00000000000E+00 0.  1.
          6    1    1    2  501    0  0.10689448620E+03  0.14913418239E+02 -0.99120246394E+00  0.20390886127E+03  0.17300000000E+03 0.  1.
         -6    1    1    2    0  503 -0.10689448620E+03 -0.14913418239E+02 -0.16173457553E+03  0.26026124211E+03  0.17300000000E+03 0.  1.
<mgrwt>
<rscale>  2 0.20390645E+03</rscale>
<asrwt>0</asrwt>
<pdfrwt beam="1">  1       21 0.23188025E-01 0.20390645E+03</pdfrwt>
<pdfrwt beam="2">  1       21 0.48222759E-01 0.20390645E+03</pdfrwt>
<totfact> 0.71441150E+04</totfact>
</mgrwt>
</event>
<event>
 4    1  0.4023583E+000  0.2147595E+03  0.7546771E-02  0.1137851E+00
         21   -1    0    0  503  502  0.00000000000E+00  0.00000000000E+00  0.24262394223E+03  0.24262394223E+03  0.00000000000E+00 0. -1.
         21   -1    0    0  501  503 -0.00000000000E+00 -0.00000000000E+00 -0.20111043405E+03  0.20111043405E+03  0.00000000000E+00 0. -1.
          6    1    1    2  501    0 -0.17445380377E+02  0.12604888388E+03 -0.31167632503E+02  0.21700940934E+03  0.17300000000E+03 0. -1.
         -6    1    1    2    0  502  0.17445380377E+02 -0.12604888388E+03  0.72681140682E+02  0.22672496694E+03  0.17300000000E+03 0. -1.
<mgrwt>
<rscale>  2 0.21475955E+03</rscale>
<asrwt>0</asrwt>
<pdfrwt beam="1">  1       21 0.37326760E-01 0.21475955E+03</pdfrwt>
<pdfrwt beam="2">  1       21 0.30940067E-01 0.21475955E+03</pdfrwt>
<totfact> 0.68778220E+04</totfact>
</mgrwt>
</event>
<event>
 4    1  0.4023583E+000  0.1735118E+03  0.7546771E-02  0.1174234E+00
         21   -1    0    0  501  502  0.00000000000E+00  0.00000000000E+00  0.20261504032E+03  0.20261504032E+03  0.00000000000E+00 0.  1.
         21   -1    0    0  502  503 -0.00000000000E+00 -0.00000000000E+00 -0.20964486900E+03  0.20964486900E+03  0.00000000000E+00 0.  1.
          6    1    1    2  501    0 -0.66161114542E+01 -0.11556618369E+02  0.10772569574E+03  0.20423308714E+03  0.17300000000E+03 0.  1.
         -6    1    1    2    0  503  0.66161114542E+01  0.11556618369E+02 -0.11475552442E+03  0.20802682217E+03  0.17300000000E+03 0.  1.
<mgrwt>
<rscale>  2 0.17351175E+03</rscale>
<asrwt>0</asrwt>
<pdfrwt beam="1">  1       21 0.31171545E-01 0.17351175E+03</pdfrwt>
<pdfrwt beam="2">  1       21 0.32253057E-01 0.17351175E+03</pdfrwt>
<totfact> 0.92132378E+04</totfact>
</mgrwt>
</event>
<event>
 4    1  0.4023583E+000  0.1907677E+03  0.7546771E-02  0.1157771E+00
         21   -1    0    0  501  502  0.00000000000E+00  0.00000000000E+00  0.10067313507E+04  0.10067313507E+04  0.00000000000E+00 0. -1.
         21   -1    0    0  502  503 -0.00000000000E+00 -0.00000000000E+00 -0.15350236216E+03  0.15350236216E+03  0.00000000000E+00 0. -1.
          6    1    1    2  501    0 -0.31933458890E+02 -0.73780675324E+02  0.93384541199E+03  0.95313146383E+03  0.17300000000E+03 0. -1.
         -6    1    1    2    0  503  0.31933458890E+02  0.73780675324E+02 -0.80616423402E+02  0.20710224907E+03  0.17300000000E+03 0. -1.
<mgrwt>
<rscale>  2 0.19076775E+03</rscale>
<asrwt>0</asrwt>
<pdfrwt beam="1">  1       21 0.15488174E+00 0.19076775E+03</pdfrwt>
<pdfrwt beam="2">  1       21 0.23615749E-01 0.19076775E+03</pdfrwt>
<totfact> 0.46438725E+03</totfact>
</mgrwt>
</event>
<event>
 4    1  0.4023583E+000  0.1999769E+03  0.7546771E-02  0.1149759E+00
         21   -1    0    0  503  502  0.00000000000E+00  0.00000000000E+00  0.84471906435E+02  0.84471906435E+02  0.00000000000E+00 0. -1.
         21   -1    0    0  501  503 -0.00000000000E+00 -0.00000000000E+00 -0.10907045070E+04  0.10907045070E+04  0.00000000000E+00 0. -1.
          6    1    1    2  501    0  0.97055079877E+02  0.25338807260E+02 -0.94515671885E+03  0.96608072482E+03  0.17300000000E+03 0. -1.
         -6    1    1    2    0  502 -0.97055079877E+02 -0.25338807260E+02 -0.61075881761E+02  0.20909568866E+03  0.17300000000E+03 0. -1.
<mgrwt>
<rscale>  2 0.19997686E+03</rscale>
<asrwt>0</asrwt>
<pdfrwt beam="1">  1       21 0.12995678E-01 0.19997686E+03</pdfrwt>
<pdfrwt beam="2">  1       21 0.16780069E+00 0.19997686E+03</pdfrwt>
<totfact> 0.11184510E+04</totfact>
</mgrwt>
</event>
<event>
 4    1  0.4023583E+000  0.2017350E+03  0.7546771E-02  0.1148283E+00
         21   -1    0    0  501  502  0.00000000000E+00  0.00000000000E+00  0.15910332609E+04  0.15910332609E+04  0.00000000000E+00 0. -1.
         21   -1    0    0  502  503 -0.00000000000E+00 -0.00000000000E+00 -0.57862444852E+02  0.57862444852E+02  0.00000000000E+00 0.  1.
          6    1    1    2  501    0 -0.67006073083E+02  0.79235144139E+02  0.13824068584E+04  0.13970489412E+04  0.17300000000E+03 0. -1.
         -6    1    1    2    0  503  0.67006073083E+02 -0.79235144139E+02  0.15076395763E+03  0.25184676456E+03  0.17300000000E+03 0.  1.
<mgrwt>
<rscale>  2 0.20173503E+03</rscale>
<asrwt>0</asrwt>
<pdfrwt beam="1">  1       21 0.24477431E+00 0.20173503E+03</pdfrwt>
<pdfrwt beam="2">  1       21 0.89019158E-02 0.20173503E+03</pdfrwt>
<totfact> 0.70456268E+03</totfact>
</mgrwt>
</event>
<event>
 4    1  0.4023583E+000  0.1809354E+03  0.7546771E-02  0.1166901E+00
         21   -1    0    0  501  502  0.00000000000E+00  0.00000000000E+00  0.20149479394E+03  0.20149479394E+03  0.00000000000E+00 0.  1.
         21   -1    0    0  502  503 -0.00000000000E+00 -0.00000000000E+00 -0.29025903720E+03  0.29025903720E+03  0.00000000000E+00 0.  1.
          6    1    1    2  501    0  0.13108575648E+02  0.51349679771E+02  0.11875966986E+03  0.21642893419E+03  0.17300000000E+03 0.  1.
         -6    1    1    2    0  503 -0.13108575648E+02 -0.51349679771E+02 -0.20752391312E+03  0.27532489695E+03  0.17300000000E+03 0.  1.
<mgrwt>
<rscale>  2 0.18093541E+03</rscale>
<asrwt>0</asrwt>
<pdfrwt beam="1">  1       21 0.30999199E-01 0.18093541E+03</pdfrwt>
<pdfrwt beam="2">  1       21 0.44655237E-01 0.18093541E+03</pdfrwt>
<totfact> 0.48388227E+04</totfact>
</mgrwt>
</event>
<event>
 4    1  0.4023583E+000  0.1898915E+03  0.7546771E-02  0.1158559E+00
         21   -1    0    0  501  502  0.00000000000E+00  0.00000000000E+00  0.63647736386E+02  0.63647736386E+02  0.00000000000E+00 0.  1.
         21   -1    0    0  502  503 -0.00000000000E+00 -0.00000000000E+00 -0.60621359671E+03  0.60621359671E+03  0.00000000000E+00 0.  1.
          6    1    1    2  501    0 -0.77237255110E+02  0.12812989955E+02 -0.18559651401E+03  0.26552746054E+03  0.17300000000E+03 0.  1.
         -6    1    1    2    0  503  0.77237255110E+02 -0.12812989955E+02 -0.35696934631E+03  0.40433387256E+03  0.17300000000E+03 0.  1.
<mgrwt>
<rscale>  2 0.18989146E+03</rscale>
<asrwt>0</asrwt>
<pdfrwt beam="1">  1       21 0.97919601E-02 0.18989146E+03</pdfrwt>
<pdfrwt beam="2">  1       21 0.93263624E-01 0.18989146E+03</pdfrwt>
<totfact> 0.81544747E+04</totfact>
</mgrwt>
</event>
<event>
 4    1  0.4023583E+000  0.1886975E+03  0.7546771E-02  0.1159641E+00
         21   -1    0    0  501  502  0.00000000000E+00  0.00000000000E+00  0.15374169005E+04  0.15374169005E+04  0.00000000000E+00 0.  1.
         21   -1    0    0  502  503 -0.00000000000E+00 -0.00000000000E+00 -0.25302182212E+02  0.25302182212E+02  0.00000000000E+00 0.  1.
          6    1    1    2  501    0 -0.65340459026E+02 -0.37528482538E+02  0.52871111002E+03  0.56137527595E+03  0.17300000000E+03 0.  1.
         -6    1    1    2    0  503  0.65340459026E+02  0.37528482538E+02  0.98340360825E+03  0.10013438067E+04  0.17300000000E+03 0.  1.
<mgrwt>
<rscale>  2 0.18869754E+03</rscale>
<asrwt>0</asrwt>
<pdfrwt beam="1">  1       21 0.23652560E+00 0.18869754E+03</pdfrwt>
<pdfrwt beam="2">  1       21 0.38926446E-02 0.18869754E+03</pdfrwt>
<totfact> 0.32874830E+04</totfact>
</mgrwt>
</event>
<event>
 4    1  0.4023583E+000  0.1978439E+03  0.7546771E-02  0.1151571E+00
         21   -1    0    0  501  502  0.00000000000E+00  0.00000000000E+00  0.84868461096E+02  0.84868461096E+02  0.00000000000E+00 0. -1.
         21   -1    0    0  502  503 -0.00000000000E+00 -0.00000000000E+00 -0.51060325406E+03  0.51060325406E+03  0.00000000000E+00 0. -1.
          6    1    1    2  501    0  0.44419776328E+02  0.85088724765E+02 -0.12026507079E+03  0.23152946867E+03  0.17300000000E+03 0. -1.
         -6    1    1    2    0  503 -0.44419776328E+02 -0.85088724765E+02 -0.30546972217E+03  0.36394224648E+03  0.17300000000E+03 0. -1.
<mgrwt>
<rscale>  2 0.19784390E+03</rscale>
<asrwt>0</asrwt>
<pdfrwt beam="1">  1       21 0.13056686E-01 0.19784390E+03</pdfrwt>
<pdfrwt beam="2">  1       21 0.78554346E-01 0.19784390E+03</pdfrwt>
<totfact> 0.72108386E+04</totfact>
</mgrwt>
</event>
<event>
 4    1  0.4023583E+000  0.2059306E+03  0.7546771E-02  0.1144830E+00
         21   -1    0    0  503  502  0.00000000000E+00  0.00000000000E+00  0.35889970533E+03  0.35889970533E+03  0.00000000000E+00 0. -1.
         21   -1    0    0  501  503 -0.00000000000E+00 -0.00000000000E+00 -0.11831107794E+03  0.11831107794E+03  0.00000000000E+00 0.  1.
          6    1    1    2  501    0  0.34941245969E+02  0.10610146131E+03  0.11175385021E+03  0.23429966666E+03  0.17300000000E+03 0. -1.
         -6    1    1    2    0  502 -0.34941245969E+02 -0.10610146131E+03  0.12883477717E+03  0.24291111661E+03  0.17300000000E+03 0. -1.
<mgrwt>
<rscale>  2 0.20593060E+03</rscale>
<asrwt>0</asrwt>
<pdfrwt beam="1">  1       21 0.55215339E-01 0.20593060E+03</pdfrwt>
<pdfrwt beam="2">  1       21 0.18201704E-01 0.20593060E+03</pdfrwt>
<totfact> 0.84600378E+04</totfact>
</mgrwt>
</event>
<event>
 4    1  0.4023583E+000  0.2346299E+03  0.7546771E-02  0.1123423E+00
         21   -1    0    0  501  502  0.00000000000E+00  0.00000000000E+00  0.37916440413E+03  0.37916440413E+03  0.00000000000E+00 0.  1.
         21   -1    0    0  502  503 -0.00000000000E+00 -0.00000000000E+00 -0.61596544910E+03  0.61596544910E+03  0.00000000000E+00 0.  1.
          6    1    1    2  501    0  0.15642727479E+03  0.25547835682E+02  0.31658831868E+03  0.39405500597E+03  0.17300000000E+03 0.  1.
         -6    1    1    2    0  503 -0.15642727479E+03 -0.25547835682E+02 -0.55338936365E+03  0.60107484726E+03  0.17300000000E+03 0.  1.
<mgrwt>
<rscale>  2 0.23462989E+03</rscale>
<asrwt>0</asrwt>
<pdfrwt beam="1">  1       21 0.58332985E-01 0.23462989E+03</pdfrwt>
<pdfrwt beam="2">  1       21 0.94763915E-01 0.23462989E+03</pdfrwt>
<totfact> 0.24778771E+03</totfact>
</mgrwt>
</event>
<event>
 4    1  0.4023583E+000  0.2171370E+03  0.7546771E-02  0.1136036E+00
         21   -1    0    0  501  502  0.00000000000E+00  0.00000000000E+00  0.36895535996E+03  0.36895535996E+03  0.00000000000E+00 0. -1.
         21   -1    0    0  502  503 -0.00000000000E+00 -0.00000000000E+00 -0.38190854348E+03  0.38190854348E+03  0.00000000000E+00 0. -1.
          6    1    1    2  501    0  0.68036839642E+01  0.13104649454E+03  0.29976945481E+03  0.37014888881E+03  0.17300000000E+03 0. -1.
         -6    1    1    2    0  503 -0.68036839642E+01 -0.13104649454E+03 -0.31272263833E+03  0.38071501464E+03  0.17300000000E+03 0. -1.
<mgrwt>
<rscale>  2 0.21713699E+03</rscale>
<asrwt>0</asrwt>
<pdfrwt beam="1">  1       21 0.56762363E-01 0.21713699E+03</pdfrwt>
<pdfrwt beam="2">  1       21 0.58755160E-01 0.21713699E+03</pdfrwt>
<totfact> 0.77723351E+03</totfact>
</mgrwt>
</event>
<event>
 4    1  0.4023583E+000  0.1793910E+03  0.7546771E-02  0.1168394E+00
         21   -1    0    0  501  502  0.00000000000E+00  0.00000000000E+00  0.68196154073E+03  0.68196154073E+03  0.00000000000E+00 0. -1.
         21   -1    0    0  502  503 -0.00000000000E+00 -0.00000000000E+00 -0.68778916825E+02  0.68778916825E+02  0.00000000000E+00 0. -1.
          6    1    1    2  501    0 -0.30442590804E+02 -0.36405635110E+02  0.51689993333E+03  0.54714409681E+03  0.17300000000E+03 0. -1.
         -6    1    1    2    0  503  0.30442590804E+02  0.36405635110E+02  0.96282690577E+02  0.20359636074E+03  0.17300000000E+03 0. -1.
<mgrwt>
<rscale>  2 0.17939097E+03</rscale>
<asrwt>0</asrwt>
<pdfrwt beam="1">  1       21 0.10491716E+00 0.17939097E+03</pdfrwt>
<pdfrwt beam="2">  1       21 0.10581372E-01 0.17939097E+03</pdfrwt>
<totfact> 0.54098195E+04</totfact>
</mgrwt>
</event>
<event>
 4    1  0.4023583E+000  0.2240187E+03  0.7546771E-02  0.1130922E+00
         21   -1    0    0  501  502  0.00000000000E+00  0.00000000000E+00  0.25724859786E+03  0.25724859786E+03  0.00000000000E+00 0.  1.
         21   -1    0    0  502  503 -0.00000000000E+00 -0.00000000000E+00 -0.36365752145E+03  0.36365752145E+03  0.00000000000E+00 0.  1.
          6    1    1    2  501    0 -0.18951510060E+02 -0.14105398129E+03  0.15816772590E+03  0.27422876379E+03  0.17300000000E+03 0.  1.
         -6    1    1    2    0  503  0.18951510060E+02  0.14105398129E+03 -0.26457664949E+03  0.34667735552E+03  0.17300000000E+03 0.  1.
<mgrwt>
<rscale>  2 0.22401872E+03</rscale>
<asrwt>0</asrwt>
<pdfrwt beam="1">  1       21 0.39576707E-01 0.22401872E+03</pdfrwt>
<pdfrwt beam="2">  1       21 0.55947311E-01 0.22401872E+03</pdfrwt>
<totfact> 0.18175348E+04</totfact>
</mgrwt>
</event>
<event>
 4    1  0.4023583E+000  0.3209178E+03  0.7546771E-02  0.1075228E+00
         21   -1    0    0  501  502  0.00000000000E+00  0.00000000000E+00  0.80756603891E+03  0.80756603891E+03  0.00000000000E+00 0. -1.
         21   -1    0    0  502  503 -0.00000000000E+00 -0.00000000000E+00 -0.12758011506E+03  0.12758011506E+03  0.00000000000E+00 0.  1.
          6    1    1    2  501    0  0.86355287162E+02  0.25612889469E+03  0.33065170600E+03  0.46078063869E+03  0.17300000000E+03 0.  1.
         -6    1    1    2    0  503 -0.86355287162E+02 -0.25612889469E+03  0.34933421786E+03  0.47436551527E+03  0.17300000000E+03 0. -1.
<mgrwt>
<rscale>  2 0.32091782E+03</rscale>
<asrwt>0</asrwt>
<pdfrwt beam="1">  1       21 0.12424093E+00 0.32091782E+03</pdfrwt>
<pdfrwt beam="2">  1       21 0.19627711E-01 0.32091782E+03</pdfrwt>
<totfact> 0.10772058E+04</totfact>
</mgrwt>
</event>
<event>
 4    1  0.4023583E+000  0.2297212E+03  0.7546771E-02  0.1126836E+00
         21   -1    0    0  503  502  0.00000000000E+00  0.00000000000E+00  0.73223766772E+02  0.73223766772E+02  0.00000000000E+00 0.  1.
         21   -1    0    0  501  503 -0.00000000000E+00 -0.00000000000E+00 -0.15115465753E+04  0.15115465753E+04  0.00000000000E+00 0.  1.
          6    1    1    2  501    0 -0.48392393535E+02  0.14318167330E+03 -0.12923186234E+04  0.13125773271E+04  0.17300000000E+03 0.  1.
         -6    1    1    2    0  502  0.48392393535E+02 -0.14318167330E+03 -0.14600418519E+03  0.27219301500E+03  0.17300000000E+03 0.  1.
<mgrwt>
<rscale>  2 0.22972117E+03</rscale>
<asrwt>0</asrwt>
<pdfrwt beam="1">  1       21 0.11265194E-01 0.22972117E+03</pdfrwt>
<pdfrwt beam="2">  1       21 0.23254565E+00 0.22972117E+03</pdfrwt>
<totfact> 0.53584531E+03</totfact>
</mgrwt>
</event>
<event>
 4    1  0.4023583E+000  0.1843285E+03  0.7546771E-02  0.1163678E+00
         21   -1    0    0  503  502  0.00000000000E+00  0.00000000000E+00  0.21638620843E+03  0.21638620843E+03  0.00000000000E+00 0.  1.
         21   -1    0    0  501  503 -0.00000000000E+00 -0.00000000000E+00 -0.15860828787E+03  0.15860828787E+03  0.00000000000E+00 0.  1.
          6    1    1    2  501    0  0.62272340158E+02 -0.13043646541E+02  0.47651205462E+02  0.19038807328E+03  0.17300000000E+03 0.  1.
         -6    1    1    2    0  502 -0.62272340158E+02  0.13043646541E+02  0.10126715101E+02  0.18460642303E+03  0.17300000000E+03 0.  1.
<mgrwt>
<rscale>  2 0.18432846E+03</rscale>
<asrwt>0</asrwt>
<pdfrwt beam="1">  1       21 0.33290186E-01 0.18432846E+03</pdfrwt>
<pdfrwt beam="2">  1       21 0.24401275E-01 0.18432846E+03</pdfrwt>
<totfact> 0.13822041E+05</totfact>
</mgrwt>
</event>
<event>
 4    1  0.4023583E+000  0.2088342E+03  0.7546771E-02  0.1142493E+00
         21   -1    0    0  501  502  0.00000000000E+00  0.00000000000E+00  0.41467176465E+02  0.41467176465E+02  0.00000000000E+00 0. -1.
         21   -1    0    0  502  503 -0.00000000000E+00 -0.00000000000E+00 -0.16404914422E+04  0.16404914422E+04  0.00000000000E+00 0. -1.
          6    1    1    2  501    0 -0.72035050930E+02 -0.92161140461E+02 -0.29569504806E+03  0.36200453840E+03  0.17300000000E+03 0. -1.
         -6    1    1    2    0  503  0.72035050930E+02  0.92161140461E+02 -0.13033292177E+04  0.13199540803E+04  0.17300000000E+03 0. -1.
<mgrwt>
<rscale>  2 0.20883420E+03</rscale>
<asrwt>0</asrwt>
<pdfrwt beam="1">  1       21 0.63795661E-02 0.20883420E+03</pdfrwt>
<pdfrwt beam="2">  1       21 0.25238328E+00 0.20883420E+03</pdfrwt>
<totfact> 0.11258141E+04</totfact>
</mgrwt>
</event>
<event>
 4    1  0.4023583E+000  0.2031908E+03  0.7546771E-02  0.1147074E+00
         21   -1    0    0  501  502  0.00000000000E+00  0.00000000000E+00  0.87546025236E+03  0.87546025236E+03  0.00000000000E+00 0.  1.
         21   -1    0    0  502  503 -0.00000000000E+00 -0.00000000000E+00 -0.48320310890E+02  0.48320310890E+02  0.00000000000E+00 0. -1.
          6    1    1    2  501    0  0.79937035956E+02  0.70481128470E+02  0.48515150014E+03  0.52598336216E+03  0.17300000000E+03 0.  1.
         -6    1    1    2    0  503 -0.79937035956E+02 -0.70481128470E+02  0.34198844134E+03  0.39779720109E+03  0.17300000000E+03 0. -1.
<mgrwt>
<rscale>  2 0.20319084E+03</rscale>
<asrwt>0</asrwt>
<pdfrwt beam="1">  1       21 0.13468618E+00 0.20319084E+03</pdfrwt>
<pdfrwt beam="2">  1       21 0.74338946E-02 0.20319084E+03</pdfrwt>
<totfact> 0.53562804E+04</totfact>
</mgrwt>
</event>
<event>
 4    1  0.4023583E+000  0.1922063E+03  0.7546771E-02  0.1156486E+00
         21   -1    0    0  503  502  0.00000000000E+00  0.00000000000E+00  0.62906674406E+03  0.62906674406E+03  0.00000000000E+00 0. -1.
         21   -1    0    0  501  503 -0.00000000000E+00 -0.00000000000E+00 -0.73852572019E+02  0.73852572019E+02  0.00000000000E+00 0. -1.
          6    1    1    2  501    0 -0.82939959060E+02  0.11628632442E+02  0.11855212409E+03  0.22582707550E+03  0.17300000000E+03 0. -1.
         -6    1    1    2    0  502  0.82939959060E+02 -0.11628632442E+02  0.43666204795E+03  0.47709224058E+03  0.17300000000E+03 0. -1.
<mgrwt>
<rscale>  2 0.19220630E+03</rscale>
<asrwt>0</asrwt>
<pdfrwt beam="1">  1       21 0.96779496E-01 0.19220630E+03</pdfrwt>
<pdfrwt beam="2">  1       21 0.11361935E-01 0.19220630E+03</pdfrwt>
<totfact> 0.57392480E+04</totfact>
</mgrwt>
</event>
<event>
 4    1  0.4023583E+000  0.2466409E+03  0.7546771E-02  0.1115446E+00
         21   -1    0    0  501  502  0.00000000000E+00  0.00000000000E+00  0.29690999556E+03  0.29690999556E+03  0.00000000000E+00 0. -1.
         21   -1    0    0  502  503 -0.00000000000E+00 -0.00000000000E+00 -0.21274024518E+03  0.21274024518E+03  0.00000000000E+00 0.  1.
          6    1    1    2  501    0 -0.15420407696E+03 -0.84402948801E+02  0.91057990246E+02  0.26291312767E+03  0.17300000000E+03 0. -1.
         -6    1    1    2    0  503  0.15420407696E+03  0.84402948801E+02 -0.68882398661E+01  0.24673711307E+03  0.17300000000E+03 0.  1.
<mgrwt>
<rscale>  2 0.24664094E+03</rscale>
<asrwt>0</asrwt>
<pdfrwt beam="1">  1       21 0.45678461E-01 0.24664094E+03</pdfrwt>
<pdfrwt beam="2">  1       21 0.32729268E-01 0.24664094E+03</pdfrwt>
<totfact> 0.40250862E+04</totfact>
</mgrwt>
</event>
<event>
 4    1  0.4023583E+000  0.2311958E+03  0.7546771E-02  0.1125801E+00
         21   -1    0    0  501  502  0.00000000000E+00  0.00000000000E+00  0.70657355953E+03  0.70657355953E+03  0.00000000000E+00 0. -1.
         21   -1    0    0  502  503 -0.00000000000E+00 -0.00000000000E+00 -0.91127631438E+02  0.91127631438E+02  0.00000000000E+00 0. -1.
          6    1    1    2  501    0 -0.78782986168E+02  0.13158932787E+03  0.47210446226E+03  0.52567493131E+03  0.17300000000E+03 0. -1.
         -6    1    1    2    0  503  0.78782986168E+02 -0.13158932787E+03  0.14334146583E+03  0.27202625966E+03  0.17300000000E+03 0. -1.
<mgrwt>
<rscale>  2 0.23119583E+03</rscale>
<asrwt>0</asrwt>
<pdfrwt beam="1">  1       21 0.10870362E+00 0.23119583E+03</pdfrwt>
<pdfrwt beam="2">  1       21 0.14019636E-01 0.23119583E+03</pdfrwt>
<totfact> 0.29179097E+04</totfact>
</mgrwt>
</event>
<event>
 4    1  0.4023583E+000  0.2268533E+03  0.7546771E-02  0.1128874E+00
         21   -1    0    0  501  502  0.00000000000E+00  0.00000000000E+00  0.93191900888E+02  0.93191900888E+02  0.00000000000E+00 0. -1.
         21   -1    0    0  502  503 -0.00000000000E+00 -0.00000000000E+00 -0.12140017706E+04  0.12140017706E+04  0.00000000000E+00 0.  1.
          6    1    1    2  501    0  0.62410589000E+02  0.13280947344E+03 -0.77837891674E+02  0.23983572552E+03  0.17300000000E+03 0. -1.
         -6    1    1    2    0  503 -0.62410589000E+02 -0.13280947344E+03 -0.10429719780E+04  0.10673579459E+04  0.17300000000E+03 0.  1.
<mgrwt>
<rscale>  2 0.22685334E+03</rscale>
<asrwt>0</asrwt>
<pdfrwt beam="1">  1       21 0.14337216E-01 0.22685334E+03</pdfrwt>
<pdfrwt beam="2">  1       21 0.18676950E+00 0.22685334E+03</pdfrwt>
<totfact> 0.67848623E+03</totfact>
</mgrwt>
</event>
<event>
 4    1  0.4023583E+000  0.2029812E+03  0.7546771E-02  0.1147248E+00
         21   -1    0    0  503  502  0.00000000000E+00  0.00000000000E+00  0.52414285607E+02  0.52414285607E+02  0.00000000000E+00 0. -1.
         21   -1    0    0  501  503 -0.00000000000E+00 -0.00000000000E+00 -0.14674273646E+04  0.14674273646E+04  0.00000000000E+00 0. -1.
          6    1    1    2  501    0  0.10138185002E+03  0.31529310003E+02 -0.12253244093E+04  0.12420230614E+04  0.17300000000E+03 0. -1.
         -6    1    1    2    0  502 -0.10138185002E+03 -0.31529310003E+02 -0.18968866969E+03  0.27781858885E+03  0.17300000000E+03 0. -1.
<mgrwt>
<rscale>  2 0.20298122E+03</rscale>
<asrwt>0</asrwt>
<pdfrwt beam="1">  1       21 0.80637371E-02 0.20298122E+03</pdfrwt>
<pdfrwt beam="2">  1       21 0.22575803E+00 0.20298122E+03</pdfrwt>
<totfact> 0.10881703E+04</totfact>
</mgrwt>
</event>
<event>
 4    1  0.4023583E+000  0.2915558E+03  0.7546771E-02  0.1089540E+00
         21   -1    0    0  503  502  0.00000000000E+00  0.00000000000E+00  0.13059119017E+03  0.13059119017E+03  0.00000000000E+00 0. -1.
         21   -1    0    0  501  503 -0.00000000000E+00 -0.00000000000E+00 -0.70973327428E+03  0.70973327428E+03  0.00000000000E+00 0. -1.
          6    1    1    2  501    0  0.11929167504E+03  0.20210218019E+03 -0.41051841382E+03  0.50351778822E+03  0.17300000000E+03 0. -1.
         -6    1    1    2    0  502 -0.11929167504E+03 -0.20210218019E+03 -0.16862367029E+03  0.33680667623E+03  0.17300000000E+03 0. -1.
<mgrwt>
<rscale>  2 0.29155582E+03</rscale>
<asrwt>0</asrwt>
<pdfrwt beam="1">  1       21 0.20090953E-01 0.29155582E+03</pdfrwt>
<pdfrwt beam="2">  1       21 0.10918973E+00 0.29155582E+03</pdfrwt>
<totfact> 0.14403685E+04</totfact>
</mgrwt>
</event>
<event>
 4    1  0.4023583E+000  0.2124913E+03  0.7546771E-02  0.1139608E+00
         21   -1    0    0  501  502  0.00000000000E+00  0.00000000000E+00  0.56362635099E+02  0.56362635099E+02  0.00000000000E+00 0. -1.
         21   -1    0    0  502  503 -0.00000000000E+00 -0.00000000000E+00 -0.86627803725E+03  0.86627803725E+03  0.00000000000E+00 0. -1.
          6    1    1    2  501    0  0.31989191369E+02  0.11916482086E+03 -0.53148890374E+03  0.57239236341E+03  0.17300000000E+03 0. -1.
         -6    1    1    2    0  503 -0.31989191369E+02 -0.11916482086E+03 -0.27842649841E+03  0.35024830893E+03  0.17300000000E+03 0. -1.
<mgrwt>
<rscale>  2 0.21249132E+03</rscale>
<asrwt>0</asrwt>
<pdfrwt beam="1">  1       21 0.86711751E-02 0.21249132E+03</pdfrwt>
<pdfrwt beam="2">  1       21 0.13327354E+00 0.21249132E+03</pdfrwt>
<totfact> 0.41854071E+04</totfact>
</mgrwt>
</event>
<event>
 4    1  0.4023583E+000  0.2147181E+03  0.7546771E-02  0.1137883E+00
         21   -1    0    0  503  502  0.00000000000E+00  0.00000000000E+00  0.95885105446E+03  0.95885105446E+03  0.00000000000E+00 0. -1.
         21   -1    0    0  501  503 -0.00000000000E+00 -0.00000000000E+00 -0.69948392974E+02  0.69948392974E+02  0.00000000000E+00 0. -1.
          6    1    1    2  501    0  0.12564850457E+03  0.19679813858E+02  0.15684618882E+03  0.26590330709E+03  0.17300000000E+03 0. -1.
         -6    1    1    2    0  502 -0.12564850457E+03 -0.19679813858E+02  0.73205647266E+03  0.76289614034E+03  0.17300000000E+03 0. -1.
<mgrwt>
<rscale>  2 0.21471805E+03</rscale>
<asrwt>0</asrwt>
<pdfrwt beam="1">  1       21 0.14751554E+00 0.21471805E+03</pdfrwt>
<pdfrwt beam="2">  1       21 0.10761292E-01 0.21471805E+03</pdfrwt>
<totfact> 0.21938985E+04</totfact>
</mgrwt>
</event>
<event>
 4    1  0.4023583E+000  0.2691070E+03  0.7546771E-02  0.1101792E+00
         21   -1    0    0  501  502  0.00000000000E+00  0.00000000000E+00  0.29806929322E+03  0.29806929322E+03  0.00000000000E+00 0. -1.
         21   -1    0    0  502  503 -0.00000000000E+00 -0.00000000000E+00 -0.26245913765E+03  0.26245913765E+03  0.00000000000E+00 0.  1.
          6    1    1    2  501    0 -0.18633028246E+03 -0.88151080623E+02  0.94198641347E+02  0.28511746914E+03  0.17300000000E+03 0. -1.
         -6    1    1    2    0  503  0.18633028246E+03  0.88151080623E+02 -0.58588485778E+02  0.27541096173E+03  0.17300000000E+03 0.  1.
<mgrwt>
<rscale>  2 0.26910702E+03</rscale>
<asrwt>0</asrwt>
<pdfrwt beam="1">  1       21 0.45856814E-01 0.26910702E+03</pdfrwt>
<pdfrwt beam="2">  1       21 0.40378329E-01 0.26910702E+03</pdfrwt>
<totfact> 0.25937745E+04</totfact>
</mgrwt>
</event>
<event>
 4    1  0.4023583E+000  0.1801985E+03  0.7546771E-02  0.1167611E+00
         21   -1    0    0  501  502  0.00000000000E+00  0.00000000000E+00  0.16366353214E+03  0.16366353214E+03  0.00000000000E+00 0. -1.
         21   -1    0    0  502  503 -0.00000000000E+00 -0.00000000000E+00 -0.25186656716E+03  0.25186656716E+03  0.00000000000E+00 0. -1.
          6    1    1    2  501    0 -0.16327099612E+02 -0.47706726003E+02  0.51620528936E+02  0.18744648542E+03  0.17300000000E+03 0. -1.
         -6    1    1    2    0  503  0.16327099612E+02  0.47706726003E+02 -0.13982356396E+03  0.22808361389E+03  0.17300000000E+03 0. -1.
<mgrwt>
<rscale>  2 0.18019852E+03</rscale>
<asrwt>0</asrwt>
<pdfrwt beam="1">  1       21 0.25179005E-01 0.18019852E+03</pdfrwt>
<pdfrwt beam="2">  1       21 0.38748703E-01 0.18019852E+03</pdfrwt>
<totfact> 0.96411984E+04</totfact>
</mgrwt>
</event>
<event>
 4    1  0.4023583E+000  0.1846305E+03  0.7546771E-02  0.1163395E+00
         21   -1    0    0  503  502  0.00000000000E+00  0.00000000000E+00  0.12909541166E+03  0.12909541166E+03  0.00000000000E+00 0.  1.
         21   -1    0    0  501  503 -0.00000000000E+00 -0.00000000000E+00 -0.27504916775E+03  0.27504916775E+03  0.00000000000E+00 0.  1.
          6    1    1    2  501    0 -0.61384128439E+02  0.19784426378E+02 -0.11337493363E+03  0.21666174173E+03  0.17300000000E+03 0.  1.
         -6    1    1    2    0  502  0.61384128439E+02 -0.19784426378E+02 -0.32578822460E+02  0.18748283768E+03  0.17300000000E+03 0.  1.
<mgrwt>
<rscale>  2 0.18463054E+03</rscale>
<asrwt>0</asrwt>
<pdfrwt beam="1">  1       21 0.19860833E-01 0.18463054E+03</pdfrwt>
<pdfrwt beam="2">  1       21 0.42315256E-01 0.18463054E+03</pdfrwt>
<totfact> 0.12602018E+05</totfact>
</mgrwt>
</event>
<event>
 4    1  0.4023583E+000  0.1793813E+03  0.7546771E-02  0.1168403E+00
         21   -1    0    0  501  502  0.00000000000E+00  0.00000000000E+00  0.35512303854E+02  0.35512303854E+02  0.00000000000E+00 0. -1.
         21   -1    0    0  502  503 -0.00000000000E+00 -0.00000000000E+00 -0.90840449044E+03  0.90840449044E+03  0.00000000000E+00 0. -1.
          6    1    1    2  501    0  0.45535532436E+02 -0.13235429130E+02 -0.46022272237E+03  0.49394596413E+03  0.17300000000E+03 0. -1.
         -6    1    1    2    0  503 -0.45535532436E+02  0.13235429130E+02 -0.41266946422E+03  0.44997083016E+03  0.17300000000E+03 0. -1.
<mgrwt>
<rscale>  2 0.17938133E+03</rscale>
<asrwt>0</asrwt>
<pdfrwt beam="1">  1       21 0.54634319E-02 0.17938133E+03</pdfrwt>
<pdfrwt beam="2">  1       21 0.13975452E+00 0.17938133E+03</pdfrwt>
<totfact> 0.83704931E+04</totfact>
</mgrwt>
</event>
<event>
 4    1  0.4023583E+000  0.1756774E+03  0.7546771E-02  0.1172053E+00
         21   -1    0    0  501  502  0.00000000000E+00  0.00000000000E+00  0.21654395683E+04  0.21654395683E+04  0.00000000000E+00 0. -1.
         21   -1    0    0  502  503 -0.00000000000E+00 -0.00000000000E+00 -0.25972540616E+02  0.25972540616E+02  0.00000000000E+00 0. -1.
          6    1    1    2  501    0  0.30505413967E+02 -0.17236416344E+01  0.33368808186E+03  0.37710779254E+03  0.17300000000E+03 0. -1.
         -6    1    1    2    0  503 -0.30505413967E+02  0.17236416344E+01  0.18057789458E+04  0.18143043164E+04  0.17300000000E+03 0. -1.
<mgrwt>
<rscale>  2 0.17567741E+03</rscale>
<asrwt>0</asrwt>
<pdfrwt beam="1">  1       21 0.33314441E+00 0.17567741E+03</pdfrwt>
<pdfrwt beam="2">  1       21 0.39957772E-02 0.17567741E+03</pdfrwt>
<totfact> 0.87994770E+03</totfact>
</mgrwt>
</event>
<event>
 4    1  0.4023583E+000  0.2257608E+03  0.7546771E-02  0.1129660E+00
         21   -1    0    0  503  502  0.00000000000E+00  0.00000000000E+00  0.95872405061E+02  0.95872405061E+02  0.00000000000E+00 0. -1.
         21   -1    0    0  501  503 -0.00000000000E+00 -0.00000000000E+00 -0.67327407400E+03  0.67327407400E+03  0.00000000000E+00 0. -1.
          6    1    1    2  501    0  0.12727729994E+03  0.69566058978E+02 -0.11230289904E+03  0.25215052801E+03  0.17300000000E+03 0. -1.
         -6    1    1    2    0  502 -0.12727729994E+03 -0.69566058978E+02 -0.46509876990E+03  0.51699595105E+03  0.17300000000E+03 0. -1.
<mgrwt>
<rscale>  2 0.22576082E+03</rscale>
<asrwt>0</asrwt>
<pdfrwt beam="1">  1       21 0.14749601E-01 0.22576082E+03</pdfrwt>
<pdfrwt beam="2">  1       21 0.10358063E+00 0.22576082E+03</pdfrwt>
<totfact> 0.29979185E+04</totfact>
</mgrwt>
</event>
<event>
 4    1  0.4023583E+000  0.2108257E+03  0.7546771E-02  0.1140914E+00
         21   -1    0    0  501  502  0.00000000000E+00  0.00000000000E+00  0.45196402925E+02  0.45196402925E+02  0.00000000000E+00 0.  1.
         21   -1    0    0  502  503 -0.00000000000E+00 -0.00000000000E+00 -0.13880492458E+04  0.13880492458E+04  0.00000000000E+00 0. -1.
          6    1    1    2  501    0 -0.95041962927E+02  0.74064300186E+02 -0.10583378034E+04  0.10791322446E+04  0.17300000000E+03 0.  1.
         -6    1    1    2    0  503  0.95041962927E+02 -0.74064300186E+02 -0.28451503948E+03  0.35411340411E+03  0.17300000000E+03 0.  1.
<mgrwt>
<rscale>  2 0.21082575E+03</rscale>
<asrwt>0</asrwt>
<pdfrwt beam="1">  1       21 0.69532946E-02 0.21082575E+03</pdfrwt>
<pdfrwt beam="2">  1       21 0.21354598E+00 0.21082575E+03</pdfrwt>
<totfact> 0.16632933E+04</totfact>
</mgrwt>
</event>
<event>
 4    1  0.4023583E+000  0.1848310E+03  0.7546771E-02  0.1163208E+00
         21   -1    0    0  501  502  0.00000000000E+00  0.00000000000E+00  0.95519095558E+02  0.95519095558E+02  0.00000000000E+00 0. -1.
         21   -1    0    0  502  503 -0.00000000000E+00 -0.00000000000E+00 -0.36659913437E+03  0.36659913437E+03  0.00000000000E+00 0.  1.
          6    1    1    2  501    0  0.64884432077E+02  0.48504328160E+01 -0.17163855016E+03  0.25223462911E+03  0.17300000000E+03 0. -1.
         -6    1    1    2    0  503 -0.64884432077E+02 -0.48504328160E+01 -0.99441488653E+02  0.20988360081E+03  0.17300000000E+03 0.  1.
<mgrwt>
<rscale>  2 0.18483105E+03</rscale>
<asrwt>0</asrwt>
<pdfrwt beam="1">  1       21 0.14695246E-01 0.18483105E+03</pdfrwt>
<pdfrwt beam="2">  1       21 0.56399867E-01 0.18483105E+03</pdfrwt>
<totfact> 0.12076092E+05</totfact>
</mgrwt>
</event>
<event>
 4    1  0.4023583E+000  0.2510337E+03  0.7546771E-02  0.1112653E+00
         21   -1    0    0  501  502  0.00000000000E+00  0.00000000000E+00  0.10040619865E+03  0.10040619865E+03  0.00000000000E+00 0.  1.
         21   -1    0    0  502  503 -0.00000000000E+00 -0.00000000000E+00 -0.66978824312E+03  0.66978824312E+03  0.00000000000E+00 0. -1.
          6    1    1    2  501    0  0.18097864552E+03  0.18321129698E+02 -0.18807629902E+03  0.31367280434E+03  0.17300000000E+03 0. -1.
         -6    1    1    2    0  503 -0.18097864552E+03 -0.18321129698E+02 -0.38130574545E+03  0.45652163743E+03  0.17300000000E+03 0.  1.
<mgrwt>
<rscale>  2 0.25103373E+03</rscale>
<asrwt>0</asrwt>
<pdfrwt beam="1">  1       21 0.15447108E-01 0.25103373E+03</pdfrwt>
<pdfrwt beam="2">  1       21 0.10304434E+00 0.25103373E+03</pdfrwt>
<totfact> 0.27551123E+04</totfact>
</mgrwt>
</event>
<event>
 4    1  0.4023583E+000  0.2271148E+03  0.7546771E-02  0.1128687E+00
         21   -1    0    0  501  502  0.00000000000E+00  0.00000000000E+00  0.15062065677E+03  0.15062065677E+03  0.00000000000E+00 0.  1.
         21   -1    0    0  502  503 -0.00000000000E+00 -0.00000000000E+00 -0.61623377282E+03  0.61623377282E+03  0.00000000000E+00 0.  1.
          6    1    1    2  501    0 -0.31306995602E+02  0.14377759107E+03  0.22762547456E+02  0.22825261714E+03  0.17300000000E+03 0.  1.
         -6    1    1    2    0  503  0.31306995602E+02 -0.14377759107E+03 -0.48837566350E+03  0.53860181244E+03  0.17300000000E+03 0.  1.
<mgrwt>
<rscale>  2 0.22711478E+03</rscale>
<asrwt>0</asrwt>
<pdfrwt beam="1">  1       21 0.23172409E-01 0.22711478E+03</pdfrwt>
<pdfrwt beam="2">  1       21 0.94805195E-01 0.22711478E+03</pdfrwt>
<totfact> 0.15946406E+04</totfact>
</mgrwt>
</event>
<event>
 4    1  0.4023583E+000  0.2105594E+03  0.7546771E-02  0.1141124E+00
         21   -1    0    0  503  502  0.00000000000E+00  0.00000000000E+00  0.25167702696E+03  0.25167702696E+03  0.00000000000E+00 0. -1.
         21   -1    0    0  501  503 -0.00000000000E+00 -0.00000000000E+00 -0.21951274196E+03  0.21951274196E+03  0.00000000000E+00 0. -1.
          6    1    1    2  501    0  0.11860220451E+03 -0.18433353474E+02 -0.88618014277E+02  0.22844785814E+03  0.17300000000E+03 0. -1.
         -6    1    1    2    0  502 -0.11860220451E+03  0.18433353474E+02  0.12078229927E+03  0.24274191078E+03  0.17300000000E+03 0. -1.
<mgrwt>
<rscale>  2 0.21055942E+03</rscale>
<asrwt>0</asrwt>
<pdfrwt beam="1">  1       21 0.38719543E-01 0.21055942E+03</pdfrwt>
<pdfrwt beam="2">  1       21 0.33771191E-01 0.21055942E+03</pdfrwt>
<totfact> 0.53868064E+04</totfact>
</mgrwt>
</event>
<event>
 4    1  0.4023583E+000  0.2292977E+03  0.7546771E-02  0.1127135E+00
         21   -1    0    0  501  502  0.00000000000E+00  0.00000000000E+00  0.75001201243E+03  0.75001201243E+03  0.00000000000E+00 0. -1.
         21   -1    0    0  502  503 -0.00000000000E+00 -0.00000000000E+00 -0.75692564742E+02  0.75692564742E+02  0.00000000000E+00 0. -1.
          6    1    1    2  501    0 -0.11136000857E+02  0.15008143417E+03  0.44935910798E+03  0.50448097618E+03  0.17300000000E+03 0. -1.
         -6    1    1    2    0  503  0.11136000857E+02 -0.15008143417E+03  0.22496033971E+03  0.32122360100E+03  0.17300000000E+03 0. -1.
<mgrwt>
<rscale>  2 0.22929773E+03</rscale>
<asrwt>0</asrwt>
<pdfrwt beam="1">  1       21 0.11538646E+00 0.22929773E+03</pdfrwt>
<pdfrwt beam="2">  1       21 0.11645010E-01 0.22929773E+03</pdfrwt>
<totfact> 0.35297829E+04</totfact>
</mgrwt>
</event>
<event>
 4    1  0.4023583E+000  0.2343666E+03  0.7546771E-02  0.1123604E+00
         21   -1    0    0  501  502  0.00000000000E+00  0.00000000000E+00  0.50485549781E+02  0.50485549781E+02  0.00000000000E+00 0. -1.
         21   -1    0    0  502  503 -0.00000000000E+00 -0.00000000000E+00 -0.23970429593E+04  0.23970429593E+04  0.00000000000E+00 0. -1.
          6    1    1    2  501    0  0.15263462961E+03 -0.41247894066E+02 -0.26892433389E+03  0.35671839913E+03  0.17300000000E+03 0. -1.
         -6    1    1    2    0  503 -0.15263462961E+03  0.41247894066E+02 -0.20776330756E+04  0.20908101100E+04  0.17300000000E+03 0. -1.
<mgrwt>
<rscale>  2 0.23436663E+03</rscale>
<asrwt>0</asrwt>
<pdfrwt beam="1">  1       21 0.77670085E-02 0.23436663E+03</pdfrwt>
<pdfrwt beam="2">  1       21 0.36877580E+00 0.23436663E+03</pdfrwt>
<totfact> 0.16165622E+03</totfact>
</mgrwt>
</event>
<event>
 4    1  0.4023583E+000  0.1794288E+03  0.7546771E-02  0.1168357E+00
         21   -1    0    0  501  502  0.00000000000E+00  0.00000000000E+00  0.26912243475E+03  0.26912243475E+03  0.00000000000E+00 0.  1.
         21   -1    0    0  502  503 -0.00000000000E+00 -0.00000000000E+00 -0.21798850248E+03  0.21798850248E+03  0.00000000000E+00 0.  1.
          6    1    1    2  501    0 -0.33289266781E+02 -0.34022458578E+02  0.18916965633E+03  0.26072948021E+03  0.17300000000E+03 0.  1.
         -6    1    1    2    0  503  0.33289266781E+02  0.34022458578E+02 -0.13803572406E+03  0.22638145703E+03  0.17300000000E+03 0.  1.
<mgrwt>
<rscale>  2 0.17942882E+03</rscale>
<asrwt>0</asrwt>
<pdfrwt beam="1">  1       21 0.41403451E-01 0.17942882E+03</pdfrwt>
<pdfrwt beam="2">  1       21 0.33536693E-01 0.17942882E+03</pdfrwt>
<totfact> 0.48406583E+04</totfact>
</mgrwt>
</event>
<event>
 4    1  0.4023583E+000  0.1980120E+03  0.7546771E-02  0.1151427E+00
         21   -1    0    0  501  502  0.00000000000E+00  0.00000000000E+00  0.21821268260E+03  0.21821268260E+03  0.00000000000E+00 0.  1.
         21   -1    0    0  502  503 -0.00000000000E+00 -0.00000000000E+00 -0.20310144726E+03  0.20310144726E+03  0.00000000000E+00 0.  1.
          6    1    1    2  501    0 -0.76780118394E+02  0.58176947101E+02  0.79089880601E+02  0.21322277779E+03  0.17300000000E+03 0.  1.
         -6    1    1    2    0  503  0.76780118394E+02 -0.58176947101E+02 -0.63978645261E+02  0.20809135206E+03  0.17300000000E+03 0.  1.
<mgrwt>
<rscale>  2 0.19801198E+03</rscale>
<asrwt>0</asrwt>
<pdfrwt beam="1">  1       21 0.33571182E-01 0.19801198E+03</pdfrwt>
<pdfrwt beam="2">  1       21 0.31246377E-01 0.19801198E+03</pdfrwt>
<totfact> 0.83919957E+04</totfact>
</mgrwt>
</event>
<event>
 4    1  0.4023583E+000  0.1796252E+03  0.7546771E-02  0.1168166E+00
         21   -1    0    0  503  502  0.00000000000E+00  0.00000000000E+00  0.11606871758E+04  0.11606871758E+04  0.00000000000E+00 0.  1.
         21   -1    0    0  501  503 -0.00000000000E+00 -0.00000000000E+00 -0.45785111402E+02  0.45785111402E+02  0.00000000000E+00 0.  1.
          6    1    1    2  501    0 -0.47741649520E+02 -0.75460458913E+01  0.17935553897E+03  0.25383777746E+03  0.17300000000E+03 0.  1.
         -6    1    1    2    0  502  0.47741649520E+02  0.75460458913E+01  0.93554652540E+03  0.95263450971E+03  0.17300000000E+03 0.  1.
<mgrwt>
<rscale>  2 0.17962519E+03</rscale>
<asrwt>0</asrwt>
<pdfrwt beam="1">  1       21 0.17856724E+00 0.17962519E+03</pdfrwt>
<pdfrwt beam="2">  1       21 0.70438642E-02 0.17962519E+03</pdfrwt>
<totfact> 0.28098715E+04</totfact>
</mgrwt>
</event>
<event>
 4    1  0.4023583E+000  0.1781389E+03  0.7546771E-02  0.1169616E+00
         21   -1    0    0  503  502  0.00000000000E+00  0.00000000000E+00  0.18545571731E+02  0.18545571731E+02  0.00000000000E+00 0.  1.
         21   -1    0    0  501  503 -0.00000000000E+00 -0.00000000000E+00 -0.17141026162E+04  0.17141026162E+04  0.00000000000E+00 0.  1.
          6    1    1    2  501    0  0.33082320955E+02 -0.26646462459E+02 -0.81156745773E+03  0.83088820690E+03  0.17300000000E+03 0.  1.
         -6    1    1    2    0  502 -0.33082320955E+02  0.26646462459E+02 -0.88398958669E+03  0.90175998099E+03  0.17300000000E+03 0.  1.
<mgrwt>
<rscale>  2 0.17813892E+03</rscale>
<asrwt>0</asrwt>
<pdfrwt beam="1">  1       21 0.28531655E-02 0.17813892E+03</pdfrwt>
<pdfrwt beam="2">  1       21 0.26370804E+00 0.17813892E+03</pdfrwt>
<totfact> 0.38487975E+04</totfact>
</mgrwt>
</event>
<event>
 4    1  0.4023583E+000  0.2043520E+03  0.7546771E-02  0.1146118E+00
         21   -1    0    0  501  502  0.00000000000E+00  0.00000000000E+00  0.95947813955E+03  0.95947813955E+03  0.00000000000E+00 0.  1.
         21   -1    0    0  502  503 -0.00000000000E+00 -0.00000000000E+00 -0.52281032322E+02  0.52281032322E+02  0.00000000000E+00 0.  1.
          6    1    1    2  501    0 -0.10091745726E+03 -0.40575991669E+02  0.24655171619E+03  0.32023037494E+03  0.17300000000E+03 0.  1.
         -6    1    1    2    0  503  0.10091745726E+03  0.40575991669E+02  0.66064539104E+03  0.69152879693E+03  0.17300000000E+03 0.  1.
<mgrwt>
<rscale>  2 0.20435201E+03</rscale>
<asrwt>0</asrwt>
<pdfrwt beam="1">  1       21 0.14761201E+00 0.20435201E+03</pdfrwt>
<pdfrwt beam="2">  1       21 0.80432364E-02 0.20435201E+03</pdfrwt>
<totfact> 0.36804684E+04</totfact>
</mgrwt>
</event>
<event>
 4    1  0.4023583E+000  0.2105009E+03  0.7546771E-02  0.1141170E+00
         21   -1    0    0  503  502  0.00000000000E+00  0.00000000000E+00  0.16312086996E+03  0.16312086996E+03  0.00000000000E+00 0.  1.
         21   -1    0    0  501  503 -0.00000000000E+00 -0.00000000000E+00 -0.33379124687E+03  0.33379124687E+03  0.00000000000E+00 0.  1.
          6    1    1    2  501    0 -0.11428104341E+03 -0.36351847755E+02 -0.19254318407E+03  0.28527791967E+03  0.17300000000E+03 0.  1.
         -6    1    1    2    0  502  0.11428104341E+03  0.36351847755E+02  0.21872807159E+02  0.21163419717E+03  0.17300000000E+03 0.  1.
<mgrwt>
<rscale>  2 0.21050086E+03</rscale>
<asrwt>0</asrwt>
<pdfrwt beam="1">  1       21 0.25095518E-01 0.21050086E+03</pdfrwt>
<pdfrwt beam="2">  1       21 0.51352499E-01 0.21050086E+03</pdfrwt>
<totfact> 0.53731437E+04</totfact>
</mgrwt>
</event>
<event>
 4    1  0.4023583E+000  0.1776149E+03  0.7546771E-02  0.1170132E+00
         21   -1    0    0  501  502  0.00000000000E+00  0.00000000000E+00  0.34181500592E+03  0.34181500592E+03  0.00000000000E+00 0.  1.
         21   -1    0    0  502  503 -0.00000000000E+00 -0.00000000000E+00 -0.10725682085E+03  0.10725682085E+03  0.00000000000E+00 0.  1.
          6    1    1    2  501    0  0.39652585212E+02  0.67615533918E+01  0.20114747453E+03  0.26834185777E+03  0.17300000000E+03 0.  1.
         -6    1    1    2    0  503 -0.39652585212E+02 -0.67615533918E+01  0.33410710530E+02  0.18072996900E+03  0.17300000000E+03 0.  1.
<mgrwt>
<rscale>  2 0.17761488E+03</rscale>
<asrwt>0</asrwt>
<pdfrwt beam="1">  1       21 0.52586923E-01 0.17761488E+03</pdfrwt>
<pdfrwt beam="2">  1       21 0.16501050E-01 0.17761488E+03</pdfrwt>
<totfact> 0.11360193E+05</totfact>
</mgrwt>
</event>
<event>
 4    1  0.4023583E+000  0.2115705E+03  0.7546771E-02  0.1140328E+00
         21   -1    0    0  501  502  0.00000000000E+00  0.00000000000E+00  0.78912655103E+03  0.78912655103E+03  0.00000000000E+00 0.  1.
         21   -1    0    0  502  503 -0.00000000000E+00 -0.00000000000E+00 -0.56774467937E+02  0.56774467937E+02  0.00000000000E+00 0. -1.
          6    1    1    2  501    0  0.52017817503E+02 -0.11012373702E+03  0.35351473407E+03  0.41198878382E+03  0.17300000000E+03 0. -1.
         -6    1    1    2    0  503 -0.52017817503E+02  0.11012373702E+03  0.37883734902E+03  0.43391223514E+03  0.17300000000E+03 0. -1.
<mgrwt>
<rscale>  2 0.21157053E+03</rscale>
<asrwt>0</asrwt>
<pdfrwt beam="1">  1       21 0.12140408E+00 0.21157053E+03</pdfrwt>
<pdfrwt beam="2">  1       21 0.87345341E-02 0.21157053E+03</pdfrwt>
<totfact> 0.52298509E+04</totfact>
</mgrwt>
</event>
<event>
 4    1  0.4023583E+000  0.1981029E+03  0.7546771E-02  0.1151350E+00
         21   -1    0    0  501  502  0.00000000000E+00  0.00000000000E+00  0.13532497513E+03  0.13532497513E+03  0.00000000000E+00 0.  1.
         21   -1    0    0  502  503 -0.00000000000E+00 -0.00000000000E+00 -0.35652768997E+03  0.35652768997E+03  0.00000000000E+00 0.  1.
          6    1    1    2  501    0 -0.96051542883E+02  0.94799646536E+01 -0.43714166810E+01  0.19815114914E+03  0.17300000000E+03 0.  1.
         -6    1    1    2    0  503  0.96051542883E+02 -0.94799646536E+01 -0.21683129815E+03  0.29370151596E+03  0.17300000000E+03 0.  1.
<mgrwt>
<rscale>  2 0.19810292E+03</rscale>
<asrwt>0</asrwt>
<pdfrwt beam="1">  1       21 0.20819227E-01 0.19810292E+03</pdfrwt>
<pdfrwt beam="2">  1       21 0.54850413E-01 0.19810292E+03</pdfrwt>
<totfact> 0.67009613E+04</totfact>
</mgrwt>
</event>
<event>
 4    1  0.4023583E+000  0.1889118E+03  0.7546771E-02  0.1159447E+00
         21   -1    0    0  503  502  0.00000000000E+00  0.00000000000E+00  0.10142946821E+04  0.10142946821E+04  0.00000000000E+00 0.  1.
         21   -1    0    0  501  503 -0.00000000000E+00 -0.00000000000E+00 -0.46595371327E+02  0.46595371327E+02  0.00000000000E+00 0.  1.
          6    1    1    2  501    0 -0.63535975718E+02  0.41494993747E+02  0.22135251299E+03  0.29100616785E+03  0.17300000000E+03 0.  1.
         -6    1    1    2    0  502  0.63535975718E+02 -0.41494993747E+02  0.74634679774E+03  0.76988388554E+03  0.17300000000E+03 0.  1.
<mgrwt>
<rscale>  2 0.18891176E+03</rscale>
<asrwt>0</asrwt>
<pdfrwt beam="1">  1       21 0.15604532E+00 0.18891176E+03</pdfrwt>
<pdfrwt beam="2">  1       21 0.71685195E-02 0.18891176E+03</pdfrwt>
<totfact> 0.39167964E+04</totfact>
</mgrwt>
</event>
<event>
 4    1  0.4023583E+000  0.1843243E+03  0.7546771E-02  0.1163682E+00
         21   -1    0    0  501  502  0.00000000000E+00  0.00000000000E+00  0.61058543329E+02  0.61058543329E+02  0.00000000000E+00 0.  1.
         21   -1    0    0  502  503 -0.00000000000E+00 -0.00000000000E+00 -0.62024891141E+03  0.62024891141E+03  0.00000000000E+00 0.  1.
          6    1    1    2  501    0 -0.52866200753E+02  0.35377994837E+02 -0.17033307234E+03  0.25097568256E+03  0.17300000000E+03 0.  1.
         -6    1    1    2    0  503  0.52866200753E+02 -0.35377994837E+02 -0.38885729574E+03  0.43033177219E+03  0.17300000000E+03 0.  1.
<mgrwt>
<rscale>  2 0.18432427E+03</rscale>
<asrwt>0</asrwt>
<pdfrwt beam="1">  1       21 0.93936227E-02 0.18432427E+03</pdfrwt>
<pdfrwt beam="2">  1       21 0.95422903E-01 0.18432427E+03</pdfrwt>
<totfact> 0.83360082E+04</totfact>
</mgrwt>
</event>
<event>
 4    1  0.4023583E+000  0.1734349E+03  0.7546771E-02  0.1174312E+00
         21   -1    0    0  503  502  0.00000000000E+00  0.00000000000E+00  0.92102903377E+03  0.92102903377E+03  0.00000000000E+00 0.  1.
         21   -1    0    0  501  503 -0.00000000000E+00 -0.00000000000E+00 -0.45097020491E+02  0.45097020491E+02  0.00000000000E+00 0.  1.
          6    1    1    2  501    0  0.12184401558E+02 -0.14853670017E+01  0.18427229539E+03  0.25305324500E+03  0.17300000000E+03 0.  1.
         -6    1    1    2    0  502 -0.12184401558E+02  0.14853670017E+01  0.69165971789E+03  0.71307280926E+03  0.17300000000E+03 0.  1.
<mgrwt>
<rscale>  2 0.17343490E+03</rscale>
<asrwt>0</asrwt>
<pdfrwt beam="1">  1       21 0.14169676E+00 0.17343490E+03</pdfrwt>
<pdfrwt beam="2">  1       21 0.69380038E-02 0.17343490E+03</pdfrwt>
<totfact> 0.53840854E+04</totfact>
</mgrwt>
</event>
<event>
 4    1  0.4023583E+000  0.2434015E+03  0.7546771E-02  0.1117547E+00
         21   -1    0    0  501  502  0.00000000000E+00  0.00000000000E+00  0.33559056078E+03  0.33559056078E+03  0.00000000000E+00 0.  1.
         21   -1    0    0  502  503 -0.00000000000E+00 -0.00000000000E+00 -0.43419115269E+03  0.43419115269E+03  0.00000000000E+00 0. -1.
          6    1    1    2  501    0  0.21033993885E+02  0.16992011628E+03  0.24719333684E+03  0.34691327532E+03  0.17300000000E+03 0.  1.
         -6    1    1    2    0  503 -0.21033993885E+02 -0.16992011628E+03 -0.34579392875E+03  0.42286843814E+03  0.17300000000E+03 0. -1.
<mgrwt>
<rscale>  2 0.24340147E+03</rscale>
<asrwt>0</asrwt>
<pdfrwt beam="1">  1       21 0.51629318E-01 0.24340147E+03</pdfrwt>
<pdfrwt beam="2">  1       21 0.66798638E-01 0.24340147E+03</pdfrwt>
<totfact> 0.70718584E+03</totfact>
</mgrwt>
</event>
<event>
 4    1  0.4023583E+000  0.2916756E+03  0.7546771E-02  0.1089478E+00
         21   -1    0    0  501  502  0.00000000000E+00  0.00000000000E+00  0.31832013542E+03  0.31832013542E+03  0.00000000000E+00 0.  1.
         21   -1    0    0  502  503 -0.00000000000E+00 -0.00000000000E+00 -0.31084339332E+03  0.31084339332E+03  0.00000000000E+00 0.  1.
          6    1    1    2  501    0 -0.18144506675E+03  0.14907505570E+03  0.12153050154E+03  0.31598156162E+03  0.17300000000E+03 0.  1.
         -6    1    1    2    0  503  0.18144506675E+03 -0.14907505570E+03 -0.11405375945E+03  0.31318196712E+03  0.17300000000E+03 0.  1.
<mgrwt>
<rscale>  2 0.29167565E+03</rscale>
<asrwt>0</asrwt>
<pdfrwt beam="1">  1       21 0.48972329E-01 0.29167565E+03</pdfrwt>
<pdfrwt beam="2">  1       21 0.47822060E-01 0.29167565E+03</pdfrwt>
<totfact> 0.15789443E+04</totfact>
</mgrwt>
</event>
<event>
 4    1  0.4023583E+000  0.1911541E+03  0.7546771E-02  0.1157425E+00
         21   -1    0    0  501  502  0.00000000000E+00  0.00000000000E+00  0.11970612181E+03  0.11970612181E+03  0.00000000000E+00 0.  1.
         21   -1    0    0  502  503 -0.00000000000E+00 -0.00000000000E+00 -0.31526137027E+03  0.31526137027E+03  0.00000000000E+00 0.  1.
          6    1    1    2  501    0 -0.19128485466E+02  0.79025229708E+02 -0.59015098702E+02  0.20005666138E+03  0.17300000000E+03 0.  1.
         -6    1    1    2    0  503  0.19128485466E+02 -0.79025229708E+02 -0.13654014975E+03  0.23491083070E+03  0.17300000000E+03 0.  1.
<mgrwt>
<rscale>  2 0.19115409E+03</rscale>
<asrwt>0</asrwt>
<pdfrwt beam="1">  1       21 0.18416327E-01 0.19115409E+03</pdfrwt>
<pdfrwt beam="2">  1       21 0.48501748E-01 0.19115409E+03</pdfrwt>
<totfact> 0.10931233E+05</totfact>
</mgrwt>
</event>
<event>
 4    1  0.4023583E+000  0.2103040E+03  0.7546771E-02  0.1141325E+00
         21   -1    0    0  503  502  0.00000000000E+00  0.00000000000E+00  0.51322391832E+03  0.51322391832E+03  0.00000000000E+00 0.  1.
         21   -1    0    0  501  503 -0.00000000000E+00 -0.00000000000E+00 -0.86977359125E+02  0.86977359125E+02  0.00000000000E+00 0.  1.
          6    1    1    2  501    0 -0.10118305131E+03  0.63724057484E+02  0.24192257244E+03  0.32055311016E+03  0.17300000000E+03 0.  1.
         -6    1    1    2    0  502  0.10118305131E+03 -0.63724057484E+02  0.18432398675E+03  0.27964816728E+03  0.17300000000E+03 0.  1.
<mgrwt>
<rscale>  2 0.21030398E+03</rscale>
<asrwt>0</asrwt>
<pdfrwt beam="1">  1       21 0.78957524E-01 0.21030398E+03</pdfrwt>
<pdfrwt beam="2">  1       21 0.13381132E-01 0.21030398E+03</pdfrwt>
<totfact> 0.67805222E+04</totfact>
</mgrwt>
</event>
<event>
 4    1  0.4023583E+000  0.3143678E+03  0.7546771E-02  0.1078271E+00
         21   -1    0    0  503  502  0.00000000000E+00  0.00000000000E+00  0.13304604266E+03  0.13304604266E+03  0.00000000000E+00 0. -1.
         21   -1    0    0  501  503 -0.00000000000E+00 -0.00000000000E+00 -0.84434495604E+03  0.84434495604E+03  0.00000000000E+00 0.  1.
          6    1    1    2  501    0  0.25348297458E+03  0.68150399098E+02 -0.52512210166E+03  0.61202966999E+03  0.17300000000E+03 0.  1.
         -6    1    1    2    0  502 -0.25348297458E+03 -0.68150399098E+02 -0.18617681172E+03  0.36536132871E+03  0.17300000000E+03 0. -1.
<mgrwt>
<rscale>  2 0.31436777E+03</rscale>
<asrwt>0</asrwt>
<pdfrwt beam="1">  1       21 0.20468622E-01 0.31436777E+03</pdfrwt>
<pdfrwt beam="2">  1       21 0.12989922E+00 0.31436777E+03</pdfrwt>
<totfact> 0.89078093E+03</totfact>
</mgrwt>
</event>
<event>
 4    1  0.4023583E+000  0.1819533E+03  0.7546771E-02  0.1165926E+00
         21   -1    0    0  503  502  0.00000000000E+00  0.00000000000E+00  0.95288521280E+02  0.95288521280E+02  0.00000000000E+00 0.  1.
         21   -1    0    0  501  503 -0.00000000000E+00 -0.00000000000E+00 -0.36845640649E+03  0.36845640649E+03  0.00000000000E+00 0.  1.
          6    1    1    2  501    0 -0.40576918338E+02  0.39134539690E+02 -0.19196232506E+03  0.26449297295E+03  0.17300000000E+03 0.  1.
         -6    1    1    2    0  502  0.40576918338E+02 -0.39134539690E+02 -0.81205560145E+02  0.19925195481E+03  0.17300000000E+03 0.  1.
<mgrwt>
<rscale>  2 0.18195329E+03</rscale>
<asrwt>0</asrwt>
<pdfrwt beam="1">  1       21 0.14659772E-01 0.18195329E+03</pdfrwt>
<pdfrwt beam="2">  1       21 0.56685602E-01 0.18195329E+03</pdfrwt>
<totfact> 0.12012155E+05</totfact>
</mgrwt>
</event>
<event>
 4    1  0.4023583E+000  0.2081667E+03  0.7546771E-02  0.1143026E+00
         21   -1    0    0  501  502  0.00000000000E+00  0.00000000000E+00  0.67518783690E+02  0.67518783690E+02  0.00000000000E+00 0.  1.
         21   -1    0    0  502  503 -0.00000000000E+00 -0.00000000000E+00 -0.71689983346E+03  0.71689983346E+03  0.00000000000E+00 0.  1.
          6    1    1    2  501    0 -0.11561944957E+03  0.60418453940E+01 -0.19774527138E+03  0.28711766468E+03  0.17300000000E+03 0.  1.
         -6    1    1    2    0  503  0.11561944957E+03 -0.60418453940E+01 -0.45163577838E+03  0.49730095247E+03  0.17300000000E+03 0.  1.
<mgrwt>
<rscale>  2 0.20816667E+03</rscale>
<asrwt>0</asrwt>
<pdfrwt beam="1">  1       21 0.10387505E-01 0.20816667E+03</pdfrwt>
<pdfrwt beam="2">  1       21 0.11029228E+00 0.20816667E+03</pdfrwt>
<totfact> 0.48835596E+04</totfact>
</mgrwt>
</event>
<event>
 4    1  0.4023583E+000  0.2562809E+03  0.7546771E-02  0.1109399E+00
         21   -1    0    0  501  502  0.00000000000E+00  0.00000000000E+00  0.30546778026E+03  0.30546778026E+03  0.00000000000E+00 0.  1.
         21   -1    0    0  502  503 -0.00000000000E+00 -0.00000000000E+00 -0.21868518860E+03  0.21868518860E+03  0.00000000000E+00 0.  1.
          6    1    1    2  501    0  0.14350605895E+03  0.12311337425E+03  0.77347057314E+02  0.26769844817E+03  0.17300000000E+03 0.  1.
         -6    1    1    2    0  503 -0.14350605895E+03 -0.12311337425E+03  0.94355343527E+01  0.25645452069E+03  0.17300000000E+03 0.  1.
<mgrwt>
<rscale>  2 0.25628088E+03</rscale>
<asrwt>0</asrwt>
<pdfrwt beam="1">  1       21 0.46995043E-01 0.25628088E+03</pdfrwt>
<pdfrwt beam="2">  1       21 0.33643875E-01 0.25628088E+03</pdfrwt>
<totfact> 0.35781477E+04</totfact>
</mgrwt>
</event>
<event>
 4    1  0.4023583E+000  0.1846575E+03  0.7546771E-02  0.1163370E+00
         21   -1    0    0  501  502  0.00000000000E+00  0.00000000000E+00  0.77963998320E+02  0.77963998320E+02  0.00000000000E+00 0.  1.
         21   -1    0    0  502  503 -0.00000000000E+00 -0.00000000000E+00 -0.47889663178E+03  0.47889663178E+03  0.00000000000E+00 0.  1.
          6    1    1    2  501    0  0.39061254862E+01 -0.64452664009E+02 -0.11846768387E+03  0.21939233313E+03  0.17300000000E+03 0.  1.
         -6    1    1    2    0  503 -0.39061254862E+01  0.64452664009E+02 -0.28246494959E+03  0.33746829697E+03  0.17300000000E+03 0.  1.
<mgrwt>
<rscale>  2 0.18465753E+03</rscale>
<asrwt>0</asrwt>
<pdfrwt beam="1">  1       21 0.11994461E-01 0.18465753E+03</pdfrwt>
<pdfrwt beam="2">  1       21 0.73676405E-01 0.18465753E+03</pdfrwt>
<totfact> 0.97462099E+04</totfact>
</mgrwt>
</event>
<event>
 4    1  0.4023583E+000  0.3077654E+03  0.7546771E-02  0.1081422E+00
         21   -1    0    0  503  502  0.00000000000E+00  0.00000000000E+00  0.62223809993E+03  0.62223809993E+03  0.00000000000E+00 0. -1.
         21   -1    0    0  501  503 -0.00000000000E+00 -0.00000000000E+00 -0.15274311664E+03  0.15274311664E+03  0.00000000000E+00 0.  1.
          6    1    1    2  501    0  0.20476541041E+03 -0.15120081749E+03  0.21215724831E+03  0.37380510767E+03  0.17300000000E+03 0.  1.
         -6    1    1    2    0  502 -0.20476541041E+03  0.15120081749E+03  0.25733773497E+03  0.40117610890E+03  0.17300000000E+03 0. -1.
<mgrwt>
<rscale>  2 0.30776543E+03</rscale>
<asrwt>0</asrwt>
<pdfrwt beam="1">  1       21 0.95728937E-01 0.30776543E+03</pdfrwt>
<pdfrwt beam="2">  1       21 0.23498941E-01 0.30776543E+03</pdfrwt>
<totfact> 0.14588613E+04</totfact>
</mgrwt>
</event>
<event>
 4    1  0.4023583E+000  0.1733448E+03  0.7546771E-02  0.1174404E+00
         21   -1    0    0  503  502  0.00000000000E+00  0.00000000000E+00  0.21291914736E+03  0.21291914736E+03  0.00000000000E+00 0. -1.
         21   -1    0    0  501  503 -0.00000000000E+00 -0.00000000000E+00 -0.14593757518E+03  0.14593757518E+03  0.00000000000E+00 0. -1.
          6    1    1    2  501    0  0.96269394411E+01  0.51718200913E+01  0.91074939584E+00  0.17334720981E+03  0.17300000000E+03 0. -1.
         -6    1    1    2    0  502 -0.96269394411E+01 -0.51718200913E+01  0.66070822789E+02  0.18550951272E+03  0.17300000000E+03 0. -1.
<mgrwt>
<rscale>  2 0.17334482E+03</rscale>
<asrwt>0</asrwt>
<pdfrwt beam="1">  1       21 0.32756792E-01 0.17334482E+03</pdfrwt>
<pdfrwt beam="2">  1       21 0.22451935E-01 0.17334482E+03</pdfrwt>
<totfact> 0.16763897E+05</totfact>
</mgrwt>
</event>
<event>
 4    1  0.4023583E+000  0.2489648E+03  0.7546771E-02  0.1113961E+00
         21   -1    0    0  501  502  0.00000000000E+00  0.00000000000E+00  0.63470502378E+02  0.63470502378E+02  0.00000000000E+00 0.  1.
         21   -1    0    0  502  503 -0.00000000000E+00 -0.00000000000E+00 -0.98734555307E+03  0.98734555307E+03  0.00000000000E+00 0. -1.
          6    1    1    2  501    0 -0.12373190256E+02 -0.17860960756E+03 -0.40705293960E+03  0.47715362661E+03  0.17300000000E+03 0. -1.
         -6    1    1    2    0  503  0.12373190256E+02  0.17860960756E+03 -0.51682211110E+03  0.57366242884E+03  0.17300000000E+03 0. -1.
<mgrwt>
<rscale>  2 0.24896483E+03</rscale>
<asrwt>0</asrwt>
<pdfrwt beam="1">  1       21 0.97646941E-02 0.24896483E+03</pdfrwt>
<pdfrwt beam="2">  1       21 0.15189929E+00 0.24896483E+03</pdfrwt>
<totfact> 0.23660270E+04</totfact>
</mgrwt>
</event>
<event>
 4    1  0.4023583E+000  0.1979310E+03  0.7546771E-02  0.1151496E+00
         21   -1    0    0  501  502  0.00000000000E+00  0.00000000000E+00  0.51946241933E+02  0.51946241933E+02  0.00000000000E+00 0. -1.
         21   -1    0    0  502  503 -0.00000000000E+00 -0.00000000000E+00 -0.80173739459E+03  0.80173739459E+03  0.00000000000E+00 0. -1.
          6    1    1    2  501    0  0.22162439970E+02  0.93576129066E+02 -0.27093391860E+03  0.33553219506E+03  0.17300000000E+03 0. -1.
         -6    1    1    2    0  503 -0.22162439970E+02 -0.93576129066E+02 -0.47885723406E+03  0.51815144146E+03  0.17300000000E+03 0. -1.
<mgrwt>
<rscale>  2 0.19793096E+03</rscale>
<asrwt>0</asrwt>
<pdfrwt beam="1">  1       21 0.79917297E-02 0.19793096E+03</pdfrwt>
<pdfrwt beam="2">  1       21 0.12334421E+00 0.19793096E+03</pdfrwt>
<totfact> 0.59129489E+04</totfact>
</mgrwt>
</event>
<event>
 4    1  0.4023583E+000  0.1923492E+03  0.7546771E-02  0.1156359E+00
         21   -1    0    0  501  502  0.00000000000E+00  0.00000000000E+00  0.83150428768E+02  0.83150428768E+02  0.00000000000E+00 0.  1.
         21   -1    0    0  502  503 -0.00000000000E+00 -0.00000000000E+00 -0.10718117608E+04  0.10718117608E+04  0.00000000000E+00 0.  1.
          6    1    1    2  501    0 -0.40222508121E+02  0.73833340849E+02 -0.52696551538E+02  0.19943705504E+03  0.17300000000E+03 0.  1.
         -6    1    1    2    0  503  0.40222508121E+02 -0.73833340849E+02 -0.93596478048E+03  0.95552513451E+03  0.17300000000E+03 0.  1.
<mgrwt>
<rscale>  2 0.19234919E+03</rscale>
<asrwt>0</asrwt>
<pdfrwt beam="1">  1       21 0.12792374E-01 0.19234919E+03</pdfrwt>
<pdfrwt beam="2">  1       21 0.16489411E+00 0.19234919E+03</pdfrwt>
<totfact> 0.12140364E+04</totfact>
</mgrwt>
</event>
<event>
 4    1  0.4023583E+000  0.2087891E+03  0.7546771E-02  0.1142528E+00
         21   -1    0    0  503  502  0.00000000000E+00  0.00000000000E+00  0.68116399803E+03  0.68116399803E+03  0.00000000000E+00 0. -1.
         21   -1    0    0  501  503 -0.00000000000E+00 -0.00000000000E+00 -0.91324551708E+02  0.91324551708E+02  0.00000000000E+00 0.  1.
          6    1    1    2  501    0 -0.11202968430E+03  0.33365203890E+02  0.83637200818E+02  0.22491791471E+03  0.17300000000E+03 0.  1.
         -6    1    1    2    0  502  0.11202968430E+03 -0.33365203890E+02  0.50620224551E+03  0.54757063503E+03  0.17300000000E+03 0. -1.
<mgrwt>
<rscale>  2 0.20878910E+03</rscale>
<asrwt>0</asrwt>
<pdfrwt beam="1">  1       21 0.10479446E+00 0.20878910E+03</pdfrwt>
<pdfrwt beam="2">  1       21 0.14049931E-01 0.20878910E+03</pdfrwt>
<totfact> 0.32135493E+04</totfact>
</mgrwt>
</event>
<event>
 4    1  0.4023583E+000  0.2178858E+03  0.7546771E-02  0.1135469E+00
         21   -1    0    0  503  502  0.00000000000E+00  0.00000000000E+00  0.16053437967E+03  0.16053437967E+03  0.00000000000E+00 0.  1.
         21   -1    0    0  501  503 -0.00000000000E+00 -0.00000000000E+00 -0.42236867614E+03  0.42236867614E+03  0.00000000000E+00 0.  1.
          6    1    1    2  501    0 -0.10934808584E+03  0.74754414143E+02 -0.29050878783E+03  0.36313851644E+03  0.17300000000E+03 0.  1.
         -6    1    1    2    0  502  0.10934808584E+03 -0.74754414143E+02  0.28674491359E+02  0.21976453937E+03  0.17300000000E+03 0.  1.
<mgrwt>
<rscale>  2 0.21788581E+03</rscale>
<asrwt>0</asrwt>
<pdfrwt beam="1">  1       21 0.24697597E-01 0.21788581E+03</pdfrwt>
<pdfrwt beam="2">  1       21 0.64979797E-01 0.21788581E+03</pdfrwt>
<totfact> 0.33363433E+04</totfact>
</mgrwt>
</event>
<event>
 4    1  0.4023583E+000  0.2722368E+03  0.7546771E-02  0.1100006E+00
         21   -1    0    0  503  502  0.00000000000E+00  0.00000000000E+00  0.31386991874E+03  0.31386991874E+03  0.00000000000E+00 0.  1.
         21   -1    0    0  501  503 -0.00000000000E+00 -0.00000000000E+00 -0.24096194498E+03  0.24096194498E+03  0.00000000000E+00 0.  1.
          6    1    1    2  501    0 -0.12095776058E+03 -0.17191021081E+03  0.75753792877E+02  0.28258014360E+03  0.17300000000E+03 0.  1.
         -6    1    1    2    0  502  0.12095776058E+03  0.17191021081E+03 -0.28458191143E+01  0.27225172012E+03  0.17300000000E+03 0.  1.
<mgrwt>
<rscale>  2 0.27223685E+03</rscale>
<asrwt>0</asrwt>
<pdfrwt beam="1">  1       21 0.48287680E-01 0.27223685E+03</pdfrwt>
<pdfrwt beam="2">  1       21 0.37071068E-01 0.27223685E+03</pdfrwt>
<totfact> 0.27659819E+04</totfact>
</mgrwt>
</event>
<event>
 4    1  0.4023583E+000  0.2228760E+03  0.7546771E-02  0.1131757E+00
         21   -1    0    0  501  502  0.00000000000E+00  0.00000000000E+00  0.47615694398E+02  0.47615694398E+02  0.00000000000E+00 0.  1.
         21   -1    0    0  502  503 -0.00000000000E+00 -0.00000000000E+00 -0.10436666209E+04  0.10436666209E+04  0.00000000000E+00 0.  1.
          6    1    1    2  501    0 -0.13549583295E+03 -0.37223316004E+02 -0.50929929038E+03  0.55593116767E+03  0.17300000000E+03 0.  1.
         -6    1    1    2    0  503  0.13549583295E+03  0.37223316004E+02 -0.48675163612E+03  0.53535114763E+03  0.17300000000E+03 0.  1.
<mgrwt>
<rscale>  2 0.22287597E+03</rscale>
<asrwt>0</asrwt>
<pdfrwt beam="1">  1       21 0.73254921E-02 0.22287597E+03</pdfrwt>
<pdfrwt beam="2">  1       21 0.16056408E+00 0.22287597E+03</pdfrwt>
<totfact> 0.34230177E+04</totfact>
</mgrwt>
</event>
<event>
 4    1  0.4023583E+000  0.1983157E+03  0.7546771E-02  0.1151168E+00
         21   -1    0    0  501  502  0.00000000000E+00  0.00000000000E+00  0.78440540955E+02  0.78440540955E+02  0.00000000000E+00 0.  1.
         21   -1    0    0  502  503 -0.00000000000E+00 -0.00000000000E+00 -0.72230007310E+03  0.72230007310E+03  0.00000000000E+00 0.  1.
          6    1    1    2  501    0  0.86820427022E+02 -0.43154497549E+02 -0.10051153946E+03  0.22233233407E+03  0.17300000000E+03 0.  1.
         -6    1    1    2    0  503 -0.86820427022E+02  0.43154497549E+02 -0.54334799269E+03  0.57840827999E+03  0.17300000000E+03 0.  1.
<mgrwt>
<rscale>  2 0.19831565E+03</rscale>
<asrwt>0</asrwt>
<pdfrwt beam="1">  1       21 0.12067776E-01 0.19831565E+03</pdfrwt>
<pdfrwt beam="2">  1       21 0.11112309E+00 0.19831565E+03</pdfrwt>
<totfact> 0.36902138E+04</totfact>
</mgrwt>
</event>
<event>
 4    1  0.4023583E+000  0.1769593E+03  0.7546771E-02  0.1170779E+00
         21   -1    0    0  503  502  0.00000000000E+00  0.00000000000E+00  0.13291365958E+03  0.13291365958E+03  0.00000000000E+00 0.  1.
         21   -1    0    0  501  503 -0.00000000000E+00 -0.00000000000E+00 -0.32462495995E+03  0.32462495995E+03  0.00000000000E+00 0.  1.
          6    1    1    2  501    0  0.99889669735E+01 -0.35858391069E+02 -0.21565653650E+03  0.27896656683E+03  0.17300000000E+03 0.  1.
         -6    1    1    2    0  502 -0.99889669735E+01  0.35858391069E+02  0.23945236130E+02  0.17857205270E+03  0.17300000000E+03 0.  1.
<mgrwt>
<rscale>  2 0.17695933E+03</rscale>
<asrwt>0</asrwt>
<pdfrwt beam="1">  1       21 0.20448255E-01 0.17695933E+03</pdfrwt>
<pdfrwt beam="2">  1       21 0.49942302E-01 0.17695933E+03</pdfrwt>
<totfact> 0.85124907E+04</totfact>
</mgrwt>
</event>
<event>
 4    1  0.4023583E+000  0.2149211E+03  0.7546771E-02  0.1137727E+00
         21   -1    0    0  501  502  0.00000000000E+00  0.00000000000E+00  0.85520135434E+02  0.85520135434E+02  0.00000000000E+00 0. -1.
         21   -1    0    0  502  503 -0.00000000000E+00 -0.00000000000E+00 -0.62310327835E+03  0.62310327835E+03  0.00000000000E+00 0.  1.
          6    1    1    2  501    0 -0.43295714641E+02  0.11994815171E+03 -0.13949037636E+03  0.25621991160E+03  0.17300000000E+03 0. -1.
         -6    1    1    2    0  503  0.43295714641E+02 -0.11994815171E+03 -0.39809276655E+03  0.45240350218E+03  0.17300000000E+03 0.  1.
<mgrwt>
<rscale>  2 0.21492110E+03</rscale>
<asrwt>0</asrwt>
<pdfrwt beam="1">  1       21 0.13156943E-01 0.21492110E+03</pdfrwt>
<pdfrwt beam="2">  1       21 0.95862048E-01 0.21492110E+03</pdfrwt>
<totfact> 0.44602084E+04</totfact>
</mgrwt>
</event>
<event>
 4    1  0.4023583E+000  0.1915518E+03  0.7546771E-02  0.1157069E+00
         21   -1    0    0  503  502  0.00000000000E+00  0.00000000000E+00  0.43223991658E+03  0.43223991658E+03  0.00000000000E+00 0. -1.
         21   -1    0    0  501  503 -0.00000000000E+00 -0.00000000000E+00 -0.94446773100E+02  0.94446773100E+02  0.00000000000E+00 0. -1.
          6    1    1    2  501    0 -0.80736584302E+02 -0.15643339214E+02  0.85119894613E+02  0.20961275382E+03  0.17300000000E+03 0. -1.
         -6    1    1    2    0  502  0.80736584302E+02  0.15643339214E+02  0.25267324886E+03  0.31707393585E+03  0.17300000000E+03 0. -1.
<mgrwt>
<rscale>  2 0.19155185E+03</rscale>
<asrwt>0</asrwt>
<pdfrwt beam="1">  1       21 0.66498447E-01 0.19155185E+03</pdfrwt>
<pdfrwt beam="2">  1       21 0.14530273E-01 0.19155185E+03</pdfrwt>
<totfact> 0.86240355E+04</totfact>
</mgrwt>
</event>
<event>
 4    1  0.4023583E+000  0.1870505E+03  0.7546771E-02  0.1161149E+00
         21   -1    0    0  501  502  0.00000000000E+00  0.00000000000E+00  0.12886686766E+03  0.12886686766E+03  0.00000000000E+00 0.  1.
         21   -1    0    0  502  503 -0.00000000000E+00 -0.00000000000E+00 -0.30839716824E+03  0.30839716824E+03  0.00000000000E+00 0.  1.
          6    1    1    2  501    0  0.57921109936E+02  0.41280171186E+02 -0.14146340544E+02  0.18758471809E+03  0.17300000000E+03 0.  1.
         -6    1    1    2    0  503 -0.57921109936E+02 -0.41280171186E+02 -0.16538396003E+03  0.24967931782E+03  0.17300000000E+03 0.  1.
<mgrwt>
<rscale>  2 0.18705055E+03</rscale>
<asrwt>0</asrwt>
<pdfrwt beam="1">  1       21 0.19825672E-01 0.18705055E+03</pdfrwt>
<pdfrwt beam="2">  1       21 0.47445718E-01 0.18705055E+03</pdfrwt>
<totfact> 0.99904809E+04</totfact>
</mgrwt>
</event>
<event>
 4    1  0.4023583E+000  0.1781613E+03  0.7546771E-02  0.1169594E+00
         21   -1    0    0  501  502  0.00000000000E+00  0.00000000000E+00  0.52513296741E+02  0.52513296741E+02  0.00000000000E+00 0. -1.
         21   -1    0    0  502  503 -0.00000000000E+00 -0.00000000000E+00 -0.69878453440E+03  0.69878453440E+03  0.00000000000E+00 0.  1.
          6    1    1    2  501    0 -0.31920270278E+02  0.28169985152E+02 -0.18511146952E+03  0.25691965255E+03  0.17300000000E+03 0. -1.
         -6    1    1    2    0  503  0.31920270278E+02 -0.28169985152E+02 -0.46115976814E+03  0.49437817859E+03  0.17300000000E+03 0.  1.
<mgrwt>
<rscale>  2 0.17816131E+03</rscale>
<asrwt>0</asrwt>
<pdfrwt beam="1">  1       21 0.80789692E-02 0.17816131E+03</pdfrwt>
<pdfrwt beam="2">  1       21 0.10750531E+00 0.17816131E+03</pdfrwt>
<totfact> 0.81962038E+04</totfact>
</mgrwt>
</event>
<event>
 4    1  0.4023583E+000  0.1790954E+03  0.7546771E-02  0.1168681E+00
         21   -1    0    0  503  502  0.00000000000E+00  0.00000000000E+00  0.77263533565E+03  0.77263533565E+03  0.00000000000E+00 0.  1.
         21   -1    0    0  501  503 -0.00000000000E+00 -0.00000000000E+00 -0.52151779999E+02  0.52151779999E+02  0.00000000000E+00 0.  1.
          6    1    1    2  501    0 -0.30771106834E+02  0.34631018255E+02  0.17398881082E+03  0.24969436264E+03  0.17300000000E+03 0.  1.
         -6    1    1    2    0  502  0.30771106834E+02 -0.34631018255E+02  0.54649474482E+03  0.57509275301E+03  0.17300000000E+03 0.  1.
<mgrwt>
<rscale>  2 0.17909542E+03</rscale>
<asrwt>0</asrwt>
<pdfrwt beam="1">  1       21 0.11886697E+00 0.17909542E+03</pdfrwt>
<pdfrwt beam="2">  1       21 0.80233514E-02 0.17909542E+03</pdfrwt>
<totfact> 0.64978985E+04</totfact>
</mgrwt>
</event>
<event>
 4    1  0.4023583E+000  0.1854646E+03  0.7546771E-02  0.1162617E+00
         21   -1    0    0  501  502  0.00000000000E+00  0.00000000000E+00  0.36145642056E+03  0.36145642056E+03  0.00000000000E+00 0.  1.
         21   -1    0    0  502  503 -0.00000000000E+00 -0.00000000000E+00 -0.11477143294E+03  0.11477143294E+03  0.00000000000E+00 0.  1.
          6    1    1    2  501    0 -0.66000845446E+02  0.10583378714E+02  0.22176494452E+03  0.28909654118E+03  0.17300000000E+03 0.  1.
         -6    1    1    2    0  503  0.66000845446E+02 -0.10583378714E+02  0.24920043102E+02  0.18713131233E+03  0.17300000000E+03 0.  1.
<mgrwt>
<rscale>  2 0.18546460E+03</rscale>
<asrwt>0</asrwt>
<pdfrwt beam="1">  1       21 0.55608680E-01 0.18546460E+03</pdfrwt>
<pdfrwt beam="2">  1       21 0.17657144E-01 0.18546460E+03</pdfrwt>
<totfact> 0.88901747E+04</totfact>
</mgrwt>
</event>
<event>
 4    1  0.4023583E+000  0.2752843E+03  0.7546771E-02  0.1098293E+00
         21   -1    0    0  501  502  0.00000000000E+00  0.00000000000E+00  0.84104896860E+03  0.84104896860E+03  0.00000000000E+00 0.  1.
         21   -1    0    0  502  503 -0.00000000000E+00 -0.00000000000E+00 -0.18634996276E+03  0.18634996276E+03  0.00000000000E+00 0. -1.
          6    1    1    2  501    0  0.21197510251E+03  0.30315066789E+02  0.69652840168E+03  0.74895477948E+03  0.17300000000E+03 0.  1.
         -6    1    1    2    0  503 -0.21197510251E+03 -0.30315066789E+02 -0.41829395843E+02  0.27844415188E+03  0.17300000000E+03 0. -1.
<mgrwt>
<rscale>  2 0.27528430E+03</rscale>
<asrwt>0</asrwt>
<pdfrwt beam="1">  1       21 0.12939215E+00 0.27528430E+03</pdfrwt>
<pdfrwt beam="2">  1       21 0.28669225E-01 0.27528430E+03</pdfrwt>
<totfact> 0.48041071E+03</totfact>
</mgrwt>
</event>
<event>
 4    1  0.4023583E+000  0.2466058E+03  0.7546771E-02  0.1115469E+00
         21   -1    0    0  501  502  0.00000000000E+00  0.00000000000E+00  0.40859618593E+02  0.40859618593E+02  0.00000000000E+00 0.  1.
         21   -1    0    0  502  503 -0.00000000000E+00 -0.00000000000E+00 -0.15742481438E+04  0.15742481438E+04  0.00000000000E+00 0.  1.
          6    1    1    2  501    0 -0.16427940752E+03 -0.62431637182E+02 -0.57808470151E+03  0.62848735483E+03  0.17300000000E+03 0.  1.
         -6    1    1    2    0  503  0.16427940752E+03  0.62431637182E+02 -0.95530382370E+03  0.98662040757E+03  0.17300000000E+03 0.  1.
<mgrwt>
<rscale>  2 0.24660583E+03</rscale>
<asrwt>0</asrwt>
<pdfrwt beam="1">  1       21 0.62860951E-02 0.24660583E+03</pdfrwt>
<pdfrwt beam="2">  1       21 0.24219202E+00 0.24660583E+03</pdfrwt>
<totfact> 0.12880342E+04</totfact>
</mgrwt>
</event>
<event>
 4    1  0.4023583E+000  0.1951667E+03  0.7546771E-02  0.1153882E+00
         21   -1    0    0  503  502  0.00000000000E+00  0.00000000000E+00  0.13742923450E+04  0.13742923450E+04  0.00000000000E+00 0. -1.
         21   -1    0    0  501  503 -0.00000000000E+00 -0.00000000000E+00 -0.75676021193E+02  0.75676021193E+02  0.00000000000E+00 0. -1.
          6    1    1    2  501    0  0.40510506059E+02 -0.80746114752E+02  0.72158325058E+02  0.20807897545E+03  0.17300000000E+03 0. -1.
         -6    1    1    2    0  502 -0.40510506059E+02  0.80746114752E+02  0.12264579987E+04  0.12418893907E+04  0.17300000000E+03 0. -1.
<mgrwt>
<rscale>  2 0.19516669E+03</rscale>
<asrwt>0</asrwt>
<pdfrwt beam="1">  1       21 0.21142957E+00 0.19516669E+03</pdfrwt>
<pdfrwt beam="2">  1       21 0.11642466E-01 0.19516669E+03</pdfrwt>
<totfact> 0.70251718E+03</totfact>
</mgrwt>
</event>
<event>
 4    1  0.4023583E+000  0.1993022E+03  0.7546771E-02  0.1150329E+00
         21   -1    0    0  503  502  0.00000000000E+00  0.00000000000E+00  0.33660312387E+03  0.33660312387E+03  0.00000000000E+00 0.  1.
         21   -1    0    0  501  503 -0.00000000000E+00 -0.00000000000E+00 -0.51294203131E+03  0.51294203131E+03  0.00000000000E+00 0.  1.
          6    1    1    2  501    0 -0.77662871423E+02  0.61325834637E+02 -0.46089176835E+03  0.50213803055E+03  0.17300000000E+03 0.  1.
         -6    1    1    2    0  502  0.77662871423E+02 -0.61325834637E+02  0.28455286091E+03  0.34740712463E+03  0.17300000000E+03 0.  1.
<mgrwt>
<rscale>  2 0.19930223E+03</rscale>
<asrwt>0</asrwt>
<pdfrwt beam="1">  1       21 0.51785097E-01 0.19930223E+03</pdfrwt>
<pdfrwt beam="2">  1       21 0.78914158E-01 0.19930223E+03</pdfrwt>
<totfact> 0.49966007E+03</totfact>
</mgrwt>
</event>
<event>
 4    1  0.4023583E+000  0.3520997E+03  0.7546771E-02  0.1061757E+00
         21   -1    0    0  503  502  0.00000000000E+00  0.00000000000E+00  0.15947892570E+03  0.15947892570E+03  0.00000000000E+00 0. -1.
         21   -1    0    0  501  503 -0.00000000000E+00 -0.00000000000E+00 -0.77872050447E+03  0.77872050447E+03  0.00000000000E+00 0.  1.
          6    1    1    2  501    0  0.30448970764E+03 -0.36485521732E+02 -0.29008733099E+03  0.45620700888E+03  0.17300000000E+03 0.  1.
         -6    1    1    2    0  502 -0.30448970764E+03  0.36485521732E+02 -0.32915424778E+03  0.48199242129E+03  0.17300000000E+03 0. -1.
<mgrwt>
<rscale>  2 0.35209967E+03</rscale>
<asrwt>0</asrwt>
<pdfrwt beam="1">  1       21 0.24535219E-01 0.35209967E+03</pdfrwt>
<pdfrwt beam="2">  1       21 0.11980316E+00 0.35209967E+03</pdfrwt>
<totfact> 0.76127015E+03</totfact>
</mgrwt>
</event>
<event>
 4    1  0.4023583E+000  0.1915066E+03  0.7546771E-02  0.1157109E+00
         21   -1    0    0  503  502  0.00000000000E+00  0.00000000000E+00  0.48930745038E+03  0.48930745038E+03  0.00000000000E+00 0.  1.
         21   -1    0    0  501  503 -0.00000000000E+00 -0.00000000000E+00 -0.86501401465E+02  0.86501401465E+02  0.00000000000E+00 0.  1.
          6    1    1    2  501    0  0.71291962633E+02 -0.40782900697E+02  0.96204857203E+02  0.21431323682E+03  0.17300000000E+03 0.  1.
         -6    1    1    2    0  502 -0.71291962633E+02  0.40782900697E+02  0.30660119171E+03  0.36149561503E+03  0.17300000000E+03 0.  1.
<mgrwt>
<rscale>  2 0.19150663E+03</rscale>
<asrwt>0</asrwt>
<pdfrwt beam="1">  1       21 0.75278068E-01 0.19150663E+03</pdfrwt>
<pdfrwt beam="2">  1       21 0.13307908E-01 0.19150663E+03</pdfrwt>
<totfact> 0.76881413E+04</totfact>
</mgrwt>
</event>
<event>
 4    1  0.4023583E+000  0.2308530E+03  0.7546771E-02  0.1126041E+00
         21   -1    0    0  503  502  0.00000000000E+00  0.00000000000E+00  0.44318413511E+03  0.44318413511E+03  0.00000000000E+00 0. -1.
         21   -1    0    0  501  503 -0.00000000000E+00 -0.00000000000E+00 -0.39571792750E+03  0.39571792750E+03  0.00000000000E+00 0. -1.
          6    1    1    2  501    0  0.11228447121E+03 -0.10371265321E+03 -0.32623101950E+03  0.39964959026E+03  0.17300000000E+03 0. -1.
         -6    1    1    2    0  502 -0.11228447121E+03  0.10371265321E+03  0.37369722711E+03  0.43925247235E+03  0.17300000000E+03 0. -1.
<mgrwt>
<rscale>  2 0.23085302E+03</rscale>
<asrwt>0</asrwt>
<pdfrwt beam="1">  1       21 0.68182174E-01 0.23085302E+03</pdfrwt>
<pdfrwt beam="2">  1       21 0.60879681E-01 0.23085302E+03</pdfrwt>
<totfact> 0.47931940E+03</totfact>
</mgrwt>
</event>
<event>
 4    1  0.4023583E+000  0.1914825E+03  0.7546771E-02  0.1157131E+00
         21   -1    0    0  503  502  0.00000000000E+00  0.00000000000E+00  0.12865504372E+03  0.12865504372E+03  0.00000000000E+00 0.  1.
         21   -1    0    0  501  503 -0.00000000000E+00 -0.00000000000E+00 -0.10752467735E+04  0.10752467735E+04  0.00000000000E+00 0. -1.
          6    1    1    2  501    0 -0.70109190653E+02 -0.42675983638E+02 -0.98934472204E+03  0.10077045783E+04  0.17300000000E+03 0. -1.
         -6    1    1    2    0  502  0.70109190653E+02  0.42675983638E+02  0.42752992269E+02  0.19619723887E+03  0.17300000000E+03 0.  1.
<mgrwt>
<rscale>  2 0.19148247E+03</rscale>
<asrwt>0</asrwt>
<pdfrwt beam="1">  1       21 0.19793083E-01 0.19148247E+03</pdfrwt>
<pdfrwt beam="2">  1       21 0.16542258E+00 0.19148247E+03</pdfrwt>
<totfact> 0.54174774E+03</totfact>
</mgrwt>
</event>
<event>
 4    1  0.4023583E+000  0.2366639E+03  0.7546771E-02  0.1122035E+00
         21   -1    0    0  503  502  0.00000000000E+00  0.00000000000E+00  0.40405469085E+03  0.40405469085E+03  0.00000000000E+00 0. -1.
         21   -1    0    0  501  503 -0.00000000000E+00 -0.00000000000E+00 -0.21738742870E+03  0.21738742870E+03  0.00000000000E+00 0. -1.
          6    1    1    2  501    0  0.15795272575E+03 -0.33641458042E+02 -0.93703794629E+02  0.25453921584E+03  0.17300000000E+03 0. -1.
         -6    1    1    2    0  502 -0.15795272575E+03  0.33641458042E+02  0.28037105678E+03  0.36690290371E+03  0.17300000000E+03 0. -1.
<mgrwt>
<rscale>  2 0.23666392E+03</rscale>
<asrwt>0</asrwt>
<pdfrwt beam="1">  1       21 0.62162260E-01 0.23666392E+03</pdfrwt>
<pdfrwt beam="2">  1       21 0.33444220E-01 0.23666392E+03</pdfrwt>
<totfact> 0.20168022E+04</totfact>
</mgrwt>
</event>
<event>
 4    1  0.4023583E+000  0.1911807E+03  0.7546771E-02  0.1157401E+00
         21   -1    0    0  501  502  0.00000000000E+00  0.00000000000E+00  0.23428297015E+03  0.23428297015E+03  0.00000000000E+00 0. -1.
         21   -1    0    0  502  503 -0.00000000000E+00 -0.00000000000E+00 -0.18908171495E+03  0.18908171495E+03  0.00000000000E+00 0. -1.
          6    1    1    2  501    0  0.71520939197E+02 -0.38804730278E+02  0.11113265238E+03  0.22113461570E+03  0.17300000000E+03 0. -1.
         -6    1    1    2    0  503 -0.71520939197E+02  0.38804730278E+02 -0.65931397186E+02  0.20223006940E+03  0.17300000000E+03 0. -1.
<mgrwt>
<rscale>  2 0.19118068E+03</rscale>
<asrwt>0</asrwt>
<pdfrwt beam="1">  1       21 0.36043534E-01 0.19118068E+03</pdfrwt>
<pdfrwt beam="2">  1       21 0.29089495E-01 0.19118068E+03</pdfrwt>
<totfact> 0.84039979E+04</totfact>
</mgrwt>
</event>
<event>
 4    1  0.4023583E+000  0.2009352E+03  0.7546771E-02  0.1148952E+00
         21   -1    0    0  501  502  0.00000000000E+00  0.00000000000E+00  0.17798565220E+04  0.17798565220E+04  0.00000000000E+00 0.  1.
         21   -1    0    0  502  503 -0.00000000000E+00 -0.00000000000E+00 -0.25127840756E+02  0.25127840756E+02  0.00000000000E+00 0. -1.
          6    1    1    2  501    0  0.94469119449E+01  0.10176790751E+03  0.11587928398E+04  0.11760849445E+04  0.17300000000E+03 0.  1.
         -6    1    1    2    0  503 -0.94469119449E+01 -0.10176790751E+03  0.59593584141E+03  0.62889941821E+03  0.17300000000E+03 0. -1.
<mgrwt>
<rscale>  2 0.20093519E+03</rscale>
<asrwt>0</asrwt>
<pdfrwt beam="1">  1       21 0.27382398E+00 0.20093519E+03</pdfrwt>
<pdfrwt beam="2">  1       21 0.38658230E-02 0.20093519E+03</pdfrwt>
<totfact> 0.19890799E+04</totfact>
</mgrwt>
</event>
<event>
 4    1  0.4023583E+000  0.2318589E+03  0.7546771E-02  0.1125338E+00
         21   -1    0    0  501  502  0.00000000000E+00  0.00000000000E+00  0.19857327756E+03  0.19857327756E+03  0.00000000000E+00 0.  1.
         21   -1    0    0  502  503 -0.00000000000E+00 -0.00000000000E+00 -0.34374567500E+03  0.34374567500E+03  0.00000000000E+00 0. -1.
          6    1    1    2  501    0 -0.10299426773E+03  0.11498579513E+03  0.52391365581E+02  0.23770445401E+03  0.17300000000E+03 0.  1.
         -6    1    1    2    0  503  0.10299426773E+03 -0.11498579513E+03 -0.19756376303E+03  0.30461449855E+03  0.17300000000E+03 0. -1.
<mgrwt>
<rscale>  2 0.23185891E+03</rscale>
<asrwt>0</asrwt>
<pdfrwt beam="1">  1       21 0.30549736E-01 0.23185891E+03</pdfrwt>
<pdfrwt beam="2">  1       21 0.52883949E-01 0.23185891E+03</pdfrwt>
<totfact> 0.34163900E+04</totfact>
</mgrwt>
</event>
<event>
 4    1  0.4023583E+000  0.2378202E+03  0.7546771E-02  0.1121253E+00
         21   -1    0    0  503  502  0.00000000000E+00  0.00000000000E+00  0.90823381027E+03  0.90823381027E+03  0.00000000000E+00 0. -1.
         21   -1    0    0  501  503 -0.00000000000E+00 -0.00000000000E+00 -0.62279397618E+02  0.62279397618E+02  0.00000000000E+00 0.  1.
          6    1    1    2  501    0  0.95733361124E+02 -0.13215367197E+03  0.42788467781E+03  0.48953423471E+03  0.17300000000E+03 0.  1.
         -6    1    1    2    0  502 -0.95733361124E+02  0.13215367197E+03  0.41806973484E+03  0.48097897318E+03  0.17300000000E+03 0. -1.
<mgrwt>
<rscale>  2 0.23782025E+03</rscale>
<asrwt>0</asrwt>
<pdfrwt beam="1">  1       21 0.13972827E+00 0.23782025E+03</pdfrwt>
<pdfrwt beam="2">  1       21 0.95814464E-02 0.23782025E+03</pdfrwt>
<totfact> 0.30667980E+04</totfact>
</mgrwt>
</event>
<event>
 4    1  0.4023583E+000  0.2449343E+03  0.7546771E-02  0.1116549E+00
         21   -1    0    0  503  502  0.00000000000E+00  0.00000000000E+00  0.16362532487E+03  0.16362532487E+03  0.00000000000E+00 0. -1.
         21   -1    0    0  501  503 -0.00000000000E+00 -0.00000000000E+00 -0.37106228343E+03  0.37106228343E+03  0.00000000000E+00 0.  1.
          6    1    1    2  501    0  0.14611384030E+03 -0.93351680825E+02 -0.74557028139E+02  0.25603035188E+03  0.17300000000E+03 0. -1.
         -6    1    1    2    0  502 -0.14611384030E+03  0.93351680825E+02 -0.13287993042E+03  0.27865725641E+03  0.17300000000E+03 0.  1.
<mgrwt>
<rscale>  2 0.24493426E+03</rscale>
<asrwt>0</asrwt>
<pdfrwt beam="1">  1       21 0.25173127E-01 0.24493426E+03</pdfrwt>
<pdfrwt beam="2">  1       21 0.57086504E-01 0.24493426E+03</pdfrwt>
<totfact> 0.42038644E+04</totfact>
</mgrwt>
</event>
<event>
 4    1  0.4023583E+000  0.2713755E+03  0.7546771E-02  0.1100495E+00
         21   -1    0    0  501  502  0.00000000000E+00  0.00000000000E+00  0.45991412506E+03  0.45991412506E+03  0.00000000000E+00 0. -1.
         21   -1    0    0  502  503 -0.00000000000E+00 -0.00000000000E+00 -0.28020946539E+03  0.28020946539E+03  0.00000000000E+00 0.  1.
          6    1    1    2  501    0 -0.19035468972E+03 -0.86491508306E+02  0.33210723008E+03  0.42888215302E+03  0.17300000000E+03 0. -1.
         -6    1    1    2    0  503  0.19035468972E+03  0.86491508306E+02 -0.15240257042E+03  0.31124143743E+03  0.17300000000E+03 0.  1.
<mgrwt>
<rscale>  2 0.27137555E+03</rscale>
<asrwt>0</asrwt>
<pdfrwt beam="1">  1       21 0.70756019E-01 0.27137555E+03</pdfrwt>
<pdfrwt beam="2">  1       21 0.43109148E-01 0.27137555E+03</pdfrwt>
<totfact> 0.89239132E+03</totfact>
</mgrwt>
</event>
<event>
 4    1  0.4023583E+000  0.2175361E+03  0.7546771E-02  0.1135733E+00
         21   -1    0    0  503  502  0.00000000000E+00  0.00000000000E+00  0.19655037773E+03  0.19655037773E+03  0.00000000000E+00 0. -1.
         21   -1    0    0  501  503 -0.00000000000E+00 -0.00000000000E+00 -0.29223455379E+03  0.29223455379E+03  0.00000000000E+00 0.  1.
          6    1    1    2  501    0  0.86493838250E+02 -0.99557834604E+02 -0.15040918793E+03  0.26447092524E+03  0.17300000000E+03 0. -1.
         -6    1    1    2    0  502 -0.86493838250E+02  0.99557834604E+02  0.54725011865E+02  0.22431400627E+03  0.17300000000E+03 0.  1.
<mgrwt>
<rscale>  2 0.21753608E+03</rscale>
<asrwt>0</asrwt>
<pdfrwt beam="1">  1       21 0.30238520E-01 0.21753608E+03</pdfrwt>
<pdfrwt beam="2">  1       21 0.44959162E-01 0.21753608E+03</pdfrwt>
<totfact> 0.49226232E+04</totfact>
</mgrwt>
</event>
<event>
 4    1  0.4023583E+000  0.1928382E+03  0.7546771E-02  0.1155926E+00
         21   -1    0    0  501  502  0.00000000000E+00  0.00000000000E+00  0.21915146328E+03  0.21915146328E+03  0.00000000000E+00 0. -1.
         21   -1    0    0  502  503 -0.00000000000E+00 -0.00000000000E+00 -0.21707777117E+03  0.21707777117E+03  0.00000000000E+00 0. -1.
          6    1    1    2  501    0  0.85032261394E+02 -0.52047809011E+01  0.10295137242E+03  0.21859908578E+03  0.17300000000E+03 0. -1.
         -6    1    1    2    0  503 -0.85032261394E+02  0.52047809011E+01 -0.10087768032E+03  0.21763014867E+03  0.17300000000E+03 0. -1.
<mgrwt>
<rscale>  2 0.19283821E+03</rscale>
<asrwt>0</asrwt>
<pdfrwt beam="1">  1       21 0.33715610E-01 0.19283821E+03</pdfrwt>
<pdfrwt beam="2">  1       21 0.33396580E-01 0.19283821E+03</pdfrwt>
<totfact> 0.73171502E+04</totfact>
</mgrwt>
</event>
<event>
 4    1  0.4023583E+000  0.1894499E+03  0.7546771E-02  0.1158958E+00
         21   -1    0    0  503  502  0.00000000000E+00  0.00000000000E+00  0.73830237920E+02  0.73830237920E+02  0.00000000000E+00 0.  1.
         21   -1    0    0  501  503 -0.00000000000E+00 -0.00000000000E+00 -0.52614746247E+03  0.52614746247E+03  0.00000000000E+00 0.  1.
          6    1    1    2  501    0 -0.73714993170E+02 -0.22985898600E+02 -0.30888889709E+03  0.36235838958E+03  0.17300000000E+03 0.  1.
         -6    1    1    2    0  502  0.73714993170E+02  0.22985898600E+02 -0.14342832746E+03  0.23761931081E+03  0.17300000000E+03 0.  1.
<mgrwt>
<rscale>  2 0.18944987E+03</rscale>
<asrwt>0</asrwt>
<pdfrwt beam="1">  1       21 0.11358499E-01 0.18944987E+03</pdfrwt>
<pdfrwt beam="2">  1       21 0.80945759E-01 0.18944987E+03</pdfrwt>
<totfact> 0.86806807E+04</totfact>
</mgrwt>
</event>
<event>
 4    1  0.4023583E+000  0.1756807E+03  0.7546771E-02  0.1172050E+00
         21   -1    0    0  503  502  0.00000000000E+00  0.00000000000E+00  0.24972301029E+04  0.24972301029E+04  0.00000000000E+00 0. -1.
         21   -1    0    0  501  503 -0.00000000000E+00 -0.00000000000E+00 -0.13942814180E+02  0.13942814180E+02  0.00000000000E+00 0. -1.
          6    1    1    2  501    0 -0.16973586879E+02  0.25428443778E+02  0.81848884333E+03  0.83713063201E+03  0.17300000000E+03 0. -1.
         -6    1    1    2    0  502  0.16973586879E+02 -0.25428443778E+02  0.16647984454E+04  0.16740422850E+04  0.17300000000E+03 0. -1.
<mgrwt>
<rscale>  2 0.17568070E+03</rscale>
<asrwt>0</asrwt>
<pdfrwt beam="1">  1       21 0.38418889E+00 0.17568070E+03</pdfrwt>
<pdfrwt beam="2">  1       21 0.21450503E-02 0.17568070E+03</pdfrwt>
<totfact> 0.12241072E+04</totfact>
</mgrwt>
</event>
<event>
 4    1  0.4023583E+000  0.1907488E+03  0.7546771E-02  0.1157788E+00
         21   -1    0    0  501  502  0.00000000000E+00  0.00000000000E+00  0.70897421038E+02  0.70897421038E+02  0.00000000000E+00 0.  1.
         21   -1    0    0  502  503 -0.00000000000E+00 -0.00000000000E+00 -0.55050566331E+03  0.55050566331E+03  0.00000000000E+00 0.  1.
          6    1    1    2  501    0 -0.26118314821E+02  0.75986401477E+02 -0.15893079544E+03  0.24828229361E+03  0.17300000000E+03 0.  1.
         -6    1    1    2    0  503  0.26118314821E+02 -0.75986401477E+02 -0.32067744684E+03  0.37312079075E+03  0.17300000000E+03 0.  1.
<mgrwt>
<rscale>  2 0.19074879E+03</rscale>
<asrwt>0</asrwt>
<pdfrwt beam="1">  1       21 0.10907296E-01 0.19074879E+03</pdfrwt>
<pdfrwt beam="2">  1       21 0.84693178E-01 0.19074879E+03</pdfrwt>
<totfact> 0.84126905E+04</totfact>
</mgrwt>
</event>
<event>
 4    1  0.4023583E+000  0.3153021E+03  0.7546771E-02  0.1077832E+00
         21   -1    0    0  501  502  0.00000000000E+00  0.00000000000E+00  0.57196271428E+03  0.57196271428E+03  0.00000000000E+00 0. -1.
         21   -1    0    0  502  503 -0.00000000000E+00 -0.00000000000E+00 -0.43404805355E+03  0.43404805355E+03  0.00000000000E+00 0. -1.
          6    1    1    2  501    0  0.24543742076E+03  0.96160593787E+02  0.45843755419E+03  0.55639947735E+03  0.17300000000E+03 0. -1.
         -6    1    1    2    0  503 -0.24543742076E+03 -0.96160593787E+02 -0.32052289345E+03  0.44961129049E+03  0.17300000000E+03 0. -1.
<mgrwt>
<rscale>  2 0.31530206E+03</rscale>
<asrwt>0</asrwt>
<pdfrwt beam="1">  1       21 0.87994264E-01 0.31530206E+03</pdfrwt>
<pdfrwt beam="2">  1       21 0.66776623E-01 0.31530206E+03</pdfrwt>
<totfact> 0.20857705E+03</totfact>
</mgrwt>
</event>
<event>
 4    1  0.4023583E+000  0.1931035E+03  0.7546771E-02  0.1155692E+00
         21   -1    0    0  503  502  0.00000000000E+00  0.00000000000E+00  0.20139432522E+03  0.20139432522E+03  0.00000000000E+00 0.  1.
         21   -1    0    0  501  503 -0.00000000000E+00 -0.00000000000E+00 -0.28814427202E+03  0.28814427202E+03  0.00000000000E+00 0.  1.
          6    1    1    2  501    0 -0.61198075334E+02  0.60122792012E+02 -0.18971062946E+03  0.27070108510E+03  0.17300000000E+03 0.  1.
         -6    1    1    2    0  502  0.61198075334E+02 -0.60122792012E+02  0.10296068266E+03  0.21883751214E+03  0.17300000000E+03 0.  1.
<mgrwt>
<rscale>  2 0.19310348E+03</rscale>
<asrwt>0</asrwt>
<pdfrwt beam="1">  1       21 0.30983742E-01 0.19310348E+03</pdfrwt>
<pdfrwt beam="2">  1       21 0.44329888E-01 0.19310348E+03</pdfrwt>
<totfact> 0.48887995E+04</totfact>
</mgrwt>
</event>
<event>
 4    1  0.4023583E+000  0.2017542E+03  0.7546771E-02  0.1148267E+00
         21   -1    0    0  501  502  0.00000000000E+00  0.00000000000E+00  0.12600278130E+03  0.12600278130E+03  0.00000000000E+00 0.  1.
         21   -1    0    0  502  503 -0.00000000000E+00 -0.00000000000E+00 -0.54389678976E+03  0.54389678976E+03  0.00000000000E+00 0.  1.
          6    1    1    2  501    0 -0.92472753075E+02 -0.47165220479E+02  0.44903163728E+01  0.20180418981E+03  0.17300000000E+03 0.  1.
         -6    1    1    2    0  503  0.92472753075E+02  0.47165220479E+02 -0.42238432483E+03  0.46809538125E+03  0.17300000000E+03 0.  1.
<mgrwt>
<rscale>  2 0.20175423E+03</rscale>
<asrwt>0</asrwt>
<pdfrwt beam="1">  1       21 0.19385043E-01 0.20175423E+03</pdfrwt>
<pdfrwt beam="2">  1       21 0.83676428E-01 0.20175423E+03</pdfrwt>
<totfact> 0.30233364E+04</totfact>
</mgrwt>
</event>
<event>
 4    1  0.4023583E+000  0.2034704E+03  0.7546771E-02  0.1146844E+00
         21   -1    0    0  501  502  0.00000000000E+00  0.00000000000E+00  0.35974504466E+02  0.35974504466E+02  0.00000000000E+00 0. -1.
         21   -1    0    0  502  503 -0.00000000000E+00 -0.00000000000E+00 -0.11674590737E+04  0.11674590737E+04  0.00000000000E+00 0. -1.
          6    1    1    2  501    0 -0.92832093375E+02 -0.53417143196E+02 -0.63757667600E+03  0.66925645797E+03  0.17300000000E+03 0. -1.
         -6    1    1    2    0  503  0.92832093375E+02  0.53417143196E+02 -0.49390789323E+03  0.53417712019E+03  0.17300000000E+03 0. -1.
<mgrwt>
<rscale>  2 0.20347036E+03</rscale>
<asrwt>0</asrwt>
<pdfrwt beam="1">  1       21 0.55345408E-02 0.20347036E+03</pdfrwt>
<pdfrwt beam="2">  1       21 0.17960904E+00 0.20347036E+03</pdfrwt>
<totfact> 0.41152818E+04</totfact>
</mgrwt>
</event>
<event>
 4    1  0.4023583E+000  0.2249849E+03  0.7546771E-02  0.1130220E+00
         21   -1    0    0  501  502  0.00000000000E+00  0.00000000000E+00  0.44767876965E+03  0.44767876965E+03  0.00000000000E+00 0. -1.
         21   -1    0    0  502  503 -0.00000000000E+00 -0.00000000000E+00 -0.94052560851E+03  0.94052560851E+03  0.00000000000E+00 0. -1.
          6    1    1    2  501    0  0.14374979833E+03 -0.50204072062E+01  0.40462147855E+03  0.46296517138E+03  0.17300000000E+03 0. -1.
         -6    1    1    2    0  503 -0.14374979833E+03  0.50204072062E+01 -0.89746831741E+03  0.92523920678E+03  0.17300000000E+03 0. -1.
<mgrwt>
<rscale>  2 0.22498491E+03</rscale>
<asrwt>0</asrwt>
<pdfrwt beam="1">  1       21 0.68873657E-01 0.22498491E+03</pdfrwt>
<pdfrwt beam="2">  1       21 0.14469625E+00 0.22498491E+03</pdfrwt>
<totfact> 0.60976974E+02</totfact>
</mgrwt>
</event>
<event>
 4    1  0.4023583E+000  0.2034596E+03  0.7546771E-02  0.1146853E+00
         21   -1    0    0  503  502  0.00000000000E+00  0.00000000000E+00  0.10313179015E+03  0.10313179015E+03  0.00000000000E+00 0.  1.
         21   -1    0    0  501  503 -0.00000000000E+00 -0.00000000000E+00 -0.40142577292E+03  0.40142577292E+03  0.00000000000E+00 0.  1.
          6    1    1    2  501    0  0.74669230146E+02 -0.76755011306E+02 -0.15160587185E+03  0.25373246948E+03  0.17300000000E+03 0.  1.
         -6    1    1    2    0  502 -0.74669230146E+02  0.76755011306E+02 -0.14668811092E+03  0.25082509359E+03  0.17300000000E+03 0.  1.
<mgrwt>
<rscale>  2 0.20345964E+03</rscale>
<asrwt>0</asrwt>
<pdfrwt beam="1">  1       21 0.15866429E-01 0.20345964E+03</pdfrwt>
<pdfrwt beam="2">  1       21 0.61757811E-01 0.20345964E+03</pdfrwt>
<totfact> 0.85820898E+04</totfact>
</mgrwt>
</event>
<event>
 4    1  0.4023583E+000  0.2060738E+03  0.7546771E-02  0.1144713E+00
         21   -1    0    0  503  502  0.00000000000E+00  0.00000000000E+00  0.13589079012E+04  0.13589079012E+04  0.00000000000E+00 0. -1.
         21   -1    0    0  501  503 -0.00000000000E+00 -0.00000000000E+00 -0.33581778018E+02  0.33581778018E+02  0.00000000000E+00 0. -1.
          6    1    1    2  501    0 -0.24431040931E+02  0.10927279217E+03  0.47921367582E+03  0.52164371554E+03  0.17300000000E+03 0. -1.
         -6    1    1    2    0  502  0.24431040931E+02 -0.10927279217E+03  0.84611244734E+03  0.87084596365E+03  0.17300000000E+03 0. -1.
<mgrwt>
<rscale>  2 0.20607382E+03</rscale>
<asrwt>0</asrwt>
<pdfrwt beam="1">  1       21 0.20906271E+00 0.20607382E+03</pdfrwt>
<pdfrwt beam="2">  1       21 0.51664284E-02 0.20607382E+03</pdfrwt>
<totfact> 0.29638547E+04</totfact>
</mgrwt>
</event>
<event>
 4    1  0.4023583E+000  0.2483934E+03  0.7546771E-02  0.1114324E+00
         21   -1    0    0  503  502  0.00000000000E+00  0.00000000000E+00  0.14434872985E+03  0.14434872985E+03  0.00000000000E+00 0.  1.
         21   -1    0    0  501  503 -0.00000000000E+00 -0.00000000000E+00 -0.60877011127E+03  0.60877011127E+03  0.00000000000E+00 0.  1.
          6    1    1    2  501    0  0.12058042586E+03 -0.13126549059E+03 -0.43772941005E+03  0.50329544459E+03  0.17300000000E+03 0.  1.
         -6    1    1    2    0  502 -0.12058042586E+03  0.13126549059E+03 -0.26691971363E+02  0.24982339653E+03  0.17300000000E+03 0.  1.
<mgrwt>
<rscale>  2 0.24839337E+03</rscale>
<asrwt>0</asrwt>
<pdfrwt beam="1">  1       21 0.22207497E-01 0.24839337E+03</pdfrwt>
<pdfrwt beam="2">  1       21 0.93656940E-01 0.24839337E+03</pdfrwt>
<totfact> 0.17588801E+04</totfact>
</mgrwt>
</event>
<event>
 4    1  0.4023583E+000  0.1783153E+03  0.7546771E-02  0.1169444E+00
         21   -1    0    0  503  502  0.00000000000E+00  0.00000000000E+00  0.28952180179E+02  0.28952180179E+02  0.00000000000E+00 0.  1.
         21   -1    0    0  501  503 -0.00000000000E+00 -0.00000000000E+00 -0.17688817170E+04  0.17688817170E+04  0.00000000000E+00 0.  1.
          6    1    1    2  501    0  0.26415384076E+02 -0.34198964565E+02 -0.14234634371E+04  0.14345886165E+04  0.17300000000E+03 0.  1.
         -6    1    1    2    0  502 -0.26415384076E+02  0.34198964565E+02 -0.31646609967E+03  0.36324528068E+03  0.17300000000E+03 0.  1.
<mgrwt>
<rscale>  2 0.17831529E+03</rscale>
<asrwt>0</asrwt>
<pdfrwt beam="1">  1       21 0.44541798E-02 0.17831529E+03</pdfrwt>
<pdfrwt beam="2">  1       21 0.27213576E+00 0.17831529E+03</pdfrwt>
<totfact> 0.16387372E+04</totfact>
</mgrwt>
</event>
<event>
 4    1  0.4023583E+000  0.2241801E+03  0.7546771E-02  0.1130804E+00
         21   -1    0    0  501  502  0.00000000000E+00  0.00000000000E+00  0.11484060138E+03  0.11484060138E+03  0.00000000000E+00 0. -1.
         21   -1    0    0  502  503 -0.00000000000E+00 -0.00000000000E+00 -0.55790673140E+03  0.55790673140E+03  0.00000000000E+00 0.  1.
          6    1    1    2  501    0 -0.24809240286E+02 -0.14040019743E+03 -0.65345167097E+02  0.23350953879E+03  0.17300000000E+03 0. -1.
         -6    1    1    2    0  503  0.24809240286E+02  0.14040019743E+03 -0.37772096292E+03  0.43923779399E+03  0.17300000000E+03 0.  1.
<mgrwt>
<rscale>  2 0.22418009E+03</rscale>
<asrwt>0</asrwt>
<pdfrwt beam="1">  1       21 0.17667785E-01 0.22418009E+03</pdfrwt>
<pdfrwt beam="2">  1       21 0.85831805E-01 0.22418009E+03</pdfrwt>
<totfact> 0.33488047E+04</totfact>
</mgrwt>
</event>
<event>
 4    1  0.4023583E+000  0.2103108E+03  0.7546771E-02  0.1141320E+00
         21   -1    0    0  501  502  0.00000000000E+00  0.00000000000E+00  0.70393604846E+03  0.70393604846E+03  0.00000000000E+00 0. -1.
         21   -1    0    0  502  503 -0.00000000000E+00 -0.00000000000E+00 -0.12540164319E+03  0.12540164319E+03  0.00000000000E+00 0. -1.
          6    1    1    2  501    0 -0.11709166685E+03  0.24314280919E+02  0.58217237041E+03  0.61899540513E+03  0.17300000000E+03 0. -1.
         -6    1    1    2    0  503  0.11709166685E+03 -0.24314280919E+02 -0.36379651438E+01  0.21034228651E+03  0.17300000000E+03 0. -1.
<mgrwt>
<rscale>  2 0.21031082E+03</rscale>
<asrwt>0</asrwt>
<pdfrwt beam="1">  1       21 0.10829785E+00 0.21031082E+03</pdfrwt>
<pdfrwt beam="2">  1       21 0.19292561E-01 0.21031082E+03</pdfrwt>
<totfact> 0.16553226E+04</totfact>
</mgrwt>
</event>
<event>
 4    1  0.4023583E+000  0.1769465E+03  0.7546771E-02  0.1170791E+00
         21   -1    0    0  503  502  0.00000000000E+00  0.00000000000E+00  0.28111836205E+03  0.28111836205E+03  0.00000000000E+00 0.  1.
         21   -1    0    0  501  503 -0.00000000000E+00 -0.00000000000E+00 -0.15787949239E+03  0.15787949239E+03  0.00000000000E+00 0.  1.
          6    1    1    2  501    0 -0.16916430559E+01  0.37124100036E+02 -0.57507136532E+02  0.18605679566E+03  0.17300000000E+03 0.  1.
         -6    1    1    2    0  502  0.16916430559E+01 -0.37124100036E+02  0.18074600619E+03  0.25294105878E+03  0.17300000000E+03 0.  1.
<mgrwt>
<rscale>  2 0.17694649E+03</rscale>
<asrwt>0</asrwt>
<pdfrwt beam="1">  1       21 0.43248979E-01 0.17694649E+03</pdfrwt>
<pdfrwt beam="2">  1       21 0.24289153E-01 0.17694649E+03</pdfrwt>
<totfact> 0.82777949E+04</totfact>
</mgrwt>
</event>
<event>
 4    1  0.4023583E+000  0.2065228E+03  0.7546771E-02  0.1144349E+00
         21   -1    0    0  501  502  0.00000000000E+00  0.00000000000E+00  0.93359524141E+02  0.93359524141E+02  0.00000000000E+00 0. -1.
         21   -1    0    0  502  503 -0.00000000000E+00 -0.00000000000E+00 -0.91822429195E+03  0.91822429195E+03  0.00000000000E+00 0. -1.
          6    1    1    2  501    0  0.10603835800E+03 -0.38451858237E+02 -0.53905053564E+02  0.21344187398E+03  0.17300000000E+03 0. -1.
         -6    1    1    2    0  503 -0.10603835800E+03  0.38451858237E+02 -0.77095971425E+03  0.79814194211E+03  0.17300000000E+03 0. -1.
<mgrwt>
<rscale>  2 0.20652283E+03</rscale>
<asrwt>0</asrwt>
<pdfrwt beam="1">  1       21 0.14363004E-01 0.20652283E+03</pdfrwt>
<pdfrwt beam="2">  1       21 0.14126527E+00 0.20652283E+03</pdfrwt>
<totfact> 0.14697366E+04</totfact>
</mgrwt>
</event>
<event>
 4    1  0.4023583E+000  0.2722722E+03  0.7546771E-02  0.1099986E+00
         21   -1    0    0  503  502  0.00000000000E+00  0.00000000000E+00  0.25142798949E+03  0.25142798949E+03  0.00000000000E+00 0. -1.
         21   -1    0    0  501  503 -0.00000000000E+00 -0.00000000000E+00 -0.38515435740E+03  0.38515435740E+03  0.00000000000E+00 0.  1.
          6    1    1    2  501    0 -0.20939192538E+03  0.18925351028E+02 -0.22098882132E+03  0.35066822849E+03  0.17300000000E+03 0.  1.
         -6    1    1    2    0  502  0.20939192538E+03 -0.18925351028E+02  0.87262453407E+02  0.28591411840E+03  0.17300000000E+03 0. -1.
<mgrwt>
<rscale>  2 0.27227219E+03</rscale>
<asrwt>0</asrwt>
<pdfrwt beam="1">  1       21 0.38681229E-01 0.27227219E+03</pdfrwt>
<pdfrwt beam="2">  1       21 0.59254516E-01 0.27227219E+03</pdfrwt>
<totfact> 0.16428778E+04</totfact>
</mgrwt>
</event>
<event>
 4    1  0.4023583E+000  0.2782055E+03  0.7546771E-02  0.1096673E+00
         21   -1    0    0  503  502  0.00000000000E+00  0.00000000000E+00  0.33741350802E+03  0.33741350802E+03  0.00000000000E+00 0.  1.
         21   -1    0    0  501  503 -0.00000000000E+00 -0.00000000000E+00 -0.16042662747E+04  0.16042662747E+04  0.00000000000E+00 0. -1.
          6    1    1    2  501    0  0.12999603546E+03 -0.17484375203E+03 -0.15321820728E+04  0.15572347964E+04  0.17300000000E+03 0. -1.
         -6    1    1    2    0  502 -0.12999603546E+03  0.17484375203E+03  0.26532930610E+03  0.38444498636E+03  0.17300000000E+03 0.  1.
<mgrwt>
<rscale>  2 0.27820551E+03</rscale>
<asrwt>0</asrwt>
<pdfrwt beam="1">  1       21 0.51909770E-01 0.27820551E+03</pdfrwt>
<pdfrwt beam="2">  1       21 0.24681020E+00 0.27820551E+03</pdfrwt>
<totfact> 0.22120102E+02</totfact>
</mgrwt>
</event>
<event>
 4    1  0.4023583E+000  0.2178406E+03  0.7546771E-02  0.1135503E+00
         21   -1    0    0  503  502  0.00000000000E+00  0.00000000000E+00  0.44250980791E+03  0.44250980791E+03  0.00000000000E+00 0.  1.
         21   -1    0    0  501  503 -0.00000000000E+00 -0.00000000000E+00 -0.50261769428E+03  0.50261769428E+03  0.00000000000E+00 0. -1.
          6    1    1    2  501    0 -0.13617356934E+02  0.13168178748E+03 -0.44918310746E+03  0.49921938022E+03  0.17300000000E+03 0. -1.
         -6    1    1    2    0  502  0.13617356934E+02 -0.13168178748E+03  0.38907522110E+03  0.44590812197E+03  0.17300000000E+03 0.  1.
<mgrwt>
<rscale>  2 0.21784060E+03</rscale>
<asrwt>0</asrwt>
<pdfrwt beam="1">  1       21 0.68078432E-01 0.21784060E+03</pdfrwt>
<pdfrwt beam="2">  1       21 0.77325799E-01 0.21784060E+03</pdfrwt>
<totfact> 0.28647032E+03</totfact>
</mgrwt>
</event>
<event>
 4    1  0.4023583E+000  0.2048813E+03  0.7546771E-02  0.1145685E+00
         21   -1    0    0  501  502  0.00000000000E+00  0.00000000000E+00  0.10960869940E+04  0.10960869940E+04  0.00000000000E+00 0.  1.
         21   -1    0    0  502  503 -0.00000000000E+00 -0.00000000000E+00 -0.46830856121E+02  0.46830856121E+02  0.00000000000E+00 0.  1.
          6    1    1    2  501    0  0.71254663643E+02  0.83487139367E+02  0.76857960861E+03  0.79541872262E+03  0.17300000000E+03 0.  1.
         -6    1    1    2    0  503 -0.71254663643E+02 -0.83487139367E+02  0.28067652929E+03  0.34749912751E+03  0.17300000000E+03 0.  1.
<mgrwt>
<rscale>  2 0.20488126E+03</rscale>
<asrwt>0</asrwt>
<pdfrwt beam="1">  1       21 0.16862875E+00 0.20488126E+03</pdfrwt>
<pdfrwt beam="2">  1       21 0.72047479E-02 0.20488126E+03</pdfrwt>
<totfact> 0.31150908E+04</totfact>
</mgrwt>
</event>
<event>
 4    1  0.4023583E+000  0.1787208E+03  0.7546771E-02  0.1169047E+00
         21   -1    0    0  503  502  0.00000000000E+00  0.00000000000E+00  0.15684613447E+03  0.15684613447E+03  0.00000000000E+00 0. -1.
         21   -1    0    0  501  503 -0.00000000000E+00 -0.00000000000E+00 -0.35435253294E+03  0.35435253294E+03  0.00000000000E+00 0. -1.
          6    1    1    2  501    0  0.43709573565E+02 -0.10079582178E+02 -0.26544247017E+03  0.32000129651E+03  0.17300000000E+03 0. -1.
         -6    1    1    2    0  502 -0.43709573565E+02  0.10079582178E+02  0.67936071706E+02  0.19119737089E+03  0.17300000000E+03 0. -1.
<mgrwt>
<rscale>  2 0.17872080E+03</rscale>
<asrwt>0</asrwt>
<pdfrwt beam="1">  1       21 0.24130175E-01 0.17872080E+03</pdfrwt>
<pdfrwt beam="2">  1       21 0.54515774E-01 0.17872080E+03</pdfrwt>
<totfact> 0.51835151E+04</totfact>
</mgrwt>
</event>
<event>
 4    1  0.4023583E+000  0.2512954E+03  0.7546771E-02  0.1112489E+00
         21   -1    0    0  503  502  0.00000000000E+00  0.00000000000E+00  0.96556169369E+02  0.96556169369E+02  0.00000000000E+00 0. -1.
         21   -1    0    0  501  503 -0.00000000000E+00 -0.00000000000E+00 -0.66854636603E+03  0.66854636603E+03  0.00000000000E+00 0. -1.
          6    1    1    2  501    0  0.16733994890E+03  0.72233861091E+02 -0.34239069620E+03  0.42471258285E+03  0.17300000000E+03 0. -1.
         -6    1    1    2    0  502 -0.16733994890E+03 -0.72233861091E+02 -0.22959950047E+03  0.34038995256E+03  0.17300000000E+03 0. -1.
<mgrwt>
<rscale>  2 0.25129542E+03</rscale>
<asrwt>0</asrwt>
<pdfrwt beam="1">  1       21 0.14854795E-01 0.25129542E+03</pdfrwt>
<pdfrwt beam="2">  1       21 0.10285329E+00 0.25129542E+03</pdfrwt>
<totfact> 0.29727945E+04</totfact>
</mgrwt>
</event>
<event>
 4    1  0.4023583E+000  0.1747786E+03  0.7546771E-02  0.1172954E+00
         21   -1    0    0  503  502  0.00000000000E+00  0.00000000000E+00  0.28696927561E+03  0.28696927561E+03  0.00000000000E+00 0. -1.
         21   -1    0    0  501  503 -0.00000000000E+00 -0.00000000000E+00 -0.26363392049E+03  0.26363392049E+03  0.00000000000E+00 0. -1.
          6    1    1    2  501    0  0.10303212531E+02 -0.22636594085E+02 -0.20090802765E+03  0.26629233402E+03  0.17300000000E+03 0. -1.
         -6    1    1    2    0  502 -0.10303212531E+02  0.22636594085E+02  0.22424338277E+03  0.28431086208E+03  0.17300000000E+03 0. -1.
<mgrwt>
<rscale>  2 0.17477864E+03</rscale>
<asrwt>0</asrwt>
<pdfrwt beam="1">  1       21 0.44149119E-01 0.17477864E+03</pdfrwt>
<pdfrwt beam="2">  1       21 0.40559065E-01 0.17477864E+03</pdfrwt>
<totfact> 0.29146540E+04</totfact>
</mgrwt>
</event>
<event>
 4    1  0.4023583E+000  0.2311466E+03  0.7546771E-02  0.1125835E+00
         21   -1    0    0  501  502  0.00000000000E+00  0.00000000000E+00  0.79428707091E+02  0.79428707091E+02  0.00000000000E+00 0.  1.
         21   -1    0    0  502  503 -0.00000000000E+00 -0.00000000000E+00 -0.75612219424E+03  0.75612219424E+03  0.00000000000E+00 0. -1.
          6    1    1    2  501    0  0.14746616647E+03 -0.41874332194E+02 -0.19954825006E+03  0.30536573818E+03  0.17300000000E+03 0.  1.
         -6    1    1    2    0  503 -0.14746616647E+03  0.41874332194E+02 -0.47714523708E+03  0.53018516315E+03  0.17300000000E+03 0. -1.
<mgrwt>
<rscale>  2 0.23114656E+03</rscale>
<asrwt>0</asrwt>
<pdfrwt beam="1">  1       21 0.12219802E-01 0.23114656E+03</pdfrwt>
<pdfrwt beam="2">  1       21 0.11632649E+00 0.23114656E+03</pdfrwt>
<totfact> 0.31704201E+04</totfact>
</mgrwt>
</event>
<event>
 4    1  0.4023583E+000  0.3712011E+03  0.7546771E-02  0.1054235E+00
         21   -1    0    0  503  502  0.00000000000E+00  0.00000000000E+00  0.72333091804E+02  0.72333091804E+02  0.00000000000E+00 0.  1.
         21   -1    0    0  501  503 -0.00000000000E+00 -0.00000000000E+00 -0.26929597094E+04  0.26929597094E+04  0.00000000000E+00 0. -1.
          6    1    1    2  501    0 -0.25002096362E+03  0.21295721392E+03 -0.20582494530E+04  0.20914542949E+04  0.17300000000E+03 0. -1.
         -6    1    1    2    0  502  0.25002096362E+03 -0.21295721392E+03 -0.56237716459E+03  0.67383850622E+03  0.17300000000E+03 0.  1.
<mgrwt>
<rscale>  2 0.37120110E+03</rscale>
<asrwt>0</asrwt>
<pdfrwt beam="1">  1       21 0.11128169E-01 0.37120110E+03</pdfrwt>
<pdfrwt beam="2">  1       21 0.41430147E+00 0.37120110E+03</pdfrwt>
<totfact> 0.38767832E+02</totfact>
</mgrwt>
</event>
<event>
 4    1  0.4023583E+000  0.2180382E+03  0.7546771E-02  0.1135354E+00
         21   -1    0    0  501  502  0.00000000000E+00  0.00000000000E+00  0.25062502322E+03  0.25062502322E+03  0.00000000000E+00 0. -1.
         21   -1    0    0  502  503 -0.00000000000E+00 -0.00000000000E+00 -0.20395470638E+03  0.20395470638E+03  0.00000000000E+00 0. -1.
          6    1    1    2  501    0 -0.31363924191E+02 -0.12894947448E+03 -0.36777895539E+02  0.22111824057E+03  0.17300000000E+03 0.  1.
         -6    1    1    2    0  503  0.31363924191E+02  0.12894947448E+03  0.83448212382E+02  0.23346148903E+03  0.17300000000E+03 0.  1.
<mgrwt>
<rscale>  2 0.21803821E+03</rscale>
<asrwt>0</asrwt>
<pdfrwt beam="1">  1       21 0.38557696E-01 0.21803821E+03</pdfrwt>
<pdfrwt beam="2">  1       21 0.31377647E-01 0.21803821E+03</pdfrwt>
<totfact> 0.62595201E+04</totfact>
</mgrwt>
</event>
<event>
 4    1  0.4023583E+000  0.1737179E+03  0.7546771E-02  0.1174025E+00
         21   -1    0    0  501  502  0.00000000000E+00  0.00000000000E+00  0.10885284489E+03  0.10885284489E+03  0.00000000000E+00 0. -1.
         21   -1    0    0  502  503 -0.00000000000E+00 -0.00000000000E+00 -0.33461265278E+03  0.33461265278E+03  0.00000000000E+00 0. -1.
          6    1    1    2  501    0 -0.49967732925E+00 -0.15768935482E+02 -0.21062099798E+02  0.17499005987E+03  0.17300000000E+03 0. -1.
         -6    1    1    2    0  503  0.49967732925E+00  0.15768935482E+02 -0.20469770809E+03  0.26847543780E+03  0.17300000000E+03 0. -1.
<mgrwt>
<rscale>  2 0.17371790E+03</rscale>
<asrwt>0</asrwt>
<pdfrwt beam="1">  1       21 0.16746592E-01 0.17371790E+03</pdfrwt>
<pdfrwt beam="2">  1       21 0.51478869E-01 0.17371790E+03</pdfrwt>
<totfact> 0.11577757E+05</totfact>
</mgrwt>
</event>
