<event>
 4    1  0.8468429E-007  0.1175660E+04  0.7818608E-02  0.9181153E-01
          2   -1    0    0  501    0  0.00000000000E+00  0.00000000000E+00  0.36823827726E+04  0.36823827726E+04  0.25500000000E-02 0. -1.
         -2   -1    0    0    0  501 -0.00000000000E+00 -0.00000000000E+00 -0.54908089807E+03  0.54908089807E+03  0.25500000000E-02 0.  1.
    8880023    1    1    2    0    0 -0.67287323151E+03 -0.70399501736E+03  0.30180743619E+04  0.32389736693E+04  0.65864270000E+03 0. -1.
    8880022    1    1    2    0    0  0.67287323151E+03  0.70399501736E+03  0.11522751263E+03  0.99249000138E+03  0.15294330000E+03 0.  0.
<mgrwt>
<rscale>  0 0.11250097E+04</rscale>
<asrwt>0</asrwt>
<pdfrwt beam="1">  1        2 0.56652042E+00 0.11756605E+04</pdfrwt>
<pdfrwt beam="2">  1       -2 0.84473986E-01 0.11756605E+04</pdfrwt>
<totfact> 0.74299599E-01</totfact>
</mgrwt>
</event>
<event>
 4    1  0.8468429E-007  0.6996283E+03  0.7818608E-02  0.9998747E-01
         -2   -1    0    0    0  501 -0.00000000000E+00  0.00000000000E+00  0.23269908925E+03  0.23269908926E+03  0.25500000000E-02 0.  1.
          2   -1    0    0  501    0  0.00000000000E+00 -0.00000000000E+00 -0.10346959689E+04  0.10346959689E+04  0.25500000000E-02 0. -1.
    8880023    1    1    2    0    0  0.16908095764E+01 -0.23593785859E+03 -0.55242427986E+03  0.89143273621E+03  0.65864270000E+03 0.  1.
    8880022    1    1    2    0    0 -0.16908095764E+01  0.23593785859E+03 -0.24957259982E+03  0.37596232198E+03  0.15294330000E+03 0.  1.
<mgrwt>
<rscale>  0 0.55705225E+03</rscale>
<asrwt>0</asrwt>
<pdfrwt beam="1">  1        2 0.15918399E+00 0.69962829E+03</pdfrwt>
<pdfrwt beam="2">  1       -2 0.35799860E-01 0.69962829E+03</pdfrwt>
<totfact> 0.17807526E+02</totfact>
</mgrwt>
</event>
<event>
 4    1  0.8468429E-007  0.7518808E+03  0.7818608E-02  0.9826600E-01
          2   -1    0    0  501    0  0.00000000000E+00  0.00000000000E+00  0.15746044205E+04  0.15746044205E+04  0.25500000000E-02 0. -1.
         -2   -1    0    0    0  501 -0.00000000000E+00 -0.00000000000E+00 -0.26652536383E+03  0.26652536384E+03  0.25500000000E-02 0.  1.
    8880023    1    1    2    0    0 -0.35698630826E+03 -0.63838290318E+02  0.12273652288E+04  0.14393575520E+04  0.65864270000E+03 0. -1.
    8880022    1    1    2    0    0  0.35698630826E+03  0.63838290318E+02  0.80713827883E+02  0.40177223227E+03  0.15294330000E+03 0. -1.
<mgrwt>
<rscale>  0 0.63954389E+03</rscale>
<asrwt>0</asrwt>
<pdfrwt beam="1">  1        2 0.24224683E+00 0.75188081E+03</pdfrwt>
<pdfrwt beam="2">  1       -2 0.41003903E-01 0.75188081E+03</pdfrwt>
<totfact> 0.66294807E+01</totfact>
</mgrwt>
</event>
<event>
 4    1  0.8468429E-007  0.6639033E+03  0.7818608E-02  0.1020472E+00
         -2   -1    0    0    0  501 -0.00000000000E+00  0.00000000000E+00  0.41914713194E+03  0.41914713195E+03  0.25500000000E-02 0.  1.
          2   -1    0    0  501    0  0.00000000000E+00 -0.00000000000E+00 -0.10211046892E+04  0.10211046892E+04  0.25500000000E-02 0. -1.
    8880023    1    1    2    0    0  0.46026711630E+02  0.69562809052E+02 -0.88593904464E+03  0.11070933292E+04  0.65864270000E+03 0. -1.
    8880022    1    1    2    0    0 -0.46026711630E+02 -0.69562809052E+02  0.28398148734E+03  0.33315849194E+03  0.15294330000E+03 0.  0.
<mgrwt>
<rscale>  0 0.47516764E+03</rscale>
<asrwt>0</asrwt>
<pdfrwt beam="1">  1        2 0.15709303E+00 0.66390334E+03</pdfrwt>
<pdfrwt beam="2">  1       -2 0.64484175E-01 0.66390334E+03</pdfrwt>
<totfact> 0.55500358E+01</totfact>
</mgrwt>
</event>
<event>
 4    1  0.8468429E-007  0.6638083E+03  0.7818608E-02  0.1020555E+00
          2   -1    0    0  501    0  0.00000000000E+00  0.00000000000E+00  0.10820275413E+04  0.10820275413E+04  0.25500000000E-02 0. -1.
         -2   -1    0    0    0  501 -0.00000000000E+00 -0.00000000000E+00 -0.31532179689E+03  0.31532179690E+03  0.25500000000E-02 0.  1.
    8880023    1    1    2    0    0 -0.81438268000E+02 -0.14110059605E+02  0.94073889327E+03  0.11513605677E+04  0.65864270000E+03 0. -1.
    8880022    1    1    2    0    0  0.81438268000E+02  0.14110059605E+02 -0.17403314888E+03  0.24598877048E+03  0.15294330000E+03 0.  0.
<mgrwt>
<rscale>  0 0.47486931E+03</rscale>
<asrwt>0</asrwt>
<pdfrwt beam="1">  1        2 0.16646578E+00 0.66380832E+03</pdfrwt>
<pdfrwt beam="2">  1       -2 0.48511045E-01 0.66380832E+03</pdfrwt>
<totfact> 0.91922312E+01</totfact>
</mgrwt>
</event>
<event>
 4    1  0.8468429E-007  0.7077653E+03  0.7818608E-02  0.9966395E-01
          2   -1    0    0  501    0  0.00000000000E+00  0.00000000000E+00  0.12093287120E+04  0.12093287120E+04  0.25500000000E-02 0. -1.
         -2   -1    0    0    0  501 -0.00000000000E+00 -0.00000000000E+00 -0.55113932154E+03  0.55113932155E+03  0.25500000000E-02 0.  1.
    8880023    1    1    2    0    0 -0.10851669487E+02 -0.25885071802E+03  0.10501285997E+04  0.12663734580E+04  0.65864270000E+03 0. -1.
    8880022    1    1    2    0    0  0.10851669487E+02  0.25885071802E+03 -0.39193920917E+03  0.49409457562E+03  0.15294330000E+03 0.  0.
<mgrwt>
<rscale>  0 0.57148635E+03</rscale>
<asrwt>0</asrwt>
<pdfrwt beam="1">  1        2 0.18605057E+00 0.70776526E+03</pdfrwt>
<pdfrwt beam="2">  1       -2 0.84790666E-01 0.70776526E+03</pdfrwt>
<totfact> 0.23200511E+01</totfact>
</mgrwt>
</event>
<event>
 4    1  0.8468429E-007  0.6910144E+03  0.7818608E-02  0.1003674E+00
         -2   -1    0    0    0  501 -0.00000000000E+00  0.00000000000E+00  0.21589023582E+03  0.21589023583E+03  0.25500000000E-02 0.  1.
          2   -1    0    0  501    0  0.00000000000E+00 -0.00000000000E+00 -0.13525437974E+04  0.13525437974E+04  0.25500000000E-02 0. -1.
    8880023    1    1    2    0    0  0.83409124243E+02  0.19166000509E+03 -0.11107307891E+04  0.13081375048E+04  0.65864270000E+03 0. -1.
    8880022    1    1    2    0    0 -0.83409124243E+02 -0.19166000509E+03 -0.25922772559E+02  0.26029652842E+03  0.15294330000E+03 0.  1.
<mgrwt>
<rscale>  0 0.54068123E+03</rscale>
<asrwt>0</asrwt>
<pdfrwt beam="1">  1        2 0.20808366E+00 0.69101436E+03</pdfrwt>
<pdfrwt beam="2">  1       -2 0.33213883E-01 0.69101436E+03</pdfrwt>
<totfact> 0.13305026E+02</totfact>
</mgrwt>
</event>
<event>
 4    1  0.8468429E-007  0.1197504E+04  0.7818608E-02  0.9159553E-01
          2   -1    0    0  501    0  0.00000000000E+00  0.00000000000E+00  0.26433735065E+04  0.26433735065E+04  0.25500000000E-02 0. -1.
         -2   -1    0    0    0  501 -0.00000000000E+00 -0.00000000000E+00 -0.53053607184E+03  0.53053607184E+03  0.25500000000E-02 0.  1.
    8880023    1    1    2    0    0  0.95839005917E+03 -0.28582098830E+03  0.56342210241E+03  0.13234272986E+04  0.65864270000E+03 0.  1.
    8880022    1    1    2    0    0 -0.95839005917E+03  0.28582098830E+03  0.15494153322E+04  0.18504822798E+04  0.15294330000E+03 0.  0.
<mgrwt>
<rscale>  0 0.11480843E+04</rscale>
<asrwt>0</asrwt>
<pdfrwt beam="1">  1        2 0.40667284E+00 0.11975038E+04</pdfrwt>
<pdfrwt beam="2">  1       -2 0.81620936E-01 0.11975038E+04</pdfrwt>
<totfact> 0.37456786E+00</totfact>
</mgrwt>
</event>
<event>
 4    1  0.8468429E-007  0.8773064E+03  0.7818608E-02  0.9563491E-01
         -2   -1    0    0    0  501 -0.00000000000E+00  0.00000000000E+00  0.55941682543E+03  0.55941682544E+03  0.25500000000E-02 0.  1.
          2   -1    0    0  501    0  0.00000000000E+00 -0.00000000000E+00 -0.99324197055E+03  0.99324197055E+03  0.25500000000E-02 0. -1.
    8880023    1    1    2    0    0 -0.46624959046E+03 -0.34419131727E+03 -0.15216529762E+03  0.89040486721E+03  0.65864270000E+03 0.  1.
    8880022    1    1    2    0    0  0.46624959046E+03  0.34419131727E+03 -0.28165984749E+03  0.66225392878E+03  0.15294330000E+03 0. -1.
<mgrwt>
<rscale>  0 0.79760483E+03</rscale>
<asrwt>0</asrwt>
<pdfrwt beam="1">  1        2 0.15280646E+00 0.87730642E+03</pdfrwt>
<pdfrwt beam="2">  1       -2 0.86064127E-01 0.87730642E+03</pdfrwt>
<totfact> 0.29935057E+01</totfact>
</mgrwt>
</event>
<event>
 4    1  0.8468429E-007  0.8039967E+03  0.7818608E-02  0.9702220E-01
          2   -1    0    0  501    0  0.00000000000E+00  0.00000000000E+00  0.10119092423E+04  0.10119092423E+04  0.25500000000E-02 0. -1.
         -2   -1    0    0    0  501 -0.00000000000E+00 -0.00000000000E+00 -0.12043987848E+04  0.12043987848E+04  0.25500000000E-02 0.  1.
    8880023    1    1    2    0    0 -0.45002552072E+03  0.10038648735E+03  0.78568307196E+03  0.11241479048E+04  0.65864270000E+03 0. -1.
    8880022    1    1    2    0    0  0.45002552072E+03 -0.10038648735E+03 -0.97817261442E+03  0.10921601223E+04  0.15294330000E+03 0.  0.
<mgrwt>
<rscale>  0 0.70884757E+03</rscale>
<asrwt>0</asrwt>
<pdfrwt beam="1">  1        2 0.15567834E+00 0.80399666E+03</pdfrwt>
<pdfrwt beam="2">  1       -2 0.18529212E+00 0.80399666E+03</pdfrwt>
<totfact> 0.41883797E+00</totfact>
</mgrwt>
</event>
<event>
 4    1  0.8468429E-007  0.7424365E+03  0.7818608E-02  0.9852906E-01
          2   -1    0    0  501    0  0.00000000000E+00  0.00000000000E+00  0.70367435266E+03  0.70367435266E+03  0.25500000000E-02 0. -1.
         -2   -1    0    0    0  501 -0.00000000000E+00 -0.00000000000E+00 -0.52743423930E+03  0.52743423931E+03  0.25500000000E-02 0.  1.
    8880023    1    1    2    0    0  0.73836289708E+02 -0.33458919803E+03  0.34620020094E+03  0.81918649556E+03  0.65864270000E+03 0.  0.
    8880022    1    1    2    0    0 -0.73836289708E+02  0.33458919803E+03 -0.16996008759E+03  0.41192209640E+03  0.15294330000E+03 0.  0.
<mgrwt>
<rscale>  0 0.62598980E+03</rscale>
<asrwt>0</asrwt>
<pdfrwt beam="1">  1        2 0.10825759E+00 0.74243649E+03</pdfrwt>
<pdfrwt beam="2">  1       -2 0.81143729E-01 0.74243649E+03</pdfrwt>
<totfact> 0.55219983E+01</totfact>
</mgrwt>
</event>
<event>
 4    1  0.8468429E-007  0.1514168E+04  0.7818608E-02  0.8899696E-01
         -2   -1    0    0    0  501 -0.00000000000E+00  0.00000000000E+00  0.14307825399E+04  0.14307825399E+04  0.25500000000E-02 0.  1.
          2   -1    0    0  501    0  0.00000000000E+00 -0.00000000000E+00 -0.19095037685E+04  0.19095037685E+04  0.25500000000E-02 0. -1.
    8880023    1    1    2    0    0 -0.13615652431E+04 -0.70949680448E+02  0.56530946450E+03  0.16162545484E+04  0.65864270000E+03 0.  0.
    8880022    1    1    2    0    0  0.13615652431E+04  0.70949680448E+02 -0.10440306931E+04  0.17240317600E+04  0.15294330000E+03 0.  0.
<mgrwt>
<rscale>  0 0.14772914E+04</rscale>
<asrwt>0</asrwt>
<pdfrwt beam="1">  1        2 0.29376981E+00 0.15141677E+04</pdfrwt>
<pdfrwt beam="2">  1       -2 0.22012039E+00 0.15141677E+04</pdfrwt>
<totfact> 0.69366814E-01</totfact>
</mgrwt>
</event>
<event>
 4    1  0.8468429E-007  0.8394264E+03  0.7818608E-02  0.9631263E-01
          2   -1    0    0  501    0  0.00000000000E+00  0.00000000000E+00  0.16668538167E+04  0.16668538167E+04  0.25500000000E-02 0. -1.
         -2   -1    0    0    0  501 -0.00000000000E+00 -0.00000000000E+00 -0.44055129991E+03  0.44055129992E+03  0.25500000000E-02 0.  1.
    8880023    1    1    2    0    0 -0.33646290477E+03 -0.39701274903E+03  0.13127030600E+04  0.15581482404E+04  0.65864270000E+03 0. -1.
    8880022    1    1    2    0    0  0.33646290477E+03  0.39701274903E+03 -0.86400543188E+02  0.54925687620E+03  0.15294330000E+03 0.  0.
<mgrwt>
<rscale>  0 0.75261110E+03</rscale>
<asrwt>0</asrwt>
<pdfrwt beam="1">  1        2 0.25643905E+00 0.83942636E+03</pdfrwt>
<pdfrwt beam="2">  1       -2 0.67777122E-01 0.83942636E+03</pdfrwt>
<totfact> 0.20735917E+01</totfact>
</mgrwt>
</event>
<event>
 4    1  0.1037633E-006  0.6602583E+03  0.7818608E-02  0.1023893E+00
         -2   -1    0    0    0  501 -0.00000000000E+00  0.00000000000E+00  0.43829450848E+03  0.43829450849E+03  0.25500000000E-02 0.  1.
          2   -1    0    0  501    0  0.00000000000E+00 -0.00000000000E+00 -0.20504521902E+04  0.20504521902E+04  0.25500000000E-02 0. -1.
    8880023    1    1    2    0    0  0.30502805561E+02 -0.34646941043E+02 -0.19802813691E+04  0.20874518770E+04  0.65864270000E+03 0. -1.
    8880022    1    1    2    0    0 -0.30502805561E+02  0.34646941043E+02  0.36812368740E+03  0.40129482168E+03  0.15294330000E+03 0.  0.
<mgrwt>
<rscale>  0 0.46307440E+03</rscale>
<asrwt>0</asrwt>
<pdfrwt beam="1">  1        2 0.31545418E+00 0.66025831E+03</pdfrwt>
<pdfrwt beam="2">  1       -2 0.67429926E-01 0.66025831E+03</pdfrwt>
<totfact> 0.13274066E+01</totfact>
</mgrwt>
</event>
<event>
 4    1  0.8468429E-007  0.8063538E+03  0.7818608E-02  0.9697223E-01
         -2   -1    0    0    0  501 -0.00000000000E+00  0.00000000000E+00  0.88530673135E+03  0.88530673136E+03  0.25500000000E-02 0.  1.
          2   -1    0    0  501    0  0.00000000000E+00 -0.00000000000E+00 -0.66484388707E+03  0.66484388707E+03  0.25500000000E-02 0. -1.
    8880023    1    1    2    0    0 -0.45690533628E+03 -0.87371187940E+02 -0.27652510515E+03  0.85245090817E+03  0.65864270000E+03 0. -1.
    8880022    1    1    2    0    0  0.45690533628E+03  0.87371187940E+02  0.49698794943E+03  0.69769971026E+03  0.15294330000E+03 0.  0.
<mgrwt>
<rscale>  0 0.71182399E+03</rscale>
<asrwt>0</asrwt>
<pdfrwt beam="1">  1        2 0.10228367E+00 0.80635378E+03</pdfrwt>
<pdfrwt beam="2">  1       -2 0.13620104E+00 0.80635378E+03</pdfrwt>
<totfact> 0.17009099E+01</totfact>
</mgrwt>
</event>
<event>
 4    1  0.8468429E-007  0.7341888E+03  0.7818608E-02  0.9877210E-01
          2   -1    0    0  501    0  0.00000000000E+00  0.00000000000E+00  0.76917033788E+03  0.76917033789E+03  0.25500000000E-02 0. -1.
         -2   -1    0    0    0  501 -0.00000000000E+00 -0.00000000000E+00 -0.57966795477E+03  0.57966795478E+03  0.25500000000E-02 0.  1.
    8880023    1    1    2    0    0  0.15246917944E+03 -0.28631474471E+03  0.48855438950E+03  0.88188354190E+03  0.65864270000E+03 0. -1.
    8880022    1    1    2    0    0 -0.15246917944E+03  0.28631474471E+03 -0.29905200639E+03  0.46695475076E+03  0.15294330000E+03 0.  0.
<mgrwt>
<rscale>  0 0.61378619E+03</rscale>
<asrwt>0</asrwt>
<pdfrwt beam="1">  1        2 0.11833390E+00 0.73418880E+03</pdfrwt>
<pdfrwt beam="2">  1       -2 0.89179686E-01 0.73418880E+03</pdfrwt>
<totfact> 0.39751170E+01</totfact>
</mgrwt>
</event>
<event>
 4    1  0.8468429E-007  0.8256542E+03  0.7818608E-02  0.9657848E-01
          2   -1    0    0  501    0  0.00000000000E+00  0.00000000000E+00  0.92809531089E+03  0.92809531090E+03  0.25500000000E-02 0. -1.
         -2   -1    0    0    0  501 -0.00000000000E+00 -0.00000000000E+00 -0.53522559829E+03  0.53522559830E+03  0.25500000000E-02 0.  1.
    8880023    1    1    2    0    0  0.38533668459E+03 -0.31529397480E+03  0.44833236569E+03  0.93952475615E+03  0.65864270000E+03 0. -1.
    8880022    1    1    2    0    0 -0.38533668459E+03  0.31529397480E+03 -0.55462653085E+02  0.52379615304E+03  0.15294330000E+03 0.  0.
<mgrwt>
<rscale>  0 0.73582939E+03</rscale>
<asrwt>0</asrwt>
<pdfrwt beam="1">  1        2 0.14278389E+00 0.82565420E+03</pdfrwt>
<pdfrwt beam="2">  1       -2 0.82342401E-01 0.82565420E+03</pdfrwt>
<totfact> 0.36669908E+01</totfact>
</mgrwt>
</event>
<event>
 4    1  0.8468429E-007  0.1033223E+04  0.7818608E-02  0.9339327E-01
          2   -1    0    0  501    0  0.00000000000E+00  0.00000000000E+00  0.37985132704E+04  0.37985132704E+04  0.25500000000E-02 0. -1.
         -2   -1    0    0    0  501 -0.00000000000E+00 -0.00000000000E+00 -0.26352895089E+03  0.26352895090E+03  0.25500000000E-02 0.  1.
    8880023    1    1    2    0    0 -0.38791975290E+03 -0.69516689467E+03  0.11645607290E+04  0.15568399545E+04  0.65864270000E+03 0.  0.
    8880022    1    1    2    0    0  0.38791975290E+03  0.69516689467E+03  0.23704235906E+04  0.25052022668E+04  0.15294330000E+03 0. -1.
<mgrwt>
<rscale>  0 0.97241549E+03</rscale>
<asrwt>0</asrwt>
<pdfrwt beam="1">  1        2 0.58438663E+00 0.10332226E+04</pdfrwt>
<pdfrwt beam="2">  1       -2 0.40542917E-01 0.10332226E+04</pdfrwt>
<totfact> 0.29537100E+00</totfact>
</mgrwt>
</event>
<event>
 4    1  0.8468429E-007  0.6810042E+03  0.7818608E-02  0.1008761E+00
         -2   -1    0    0    0  501 -0.00000000000E+00  0.00000000000E+00  0.14369017091E+04  0.14369017091E+04  0.25500000000E-02 0.  1.
          2   -1    0    0  501    0  0.00000000000E+00 -0.00000000000E+00 -0.18880844897E+03  0.18880844899E+03  0.25500000000E-02 0. -1.
    8880023    1    1    2    0    0  0.12509483520E+03 -0.11961502265E+03  0.50574499886E+03  0.84825979604E+03  0.65864270000E+03 0. -1.
    8880022    1    1    2    0    0 -0.12509483520E+03  0.11961502265E+03  0.74234826125E+03  0.77745036204E+03  0.15294330000E+03 0. -1.
<mgrwt>
<rscale>  0 0.51969941E+03</rscale>
<asrwt>0</asrwt>
<pdfrwt beam="1">  1        2 0.29047454E-01 0.68100417E+03</pdfrwt>
<pdfrwt beam="2">  1       -2 0.22106180E+00 0.68100417E+03</pdfrwt>
<totfact> 0.18438222E+01</totfact>
</mgrwt>
</event>
<event>
 4    1  0.8468429E-007  0.7190286E+03  0.7818608E-02  0.9925887E-01
          2   -1    0    0  501    0  0.00000000000E+00  0.00000000000E+00  0.35338545786E+03  0.35338545787E+03  0.25500000000E-02 0. -1.
         -2   -1    0    0    0  501 -0.00000000000E+00 -0.00000000000E+00 -0.86505593723E+03  0.86505593724E+03  0.25500000000E-02 0.  1.
    8880023    1    1    2    0    0  0.26421128450E+03 -0.11569041902E+03 -0.15619869796E+03  0.73579896400E+03  0.65864270000E+03 0.  0.
    8880022    1    1    2    0    0 -0.26421128450E+03  0.11569041902E+03 -0.35547178142E+03  0.48264243111E+03  0.15294330000E+03 0.  0.
<mgrwt>
<rscale>  0 0.59022944E+03</rscale>
<asrwt>0</asrwt>
<pdfrwt beam="1">  1        2 0.54366994E-01 0.71902857E+03</pdfrwt>
<pdfrwt beam="2">  1       -2 0.13308553E+00 0.71902857E+03</pdfrwt>
<totfact> 0.37912026E+01</totfact>
</mgrwt>
</event>
<event>
 4    1  0.8468429E-007  0.7874720E+03  0.7818608E-02  0.9738569E-01
         -2   -1    0    0    0  501 -0.00000000000E+00  0.00000000000E+00  0.10836368481E+03  0.10836368484E+03  0.25500000000E-02 0.  1.
          2   -1    0    0  501    0  0.00000000000E+00 -0.00000000000E+00 -0.47405511003E+04  0.47405511003E+04  0.25500000000E-02 0. -1.
    8880023    1    1    2    0    0 -0.21338231746E+03 -0.37519319318E+03 -0.39470366254E+04  0.40248242539E+04  0.65864270000E+03 0.  1.
    8880022    1    1    2    0    0  0.21338231746E+03  0.37519319318E+03 -0.68515079006E+03  0.82409053129E+03  0.15294330000E+03 0.  0.
<mgrwt>
<rscale>  0 0.68766115E+03</rscale>
<asrwt>0</asrwt>
<pdfrwt beam="1">  1        2 0.72931539E+00 0.78747200E+03</pdfrwt>
<pdfrwt beam="2">  1       -2 0.16671340E-01 0.78747200E+03</pdfrwt>
<totfact> 0.23117000E+00</totfact>
</mgrwt>
</event>
<event>
 4    1  0.8468429E-007  0.1077248E+04  0.7818608E-02  0.9286821E-01
         -2   -1    0    0    0  501 -0.00000000000E+00  0.00000000000E+00  0.86680835633E+03  0.86680835633E+03  0.25500000000E-02 0.  1.
          2   -1    0    0  501    0  0.00000000000E+00 -0.00000000000E+00 -0.15709444784E+04  0.15709444784E+04  0.25500000000E-02 0. -1.
    8880023    1    1    2    0    0  0.60058590815E+03  0.60493783665E+03 -0.10508216676E+04  0.15048885682E+04  0.65864270000E+03 0. -1.
    8880022    1    1    2    0    0 -0.60058590815E+03 -0.60493783665E+03  0.34668554554E+03  0.93286426654E+03  0.15294330000E+03 0.  1.
<mgrwt>
<rscale>  0 0.10200529E+04</rscale>
<asrwt>0</asrwt>
<pdfrwt beam="1">  1        2 0.24168376E+00 0.10772481E+04</pdfrwt>
<pdfrwt beam="2">  1       -2 0.13335513E+00 0.10772481E+04</pdfrwt>
<totfact> 0.46443221E+00</totfact>
</mgrwt>
</event>
<event>
 4    1  0.8468429E-007  0.7892853E+03  0.7818608E-02  0.9734461E-01
          2   -1    0    0  501    0  0.00000000000E+00  0.00000000000E+00  0.16760058127E+04  0.16760058127E+04  0.25500000000E-02 0. -1.
         -2   -1    0    0    0  501 -0.00000000000E+00 -0.00000000000E+00 -0.44494626907E+03  0.44494626907E+03  0.25500000000E-02 0.  1.
    8880023    1    1    2    0    0 -0.60778237984E+02  0.43065894828E+03  0.14184739801E+04  0.16232805556E+04  0.65864270000E+03 0.  0.
    8880022    1    1    2    0    0  0.60778237984E+02 -0.43065894828E+03 -0.18741443642E+03  0.49767152615E+03  0.15294330000E+03 0.  0.
<mgrwt>
<rscale>  0 0.69001554E+03</rscale>
<asrwt>0</asrwt>
<pdfrwt beam="1">  1        2 0.25784705E+00 0.78928533E+03</pdfrwt>
<pdfrwt beam="2">  1       -2 0.68453272E-01 0.78928533E+03</pdfrwt>
<totfact> 0.20178180E+01</totfact>
</mgrwt>
</event>
<event>
 4    1  0.8468429E-007  0.1131793E+04  0.7818608E-02  0.9226458E-01
         -2   -1    0    0    0  501 -0.00000000000E+00  0.00000000000E+00  0.25147431738E+04  0.25147431738E+04  0.25500000000E-02 0.  1.
          2   -1    0    0  501    0  0.00000000000E+00 -0.00000000000E+00 -0.65176443309E+03  0.65176443309E+03  0.25500000000E-02 0. -1.
    8880023    1    1    2    0    0  0.89036419946E+03  0.23323113423E+03  0.56374537314E+02  0.11331961279E+04  0.65864270000E+03 0.  1.
    8880022    1    1    2    0    0 -0.89036419946E+03 -0.23323113423E+03  0.18066042034E+04  0.20333114789E+04  0.15294330000E+03 0.  0.
<mgrwt>
<rscale>  0 0.10784466E+04</rscale>
<asrwt>0</asrwt>
<pdfrwt beam="1">  1        2 0.10027145E+00 0.11317930E+04</pdfrwt>
<pdfrwt beam="2">  1       -2 0.38688358E+00 0.11317930E+04</pdfrwt>
<totfact> 0.40449922E-01</totfact>
</mgrwt>
</event>
<event>
 4    1  0.8468429E-007  0.1106221E+04  0.7818608E-02  0.9254161E-01
          2   -1    0    0  501    0  0.00000000000E+00  0.00000000000E+00  0.30523373418E+04  0.30523373418E+04  0.25500000000E-02 0. -1.
         -2   -1    0    0    0  501 -0.00000000000E+00 -0.00000000000E+00 -0.73874163958E+03  0.73874163958E+03  0.25500000000E-02 0.  1.
    8880023    1    1    2    0    0  0.45115885824E+03  0.76574863981E+03  0.26156886503E+04  0.28399916578E+04  0.65864270000E+03 0.  0.
    8880022    1    1    2    0    0 -0.45115885824E+03 -0.76574863981E+03 -0.30209294811E+03  0.95108732357E+03  0.15294330000E+03 0.  0.
<mgrwt>
<rscale>  0 0.10511467E+04</rscale>
<asrwt>0</asrwt>
<pdfrwt beam="1">  1        2 0.46959036E+00 0.11062213E+04</pdfrwt>
<pdfrwt beam="2">  1       -2 0.11365256E+00 0.11062213E+04</pdfrwt>
<totfact> 0.98221257E-01</totfact>
</mgrwt>
</event>
<event>
 4    1  0.8468429E-007  0.8267309E+03  0.7818608E-02  0.9655727E-01
          2   -1    0    0  501    0  0.00000000000E+00  0.00000000000E+00  0.23634639110E+04  0.23634639110E+04  0.25500000000E-02 0. -1.
         -2   -1    0    0    0  501 -0.00000000000E+00 -0.00000000000E+00 -0.50913519119E+03  0.50913519120E+03  0.25500000000E-02 0.  1.
    8880023    1    1    2    0    0  0.49842615747E+03  0.35285543983E+02  0.21278316956E+04  0.22827946984E+04  0.65864270000E+03 0. -1.
    8880022    1    1    2    0    0 -0.49842615747E+03 -0.35285543983E+02 -0.27350297572E+03  0.58980440385E+03  0.15294330000E+03 0.  0.
<mgrwt>
<rscale>  0 0.73715096E+03</rscale>
<asrwt>0</asrwt>
<pdfrwt beam="1">  1        2 0.36360983E+00 0.82673086E+03</pdfrwt>
<pdfrwt beam="2">  1       -2 0.78328492E-01 0.82673086E+03</pdfrwt>
<totfact> 0.62434562E+00</totfact>
</mgrwt>
</event>
<event>
 4    1  0.8468429E-007  0.7798079E+03  0.7818608E-02  0.9756288E-01
         -2   -1    0    0    0  501 -0.00000000000E+00  0.00000000000E+00  0.25613604346E+04  0.25613604346E+04  0.25500000000E-02 0.  1.
          2   -1    0    0  501    0  0.00000000000E+00 -0.00000000000E+00 -0.93469046713E+03  0.93469046714E+03  0.25500000000E-02 0. -1.
    8880023    1    1    2    0    0 -0.35741507597E+03 -0.21574208673E+03 -0.74773673177E+03  0.10803752176E+04  0.65864270000E+03 0.  0.
    8880022    1    1    2    0    0  0.35741507597E+03  0.21574208673E+03  0.23744066992E+04  0.24156756841E+04  0.15294330000E+03 0.  1.
<mgrwt>
<rscale>  0 0.67762056E+03</rscale>
<asrwt>0</asrwt>
<pdfrwt beam="1">  1        2 0.14379853E+00 0.77980792E+03</pdfrwt>
<pdfrwt beam="2">  1       -2 0.39405545E+00 0.77980792E+03</pdfrwt>
<totfact> 0.23911222E-01</totfact>
</mgrwt>
</event>
<event>
 4    1  0.8468429E-007  0.7925029E+03  0.7818608E-02  0.9727247E-01
          2   -1    0    0  501    0  0.00000000000E+00  0.00000000000E+00  0.90498841841E+03  0.90498841842E+03  0.25500000000E-02 0. -1.
         -2   -1    0    0    0  501 -0.00000000000E+00 -0.00000000000E+00 -0.69348796158E+03  0.69348796158E+03  0.25500000000E-02 0.  1.
    8880023    1    1    2    0    0 -0.42721886953E+03  0.10832662807E+03  0.59787473122E+03  0.99273109215E+03  0.65864270000E+03 0. -1.
    8880022    1    1    2    0    0  0.42721886953E+03 -0.10832662807E+03 -0.38637427438E+03  0.60574528785E+03  0.15294330000E+03 0.  0.
<mgrwt>
<rscale>  0 0.69417433E+03</rscale>
<asrwt>0</asrwt>
<pdfrwt beam="1">  1        2 0.13922899E+00 0.79250289E+03</pdfrwt>
<pdfrwt beam="2">  1       -2 0.10669046E+00 0.79250289E+03</pdfrwt>
<totfact> 0.20812712E+01</totfact>
</mgrwt>
</event>
<event>
 4    1  0.8468429E-007  0.7370052E+03  0.7818608E-02  0.9868758E-01
          2   -1    0    0  501    0  0.00000000000E+00  0.00000000000E+00  0.11802779761E+04  0.11802779761E+04  0.25500000000E-02 0. -1.
         -2   -1    0    0    0  501 -0.00000000000E+00 -0.00000000000E+00 -0.43952361144E+03  0.43952361145E+03  0.25500000000E-02 0.  1.
    8880023    1    1    2    0    0  0.18185307069E+03  0.27621724531E+03  0.94787672515E+03  0.12006860532E+04  0.65864270000E+03 0. -1.
    8880022    1    1    2    0    0 -0.18185307069E+03 -0.27621724531E+03 -0.20712236049E+03  0.41911553438E+03  0.15294330000E+03 0.  0.
<mgrwt>
<rscale>  0 0.61799588E+03</rscale>
<asrwt>0</asrwt>
<pdfrwt beam="1">  1        2 0.18158122E+00 0.73700523E+03</pdfrwt>
<pdfrwt beam="2">  1       -2 0.67619018E-01 0.73700523E+03</pdfrwt>
<totfact> 0.39767687E+01</totfact>
</mgrwt>
</event>
<event>
 4    1  0.8468429E-007  0.8140553E+03  0.7818608E-02  0.9681191E-01
         -2   -1    0    0    0  501 -0.00000000000E+00  0.00000000000E+00  0.82029513278E+03  0.82029513279E+03  0.25500000000E-02 0.  1.
          2   -1    0    0  501    0  0.00000000000E+00 -0.00000000000E+00 -0.13556494767E+04  0.13556494767E+04  0.25500000000E-02 0. -1.
    8880023    1    1    2    0    0  0.38070827559E+03 -0.28971885754E+03 -0.11330936743E+04  0.13952015226E+04  0.65864270000E+03 0. -1.
    8880022    1    1    2    0    0 -0.38070827559E+03  0.28971885754E+03  0.59773933046E+03  0.78074308688E+03  0.15294330000E+03 0.  0.
<mgrwt>
<rscale>  0 0.72147798E+03</rscale>
<asrwt>0</asrwt>
<pdfrwt beam="1">  1        2 0.20856146E+00 0.81405529E+03</pdfrwt>
<pdfrwt beam="2">  1       -2 0.12619925E+00 0.81405529E+03</pdfrwt>
<totfact> 0.72843186E+00</totfact>
</mgrwt>
</event>
<event>
 4    1  0.8468429E-007  0.7918512E+03  0.7818608E-02  0.9728700E-01
          2   -1    0    0  501    0  0.00000000000E+00  0.00000000000E+00  0.12319051045E+04  0.12319051045E+04  0.25500000000E-02 0. -1.
         -2   -1    0    0    0  501 -0.00000000000E+00 -0.00000000000E+00 -0.40045960663E+03  0.40045960664E+03  0.25500000000E-02 0.  1.
    8880023    1    1    2    0    0 -0.98943922207E+01  0.43945452219E+03  0.85627247509E+03  0.11662893869E+04  0.65864270000E+03 0. -1.
    8880022    1    1    2    0    0  0.98943922207E+01 -0.43945452219E+03 -0.24826977232E+02  0.46607532426E+03  0.15294330000E+03 0.  0.
<mgrwt>
<rscale>  0 0.69333396E+03</rscale>
<asrwt>0</asrwt>
<pdfrwt beam="1">  1        2 0.18952386E+00 0.79185124E+03</pdfrwt>
<pdfrwt beam="2">  1       -2 0.61609172E-01 0.79185124E+03</pdfrwt>
<totfact> 0.45025230E+01</totfact>
</mgrwt>
</event>
<event>
 4    1  0.8468429E-007  0.6822838E+03  0.7818608E-02  0.1008060E+00
          2   -1    0    0  501    0  0.00000000000E+00  0.00000000000E+00  0.66304119395E+03  0.66304119396E+03  0.25500000000E-02 0. -1.
         -2   -1    0    0    0  501 -0.00000000000E+00 -0.00000000000E+00 -0.20297086986E+04  0.20297086986E+04  0.25500000000E-02 0.  1.
    8880023    1    1    2    0    0 -0.13821014419E+03 -0.11224510217E+03  0.47809301413E+03  0.83311712463E+03  0.65864270000E+03 0. -1.
    8880022    1    1    2    0    0  0.13821014419E+03  0.11224510217E+03 -0.18447605187E+04  0.18596327679E+04  0.15294330000E+03 0.  0.
<mgrwt>
<rscale>  0 0.52252915E+03</rscale>
<asrwt>0</asrwt>
<pdfrwt beam="1">  1        2 0.10200634E+00 0.68228382E+03</pdfrwt>
<pdfrwt beam="2">  1       -2 0.31226287E+00 0.68228382E+03</pdfrwt>
<totfact> 0.12416315E+00</totfact>
</mgrwt>
</event>
<event>
 4    1  0.8468429E-007  0.8095211E+03  0.7818608E-02  0.9690575E-01
          2   -1    0    0  501    0  0.00000000000E+00  0.00000000000E+00  0.17162875704E+04  0.17162875704E+04  0.25500000000E-02 0. -1.
         -2   -1    0    0    0  501 -0.00000000000E+00 -0.00000000000E+00 -0.63370713254E+03  0.63370713255E+03  0.25500000000E-02 0.  1.
    8880023    1    1    2    0    0  0.12588444742E+03 -0.45350563900E+03  0.14987398475E+04  0.17033923786E+04  0.65864270000E+03 0. -1.
    8880022    1    1    2    0    0 -0.12588444742E+03  0.45350563900E+03 -0.41615940960E+03  0.64660232440E+03  0.15294330000E+03 0.  0.
<mgrwt>
<rscale>  0 0.71580718E+03</rscale>
<asrwt>0</asrwt>
<pdfrwt beam="1">  1        2 0.26404424E+00 0.80952113E+03</pdfrwt>
<pdfrwt beam="2">  1       -2 0.97493405E-01 0.80952113E+03</pdfrwt>
<totfact> 0.85965711E+00</totfact>
</mgrwt>
</event>
<event>
 4    1  0.8468429E-007  0.8762085E+03  0.7818608E-02  0.9565358E-01
          2   -1    0    0  501    0  0.00000000000E+00  0.00000000000E+00  0.14673978561E+04  0.14673978561E+04  0.25500000000E-02 0. -1.
         -2   -1    0    0    0  501 -0.00000000000E+00 -0.00000000000E+00 -0.48254731969E+03  0.48254731970E+03  0.25500000000E-02 0.  1.
    8880023    1    1    2    0    0  0.28456607943E+03  0.50294458840E+03  0.10278500632E+04  0.13506358026E+04  0.65864270000E+03 0.  0.
    8880022    1    1    2    0    0 -0.28456607943E+03 -0.50294458840E+03 -0.42999526739E+02  0.59930937326E+03  0.15294330000E+03 0.  0.
<mgrwt>
<rscale>  0 0.79632102E+03</rscale>
<asrwt>0</asrwt>
<pdfrwt beam="1">  1        2 0.22575351E+00 0.87620849E+03</pdfrwt>
<pdfrwt beam="2">  1       -2 0.74238050E-01 0.87620849E+03</pdfrwt>
<totfact> 0.21831951E+01</totfact>
</mgrwt>
</event>
<event>
 4    1  0.8468429E-007  0.9274446E+03  0.7818608E-02  0.9483337E-01
         -2   -1    0    0    0  501 -0.00000000000E+00  0.00000000000E+00  0.57468597745E+03  0.57468597745E+03  0.25500000000E-02 0.  1.
          2   -1    0    0  501    0  0.00000000000E+00 -0.00000000000E+00 -0.17715307838E+04  0.17715307838E+04  0.25500000000E-02 0. -1.
    8880023    1    1    2    0    0 -0.97708554217E+02  0.64559763588E+03 -0.13692538184E+04  0.16537864114E+04  0.65864270000E+03 0.  0.
    8880022    1    1    2    0    0  0.97708554217E+02 -0.64559763588E+03  0.17240901201E+03  0.69243034990E+03  0.15294330000E+03 0.  0.
<mgrwt>
<rscale>  0 0.85523518E+03</rscale>
<asrwt>0</asrwt>
<pdfrwt beam="1">  1        2 0.27254319E+00 0.92744459E+03</pdfrwt>
<pdfrwt beam="2">  1       -2 0.88413228E-01 0.92744459E+03</pdfrwt>
<totfact> 0.99202983E+00</totfact>
</mgrwt>
</event>
<event>
 4    1  0.8468429E-007  0.1139100E+04  0.7818608E-02  0.9218722E-01
          2   -1    0    0  501    0  0.00000000000E+00  0.00000000000E+00  0.25911417626E+04  0.25911417626E+04  0.25500000000E-02 0. -1.
         -2   -1    0    0    0  501 -0.00000000000E+00 -0.00000000000E+00 -0.45523809251E+03  0.45523809252E+03  0.25500000000E-02 0.  1.
    8880023    1    1    2    0    0 -0.91597228538E+03 -0.15727096988E+03  0.15957680427E+04  0.19606185855E+04  0.65864270000E+03 0.  0.
    8880022    1    1    2    0    0  0.91597228538E+03  0.15727096988E+03  0.54013562738E+03  0.10857612696E+04  0.15294330000E+03 0. -1.
<mgrwt>
<rscale>  0 0.10862254E+04</rscale>
<asrwt>0</asrwt>
<pdfrwt beam="1">  1        2 0.39863718E+00 0.11391003E+04</pdfrwt>
<pdfrwt beam="2">  1       -2 0.70036631E-01 0.11391003E+04</pdfrwt>
<totfact> 0.56942224E+00</totfact>
</mgrwt>
</event>
<event>
 4    1  0.8468429E-007  0.7525272E+03  0.7818608E-02  0.9824852E-01
         -2   -1    0    0    0  501 -0.00000000000E+00  0.00000000000E+00  0.60665649773E+03  0.60665649773E+03  0.25500000000E-02 0.  1.
          2   -1    0    0  501    0  0.00000000000E+00 -0.00000000000E+00 -0.12944814668E+04  0.12944814668E+04  0.25500000000E-02 0. -1.
    8880023    1    1    2    0    0 -0.23277954355E+03  0.27982262282E+03 -0.10984482673E+04  0.13314975848E+04  0.65864270000E+03 0.  0.
    8880022    1    1    2    0    0  0.23277954355E+03 -0.27982262282E+03  0.41062329825E+03  0.56964037973E+03  0.15294330000E+03 0.  0.
<mgrwt>
<rscale>  0 0.64045703E+03</rscale>
<asrwt>0</asrwt>
<pdfrwt beam="1">  1        2 0.19915099E+00 0.75252722E+03</pdfrwt>
<pdfrwt beam="2">  1       -2 0.93331769E-01 0.75252722E+03</pdfrwt>
<totfact> 0.16507647E+01</totfact>
</mgrwt>
</event>
<event>
 4    1  0.8468429E-007  0.7304468E+03  0.7818608E-02  0.9888703E-01
          2   -1    0    0  501    0  0.00000000000E+00  0.00000000000E+00  0.14565491825E+04  0.14565491825E+04  0.25500000000E-02 0. -1.
         -2   -1    0    0    0  501 -0.00000000000E+00 -0.00000000000E+00 -0.67682479496E+03  0.67682479497E+03  0.25500000000E-02 0.  1.
    8880023    1    1    2    0    0 -0.30376031182E+03 -0.86440785936E+02  0.13086075878E+04  0.14986681960E+04  0.65864270000E+03 0. -1.
    8880022    1    1    2    0    0  0.30376031182E+03  0.86440785936E+02 -0.52888320027E+03  0.63470578149E+03  0.15294330000E+03 0.  0.
<mgrwt>
<rscale>  0 0.60811917E+03</rscale>
<asrwt>0</asrwt>
<pdfrwt beam="1">  1        2 0.22408449E+00 0.73044681E+03</pdfrwt>
<pdfrwt beam="2">  1       -2 0.10412689E+00 0.73044681E+03</pdfrwt>
<totfact> 0.10343076E+01</totfact>
</mgrwt>
</event>
<event>
 4    1  0.8468429E-007  0.7811465E+03  0.7818608E-02  0.9753151E-01
         -2   -1    0    0    0  501 -0.00000000000E+00  0.00000000000E+00  0.95666005558E+03  0.95666005559E+03  0.25500000000E-02 0.  1.
          2   -1    0    0  501    0  0.00000000000E+00 -0.00000000000E+00 -0.42104308775E+03  0.42104308776E+03  0.25500000000E-02 0. -1.
    8880023    1    1    2    0    0 -0.40483763879E+03  0.11174162015E+03  0.50400344925E+03  0.92962862831E+03  0.65864270000E+03 0.  0.
    8880022    1    1    2    0    0  0.40483763879E+03 -0.11174162015E+03  0.31613518588E+02  0.44807451504E+03  0.15294330000E+03 0.  0.
<mgrwt>
<rscale>  0 0.67938513E+03</rscale>
<asrwt>0</asrwt>
<pdfrwt beam="1">  1        2 0.64775860E-01 0.78114654E+03</pdfrwt>
<pdfrwt beam="2">  1       -2 0.14717847E+00 0.78114654E+03</pdfrwt>
<totfact> 0.23884770E+01</totfact>
</mgrwt>
</event>
<event>
 4    1  0.8468429E-007  0.6588169E+03  0.7818608E-02  0.1025403E+00
          2   -1    0    0  501    0  0.00000000000E+00  0.00000000000E+00  0.31882253672E+04  0.31882253672E+04  0.25500000000E-02 0. -1.
         -2   -1    0    0    0  501 -0.00000000000E+00 -0.00000000000E+00 -0.26949702240E+03  0.26949702242E+03  0.25500000000E-02 0.  1.
    8880023    1    1    2    0    0 -0.13892545515E+02  0.60405631834E+01  0.31288122887E+04  0.31974217794E+04  0.65864270000E+03 0. -1.
    8880022    1    1    2    0    0  0.13892545515E+02 -0.60405631834E+01 -0.21008394385E+03  0.26030061026E+03  0.15294330000E+03 0.  0.
<mgrwt>
<rscale>  0 0.45786364E+03</rscale>
<asrwt>0</asrwt>
<pdfrwt beam="1">  1        2 0.49049620E+00 0.65881689E+03</pdfrwt>
<pdfrwt beam="2">  1       -2 0.41461081E-01 0.65881689E+03</pdfrwt>
<totfact> 0.79330433E+00</totfact>
</mgrwt>
</event>
<event>
 4    1  0.8468429E-007  0.7319529E+03  0.7818608E-02  0.9884040E-01
         -2   -1    0    0    0  501 -0.00000000000E+00  0.00000000000E+00  0.27389018924E+03  0.27389018925E+03  0.25500000000E-02 0.  1.
          2   -1    0    0  501    0  0.00000000000E+00 -0.00000000000E+00 -0.21643356299E+04  0.21643356299E+04  0.25500000000E-02 0. -1.
    8880023    1    1    2    0    0  0.69179267481E+02 -0.31170342380E+03 -0.19466970818E+04  0.20797558823E+04  0.65864270000E+03 0. -1.
    8880022    1    1    2    0    0 -0.69179267481E+02  0.31170342380E+03  0.56251641161E+02  0.35846993683E+03  0.15294330000E+03 0.  0.
<mgrwt>
<rscale>  0 0.61041052E+03</rscale>
<asrwt>0</asrwt>
<pdfrwt beam="1">  1        2 0.33297470E+00 0.73195287E+03</pdfrwt>
<pdfrwt beam="2">  1       -2 0.42136954E-01 0.73195287E+03</pdfrwt>
<totfact> 0.29977862E+01</totfact>
</mgrwt>
</event>
<event>
 4    1  0.8468429E-007  0.6921978E+03  0.7818608E-02  0.1003125E+00
         -2   -1    0    0    0  501 -0.00000000000E+00  0.00000000000E+00  0.25252000293E+03  0.25252000294E+03  0.25500000000E-02 0.  1.
          2   -1    0    0  501    0  0.00000000000E+00 -0.00000000000E+00 -0.14310307183E+04  0.14310307183E+04  0.25500000000E-02 0. -1.
    8880023    1    1    2    0    0 -0.96974133531E+02 -0.18953532141E+03 -0.12346623307E+04  0.14154606663E+04  0.65864270000E+03 0. -1.
    8880022    1    1    2    0    0  0.96974133531E+02  0.18953532141E+03  0.56151615359E+02  0.26809005494E+03  0.15294330000E+03 0.  0.
<mgrwt>
<rscale>  0 0.54300958E+03</rscale>
<asrwt>0</asrwt>
<pdfrwt beam="1">  1        2 0.22015857E+00 0.69219782E+03</pdfrwt>
<pdfrwt beam="2">  1       -2 0.38849232E-01 0.69219782E+03</pdfrwt>
<totfact> 0.89043373E+01</totfact>
</mgrwt>
</event>
<event>
 4    1  0.8468429E-007  0.9095037E+03  0.7818608E-02  0.9510944E-01
          2   -1    0    0  501    0  0.00000000000E+00  0.00000000000E+00  0.22368131478E+04  0.22368131478E+04  0.25500000000E-02 0. -1.
         -2   -1    0    0    0  501 -0.00000000000E+00 -0.00000000000E+00 -0.39825087387E+03  0.39825087387E+03  0.25500000000E-02 0.  1.
    8880023    1    1    2    0    0 -0.48208695889E+03  0.40122176086E+03  0.17646767953E+04  0.19852660113E+04  0.65864270000E+03 0.  0.
    8880022    1    1    2    0    0  0.48208695889E+03 -0.40122176086E+03  0.73885478584E+02  0.64979801037E+03  0.15294330000E+03 0.  0.
<mgrwt>
<rscale>  0 0.83481740E+03</rscale>
<asrwt>0</asrwt>
<pdfrwt beam="1">  1        2 0.34412511E+00 0.90950368E+03</pdfrwt>
<pdfrwt beam="2">  1       -2 0.61269364E-01 0.90950368E+03</pdfrwt>
<totfact> 0.12415694E+01</totfact>
</mgrwt>
</event>
<event>
 4    1  0.8468429E-007  0.7177786E+03  0.7818608E-02  0.9930175E-01
          2   -1    0    0  501    0  0.00000000000E+00  0.00000000000E+00  0.30081992038E+04  0.30081992038E+04  0.25500000000E-02 0. -1.
         -2   -1    0    0    0  501 -0.00000000000E+00 -0.00000000000E+00 -0.31801372620E+03  0.31801372621E+03  0.25500000000E-02 0.  1.
    8880023    1    1    2    0    0  0.28516886429E+03 -0.86352452537E+01  0.28682934982E+04  0.29567403753E+04  0.65864270000E+03 0. -1.
    8880022    1    1    2    0    0 -0.28516886429E+03  0.86352452537E+01 -0.17810802067E+03  0.36947255468E+03  0.15294330000E+03 0.  0.
<mgrwt>
<rscale>  0 0.58820884E+03</rscale>
<asrwt>0</asrwt>
<pdfrwt beam="1">  1        2 0.46279989E+00 0.71777856E+03</pdfrwt>
<pdfrwt beam="2">  1       -2 0.48925187E-01 0.71777856E+03</pdfrwt>
<totfact> 0.72928279E+00</totfact>
</mgrwt>
</event>
<event>
 4    1  0.8468429E-007  0.1090446E+04  0.7818608E-02  0.9271769E-01
         -2   -1    0    0    0  501 -0.00000000000E+00  0.00000000000E+00  0.99599124776E+03  0.99599124777E+03  0.25500000000E-02 0.  1.
          2   -1    0    0  501    0  0.00000000000E+00 -0.00000000000E+00 -0.14529300031E+04  0.14529300031E+04  0.25500000000E-02 0. -1.
    8880023    1    1    2    0    0 -0.59851071689E+03  0.63011604170E+03 -0.94287369256E+03  0.14415555177E+04  0.65864270000E+03 0. -1.
    8880022    1    1    2    0    0  0.59851071689E+03 -0.63011604170E+03  0.48593493718E+03  0.10073657332E+04  0.15294330000E+03 0.  0.
<mgrwt>
<rscale>  0 0.10342392E+04</rscale>
<asrwt>0</asrwt>
<pdfrwt beam="1">  1        2 0.22352769E+00 0.10904456E+04</pdfrwt>
<pdfrwt beam="2">  1       -2 0.15322942E+00 0.10904456E+04</pdfrwt>
<totfact> 0.37545801E+00</totfact>
</mgrwt>
</event>
<event>
 4    1  0.8468429E-007  0.7864129E+03  0.7818608E-02  0.9740983E-01
          2   -1    0    0  501    0  0.00000000000E+00  0.00000000000E+00  0.17435589114E+04  0.17435589114E+04  0.25500000000E-02 0. -1.
         -2   -1    0    0    0  501 -0.00000000000E+00 -0.00000000000E+00 -0.27517507700E+03  0.27517507701E+03  0.25500000000E-02 0.  1.
    8880023    1    1    2    0    0  0.40590394445E+03 -0.14098572918E+03  0.13246890560E+04  0.15405344168E+04  0.65864270000E+03 0.  1.
    8880022    1    1    2    0    0 -0.40590394445E+03  0.14098572918E+03  0.14369477838E+03  0.47819957162E+03  0.15294330000E+03 0.  0.
<mgrwt>
<rscale>  0 0.68628235E+03</rscale>
<asrwt>0</asrwt>
<pdfrwt beam="1">  1        2 0.26823983E+00 0.78641286E+03</pdfrwt>
<pdfrwt beam="2">  1       -2 0.42334627E-01 0.78641286E+03</pdfrwt>
<totfact> 0.50100216E+01</totfact>
</mgrwt>
</event>
<event>
 4    1  0.8468429E-007  0.6629464E+03  0.7818608E-02  0.1021322E+00
          2   -1    0    0  501    0  0.00000000000E+00  0.00000000000E+00  0.42696233755E+04  0.42696233756E+04  0.25500000000E-02 0. -1.
         -2   -1    0    0    0  501 -0.00000000000E+00 -0.00000000000E+00 -0.58871480076E+02  0.58871480131E+02  0.25500000000E-02 0.  1.
    8880023    1    1    2    0    0  0.79290922029E+01 -0.74999169269E+02  0.40129179658E+04  0.40673097439E+04  0.65864270000E+03 0. -1.
    8880022    1    1    2    0    0 -0.79290922029E+01  0.74999169269E+02  0.19783392964E+03  0.26118511180E+03  0.15294330000E+03 0.  0.
<mgrwt>
<rscale>  0 0.47212500E+03</rscale>
<asrwt>0</asrwt>
<pdfrwt beam="1">  1        2 0.65686512E+00 0.66294642E+03</pdfrwt>
<pdfrwt beam="2">  1       -2 0.90571510E-02 0.66294642E+03</pdfrwt>
<totfact> 0.18507430E+01</totfact>
</mgrwt>
</event>
<event>
 4    1  0.8468429E-007  0.7257682E+03  0.7818608E-02  0.9903531E-01
          2   -1    0    0  501    0  0.00000000000E+00  0.00000000000E+00  0.40743404790E+03  0.40743404791E+03  0.25500000000E-02 0. -1.
         -2   -1    0    0    0  501 -0.00000000000E+00 -0.00000000000E+00 -0.12127355952E+04  0.12127355952E+04  0.25500000000E-02 0.  1.
    8880023    1    1    2    0    0  0.99924634084E+02  0.28800052370E+03  0.21185128514E+02  0.72607730310E+03  0.65864270000E+03 0. -1.
    8880022    1    1    2    0    0 -0.99924634084E+02 -0.28800052370E+03 -0.82648667583E+03  0.89409234002E+03  0.15294330000E+03 0.  0.
<mgrwt>
<rscale>  0 0.60090477E+03</rscale>
<asrwt>0</asrwt>
<pdfrwt beam="1">  1        2 0.62682162E-01 0.72576817E+03</pdfrwt>
<pdfrwt beam="2">  1       -2 0.18657470E+00 0.72576817E+03</pdfrwt>
<totfact> 0.12974194E+01</totfact>
</mgrwt>
</event>
<event>
 4    1  0.8468429E-007  0.7044362E+03  0.7818608E-02  0.9979273E-01
         -2   -1    0    0    0  501 -0.00000000000E+00  0.00000000000E+00  0.59314471906E+03  0.59314471906E+03  0.25500000000E-02 0.  1.
          2   -1    0    0  501    0  0.00000000000E+00 -0.00000000000E+00 -0.10825277932E+04  0.10825277932E+04  0.25500000000E-02 0. -1.
    8880023    1    1    2    0    0 -0.15652990452E+02 -0.24934940779E+03 -0.91761902892E+03  0.11568297333E+04  0.65864270000E+03 0. -1.
    8880022    1    1    2    0    0  0.15652990452E+02  0.24934940779E+03  0.42823595481E+03  0.51884277896E+03  0.15294330000E+03 0.  0.
<mgrwt>
<rscale>  0 0.56568494E+03</rscale>
<asrwt>0</asrwt>
<pdfrwt beam="1">  1        2 0.16654274E+00 0.70443619E+03</pdfrwt>
<pdfrwt beam="2">  1       -2 0.91253034E-01 0.70443619E+03</pdfrwt>
<totfact> 0.23374228E+01</totfact>
</mgrwt>
</event>
<event>
 4    1  0.8468429E-007  0.6977513E+03  0.7818608E-02  0.1000666E+00
          2   -1    0    0  501    0  0.00000000000E+00  0.00000000000E+00  0.14629365579E+04  0.14629365579E+04  0.25500000000E-02 0. -1.
         -2   -1    0    0    0  501 -0.00000000000E+00 -0.00000000000E+00 -0.25290466580E+03  0.25290466581E+03  0.25500000000E-02 0.  1.
    8880023    1    1    2    0    0  0.19035267645E+03 -0.12966303229E+03  0.12548142583E+04  0.14357630976E+04  0.65864270000E+03 0. -1.
    8880022    1    1    2    0    0 -0.19035267645E+03  0.12966303229E+03 -0.44782366206E+02  0.28007812609E+03  0.15294330000E+03 0.  0.
<mgrwt>
<rscale>  0 0.55359143E+03</rscale>
<asrwt>0</asrwt>
<pdfrwt beam="1">  1        2 0.22506717E+00 0.69775128E+03</pdfrwt>
<pdfrwt beam="2">  1       -2 0.38908409E-01 0.69775128E+03</pdfrwt>
<totfact> 0.85158200E+01</totfact>
</mgrwt>
</event>
<event>
 4    1  0.8468429E-007  0.6661642E+03  0.7818608E-02  0.1018576E+00
          2   -1    0    0  501    0  0.00000000000E+00  0.00000000000E+00  0.19520684673E+04  0.19520684673E+04  0.25500000000E-02 0. -1.
         -2   -1    0    0    0  501 -0.00000000000E+00 -0.00000000000E+00 -0.11582881824E+03  0.11582881826E+03  0.25500000000E-02 0.  1.
    8880023    1    1    2    0    0  0.99316283901E+02  0.10041681989E+02  0.17362935832E+04  0.18597016355E+04  0.65864270000E+03 0. -1.
    8880022    1    1    2    0    0 -0.99316283901E+02 -0.10041681989E+02  0.99946065860E+02  0.20819565010E+03  0.15294330000E+03 0.  0.
<mgrwt>
<rscale>  0 0.48203999E+03</rscale>
<asrwt>0</asrwt>
<pdfrwt beam="1">  1        2 0.30031822E+00 0.66616422E+03</pdfrwt>
<pdfrwt beam="2">  1       -2 0.17819819E-01 0.66616422E+03</pdfrwt>
<totfact> 0.19114494E+02</totfact>
</mgrwt>
</event>
<event>
 4    1  0.8468429E-007  0.6913384E+03  0.7818608E-02  0.1003523E+00
         -2   -1    0    0    0  501 -0.00000000000E+00  0.00000000000E+00  0.10483983992E+04  0.10483983992E+04  0.25500000000E-02 0.  1.
          2   -1    0    0  501    0  0.00000000000E+00 -0.00000000000E+00 -0.86735183530E+03  0.86735183530E+03  0.25500000000E-02 0. -1.
    8880023    1    1    2    0    0  0.47885617934E+02 -0.20456169986E+03 -0.70797087321E+03  0.98953094192E+03  0.65864270000E+03 0.  0.
    8880022    1    1    2    0    0 -0.47885617934E+02  0.20456169986E+03  0.88901743706E+03  0.92621929253E+03  0.15294330000E+03 0.  1.
<mgrwt>
<rscale>  0 0.54132144E+03</rscale>
<asrwt>0</asrwt>
<pdfrwt beam="1">  1        2 0.13343874E+00 0.69133836E+03</pdfrwt>
<pdfrwt beam="2">  1       -2 0.16129206E+00 0.69133836E+03</pdfrwt>
<totfact> 0.78001654E+00</totfact>
</mgrwt>
</event>
<event>
 4    1  0.8468429E-007  0.6634734E+03  0.7818608E-02  0.1020850E+00
         -2   -1    0    0    0  501 -0.00000000000E+00  0.00000000000E+00  0.55689995886E+03  0.55689995886E+03  0.25500000000E-02 0.  1.
          2   -1    0    0  501    0  0.00000000000E+00 -0.00000000000E+00 -0.11286781916E+04  0.11286781916E+04  0.25500000000E-02 0. -1.
    8880023    1    1    2    0    0  0.79427889706E+02 -0.88320596833E+01 -0.10134950437E+04  0.12113501578E+04  0.65864270000E+03 0. -1.
    8880022    1    1    2    0    0 -0.79427889706E+02  0.88320596833E+01  0.44171681095E+03  0.47422799267E+03  0.15294330000E+03 0.  0.
<mgrwt>
<rscale>  0 0.47381130E+03</rscale>
<asrwt>0</asrwt>
<pdfrwt beam="1">  1        2 0.17364280E+00 0.66347344E+03</pdfrwt>
<pdfrwt beam="2">  1       -2 0.85676916E-01 0.66347344E+03</pdfrwt>
<totfact> 0.25441221E+01</totfact>
</mgrwt>
</event>
<event>
 4    1  0.8468429E-007  0.7099188E+03  0.7818608E-02  0.9958303E-01
          2   -1    0    0  501    0  0.00000000000E+00  0.00000000000E+00  0.21780442971E+04  0.21780442971E+04  0.25500000000E-02 0. -1.
         -2   -1    0    0    0  501 -0.00000000000E+00 -0.00000000000E+00 -0.33517262219E+03  0.33517262220E+03  0.25500000000E-02 0.  1.
    8880023    1    1    2    0    0  0.23531968365E+03 -0.12165172709E+03  0.20327762990E+04  0.21531753724E+04  0.65864270000E+03 0. -1.
    8880022    1    1    2    0    0 -0.23531968365E+03  0.12165172709E+03 -0.18990462411E+03  0.36004154690E+03  0.15294330000E+03 0.  0.
<mgrwt>
<rscale>  0 0.57517017E+03</rscale>
<asrwt>0</asrwt>
<pdfrwt beam="1">  1        2 0.33508374E+00 0.70991880E+03</pdfrwt>
<pdfrwt beam="2">  1       -2 0.51565019E-01 0.70991880E+03</pdfrwt>
<totfact> 0.19709762E+01</totfact>
</mgrwt>
</event>
<event>
 4    1  0.8468429E-007  0.7496005E+03  0.7818608E-02  0.9832815E-01
          2   -1    0    0  501    0  0.00000000000E+00  0.00000000000E+00  0.24147366892E+04  0.24147366892E+04  0.25500000000E-02 0. -1.
         -2   -1    0    0    0  501 -0.00000000000E+00 -0.00000000000E+00 -0.24707088063E+03  0.24707088064E+03  0.25500000000E-02 0.  1.
    8880023    1    1    2    0    0 -0.30664041692E+03 -0.18455974138E+03  0.21446991677E+04  0.22719232754E+04  0.65864270000E+03 0. -1.
    8880022    1    1    2    0    0  0.30664041692E+03  0.18455974138E+03  0.22966640915E+02  0.38988429442E+03  0.15294330000E+03 0.  0.
<mgrwt>
<rscale>  0 0.63630834E+03</rscale>
<asrwt>0</asrwt>
<pdfrwt beam="1">  1        2 0.37149796E+00 0.74960046E+03</pdfrwt>
<pdfrwt beam="2">  1       -2 0.38010904E-01 0.74960046E+03</pdfrwt>
<totfact> 0.26547154E+01</totfact>
</mgrwt>
</event>
<event>
 4    1  0.8468429E-007  0.8377317E+03  0.7818608E-02  0.9634472E-01
         -2   -1    0    0    0  501 -0.00000000000E+00  0.00000000000E+00  0.41767610841E+03  0.41767610842E+03  0.25500000000E-02 0.  1.
          2   -1    0    0  501    0  0.00000000000E+00 -0.00000000000E+00 -0.19350980399E+04  0.19350980399E+04  0.25500000000E-02 0. -1.
    8880023    1    1    2    0    0  0.43509288993E+03 -0.28049675641E+03 -0.16006339723E+04  0.18066055388E+04  0.65864270000E+03 0.  0.
    8880022    1    1    2    0    0 -0.43509288993E+03  0.28049675641E+03  0.83212040856E+02  0.54616860949E+03  0.15294330000E+03 0.  0.
<mgrwt>
<rscale>  0 0.75056003E+03</rscale>
<asrwt>0</asrwt>
<pdfrwt beam="1">  1        2 0.29770739E+00 0.83773173E+03</pdfrwt>
<pdfrwt beam="2">  1       -2 0.64257864E-01 0.83773173E+03</pdfrwt>
<totfact> 0.16589771E+01</totfact>
</mgrwt>
</event>
<event>
 4    1  0.1012281E-006  0.7510017E+03  0.7818608E-02  0.9828986E-01
         -2   -1    0    0    0  501 -0.00000000000E+00  0.00000000000E+00  0.11193128266E+04  0.11193128266E+04  0.25500000000E-02 0.  1.
          2   -1    0    0  501    0  0.00000000000E+00 -0.00000000000E+00 -0.12740125238E+04  0.12740125238E+04  0.25500000000E-02 0. -1.
    8880023    1    1    2    0    0 -0.28088180795E+03 -0.22649219218E+03 -0.11217201702E+04  0.13499109785E+04  0.65864270000E+03 0. -1.
    8880022    1    1    2    0    0  0.28088180795E+03  0.22649219218E+03  0.96702047310E+03  0.10434143719E+04  0.15294330000E+03 0.  0.
<mgrwt>
<rscale>  0 0.63829914E+03</rscale>
<asrwt>0</asrwt>
<pdfrwt beam="1">  1        2 0.19600193E+00 0.75100167E+03</pdfrwt>
<pdfrwt beam="2">  1       -2 0.17220197E+00 0.75100167E+03</pdfrwt>
<totfact> 0.36059123E+00</totfact>
</mgrwt>
</event>
<event>
 4    1  0.8468429E-007  0.7895248E+03  0.7818608E-02  0.9733921E-01
         -2   -1    0    0    0  501 -0.00000000000E+00  0.00000000000E+00  0.17863134803E+03  0.17863134805E+03  0.25500000000E-02 0.  1.
          2   -1    0    0  501    0  0.00000000000E+00 -0.00000000000E+00 -0.33203248502E+04  0.33203248502E+04  0.25500000000E-02 0. -1.
    8880023    1    1    2    0    0  0.39693391059E+03  0.17883690000E+03 -0.28398495593E+04  0.29475574450E+04  0.65864270000E+03 0.  0.
    8880022    1    1    2    0    0 -0.39693391059E+03 -0.17883690000E+03 -0.30184394291E+03  0.55139875323E+03  0.15294330000E+03 0.  0.
<mgrwt>
<rscale>  0 0.69032585E+03</rscale>
<asrwt>0</asrwt>
<pdfrwt beam="1">  1        2 0.51081916E+00 0.78952478E+03</pdfrwt>
<pdfrwt beam="2">  1       -2 0.27481748E-01 0.78952478E+03</pdfrwt>
<totfact> 0.13854609E+01</totfact>
</mgrwt>
</event>
<event>
 4    1  0.8468429E-007  0.6690986E+03  0.7818608E-02  0.1016317E+00
         -2   -1    0    0    0  501 -0.00000000000E+00  0.00000000000E+00  0.27673031271E+03  0.27673031272E+03  0.25500000000E-02 0.  1.
          2   -1    0    0  501    0  0.00000000000E+00 -0.00000000000E+00 -0.97481589493E+03  0.97481589493E+03  0.25500000000E-02 0. -1.
    8880023    1    1    2    0    0  0.41788415682E+01  0.11775064390E+03 -0.79204097154E+03  0.10368325727E+04  0.65864270000E+03 0. -1.
    8880022    1    1    2    0    0 -0.41788415682E+01 -0.11775064390E+03  0.93955389318E+02  0.21471363500E+03  0.15294330000E+03 0.  0.
<mgrwt>
<rscale>  0 0.49039248E+03</rscale>
<asrwt>0</asrwt>
<pdfrwt beam="1">  1        2 0.14997167E+00 0.66909856E+03</pdfrwt>
<pdfrwt beam="2">  1       -2 0.42573895E-01 0.66909856E+03</pdfrwt>
<totfact> 0.13919065E+02</totfact>
</mgrwt>
</event>
<event>
 4    1  0.8468429E-007  0.8625395E+03  0.7818608E-02  0.9589062E-01
         -2   -1    0    0    0  501 -0.00000000000E+00  0.00000000000E+00  0.16812261339E+04  0.16812261339E+04  0.25500000000E-02 0.  1.
          2   -1    0    0  501    0  0.00000000000E+00 -0.00000000000E+00 -0.72262171901E+03  0.72262171901E+03  0.25500000000E-02 0. -1.
    8880023    1    1    2    0    0  0.45933947697E+03 -0.31491495730E+03  0.14221578545E+04  0.16632821032E+04  0.65864270000E+03 0.  0.
    8880022    1    1    2    0    0 -0.45933947697E+03  0.31491495730E+03 -0.46355343954E+03  0.74056574979E+03  0.15294330000E+03 0.  0.
<mgrwt>
<rscale>  0 0.78024378E+03</rscale>
<asrwt>0</asrwt>
<pdfrwt beam="1">  1        2 0.11117257E+00 0.86253950E+03</pdfrwt>
<pdfrwt beam="2">  1       -2 0.25865017E+00 0.86253950E+03</pdfrwt>
<totfact> 0.22737410E+00</totfact>
</mgrwt>
</event>
<event>
 4    1  0.8468429E-007  0.9014379E+03  0.7818608E-02  0.9523727E-01
          2   -1    0    0  501    0  0.00000000000E+00  0.00000000000E+00  0.16168401267E+04  0.16168401267E+04  0.25500000000E-02 0. -1.
         -2   -1    0    0    0  501 -0.00000000000E+00 -0.00000000000E+00 -0.50260469382E+03  0.50260469383E+03  0.25500000000E-02 0.  1.
    8880023    1    1    2    0    0 -0.60248830502E+03  0.12564995886E+03  0.11765944347E+04  0.14822161583E+04  0.65864270000E+03 0. -1.
    8880022    1    1    2    0    0  0.60248830502E+03 -0.12564995886E+03 -0.62359001838E+02  0.63722866223E+03  0.15294330000E+03 0.  0.
<mgrwt>
<rscale>  0 0.82556885E+03</rscale>
<asrwt>0</asrwt>
<pdfrwt beam="1">  1        2 0.24874463E+00 0.90143789E+03</pdfrwt>
<pdfrwt beam="2">  1       -2 0.77323801E-01 0.90143789E+03</pdfrwt>
<totfact> 0.16414797E+01</totfact>
</mgrwt>
</event>
<event>
 4    1  0.8468429E-007  0.7468227E+03  0.7818608E-02  0.9840501E-01
         -2   -1    0    0    0  501 -0.00000000000E+00  0.00000000000E+00  0.61876419469E+03  0.61876419469E+03  0.25500000000E-02 0.  1.
          2   -1    0    0  501    0  0.00000000000E+00 -0.00000000000E+00 -0.60116325140E+03  0.60116325141E+03  0.25500000000E-02 0. -1.
    8880023    1    1    2    0    0  0.34744178054E+03  0.56728814343E+02 -0.20730193142E+03  0.77506015655E+03  0.65864270000E+03 0. -1.
    8880022    1    1    2    0    0 -0.34744178054E+03 -0.56728814343E+02  0.22490287471E+03  0.44486728955E+03  0.15294330000E+03 0.  1.
<mgrwt>
<rscale>  0 0.63233601E+03</rscale>
<asrwt>0</asrwt>
<pdfrwt beam="1">  1        2 0.92486654E-01 0.74682271E+03</pdfrwt>
<pdfrwt beam="2">  1       -2 0.95194491E-01 0.74682271E+03</pdfrwt>
<totfact> 0.46473477E+01</totfact>
</mgrwt>
</event>
<event>
 4    1  0.8468429E-007  0.7362984E+03  0.7818608E-02  0.9870864E-01
          2   -1    0    0  501    0  0.00000000000E+00  0.00000000000E+00  0.10944197390E+04  0.10944197390E+04  0.25500000000E-02 0. -1.
         -2   -1    0    0    0  501 -0.00000000000E+00 -0.00000000000E+00 -0.57638832351E+03  0.57638832351E+03  0.25500000000E-02 0.  1.
    8880023    1    1    2    0    0 -0.26870328553E+03  0.19006219812E+03  0.88732394246E+03  0.11530303899E+04  0.65864270000E+03 0. -1.
    8880022    1    1    2    0    0  0.26870328553E+03 -0.19006219812E+03 -0.36929252697E+03  0.51777767265E+03  0.15294330000E+03 0.  0.
<mgrwt>
<rscale>  0 0.61694366E+03</rscale>
<asrwt>0</asrwt>
<pdfrwt beam="1">  1        2 0.16837226E+00 0.73629838E+03</pdfrwt>
<pdfrwt beam="2">  1       -2 0.88675128E-01 0.73629838E+03</pdfrwt>
<totfact> 0.24469820E+01</totfact>
</mgrwt>
</event>
<event>
 4    1  0.8468429E-007  0.1221698E+04  0.7818608E-02  0.9136313E-01
         -2   -1    0    0    0  501 -0.00000000000E+00  0.00000000000E+00  0.53670839978E+03  0.53670839978E+03  0.25500000000E-02 0.  1.
          2   -1    0    0  501    0  0.00000000000E+00 -0.00000000000E+00 -0.29197681663E+04  0.29197681663E+04  0.25500000000E-02 0. -1.
    8880023    1    1    2    0    0  0.74266393750E+03 -0.71217072679E+03 -0.20084372237E+04  0.23508226552E+04  0.65864270000E+03 0. -1.
    8880022    1    1    2    0    0 -0.74266393750E+03  0.71217072679E+03 -0.37462254281E+03  0.11056539109E+04  0.15294330000E+03 0.  1.
<mgrwt>
<rscale>  0 0.11735669E+04</rscale>
<asrwt>0</asrwt>
<pdfrwt beam="1">  1        2 0.44919509E+00 0.12216984E+04</pdfrwt>
<pdfrwt beam="2">  1       -2 0.82570524E-01 0.12216984E+04</pdfrwt>
<totfact> 0.24866980E+00</totfact>
</mgrwt>
</event>
<event>
 4    1  0.8468429E-007  0.9344651E+03  0.7818608E-02  0.9472827E-01
         -2   -1    0    0    0  501 -0.00000000000E+00  0.00000000000E+00  0.40384601528E+03  0.40384601529E+03  0.25500000000E-02 0.  1.
          2   -1    0    0  501    0  0.00000000000E+00 -0.00000000000E+00 -0.26079913006E+04  0.26079913006E+04  0.25500000000E-02 0. -1.
    8880023    1    1    2    0    0  0.15140180912E+03 -0.64536215653E+03 -0.21319068758E+04  0.23277138901E+04  0.65864270000E+03 0.  0.
    8880022    1    1    2    0    0 -0.15140180912E+03  0.64536215653E+03 -0.72238409530E+02  0.68412342579E+03  0.15294330000E+03 0.  0.
<mgrwt>
<rscale>  0 0.86317180E+03</rscale>
<asrwt>0</asrwt>
<pdfrwt beam="1">  1        2 0.40122942E+00 0.93446510E+03</pdfrwt>
<pdfrwt beam="2">  1       -2 0.62130158E-01 0.93446510E+03</pdfrwt>
<totfact> 0.74042696E+00</totfact>
</mgrwt>
</event>
<event>
 4    1  0.8468429E-007  0.8073437E+03  0.7818608E-02  0.9695137E-01
         -2   -1    0    0    0  501 -0.00000000000E+00  0.00000000000E+00  0.13168627662E+04  0.13168627662E+04  0.25500000000E-02 0.  1.
          2   -1    0    0  501    0  0.00000000000E+00 -0.00000000000E+00 -0.41275782526E+03  0.41275782527E+03  0.25500000000E-02 0. -1.
    8880023    1    1    2    0    0  0.20694083483E+03  0.41853220866E+03  0.13732255326E+03  0.81893919719E+03  0.65864270000E+03 0.  0.
    8880022    1    1    2    0    0 -0.20694083483E+03 -0.41853220866E+03  0.76678238765E+03  0.91068139425E+03  0.15294330000E+03 0.  0.
<mgrwt>
<rscale>  0 0.71307093E+03</rscale>
<asrwt>0</asrwt>
<pdfrwt beam="1">  1        2 0.63501204E-01 0.80734375E+03</pdfrwt>
<pdfrwt beam="2">  1       -2 0.20259427E+00 0.80734375E+03</pdfrwt>
<totfact> 0.99453199E+00</totfact>
</mgrwt>
</event>
<event>
 4    1  0.8468429E-007  0.7478044E+03  0.7818608E-02  0.9837770E-01
         -2   -1    0    0    0  501 -0.00000000000E+00  0.00000000000E+00  0.33406018946E+03  0.33406018947E+03  0.25500000000E-02 0.  1.
          2   -1    0    0  501    0  0.00000000000E+00 -0.00000000000E+00 -0.10413900393E+04  0.10413900393E+04  0.25500000000E-02 0. -1.
    8880023    1    1    2    0    0 -0.29353239060E+03 -0.19809077614E+03 -0.27678774496E+03  0.79738502741E+03  0.65864270000E+03 0. -1.
    8880022    1    1    2    0    0  0.29353239060E+03  0.19809077614E+03 -0.43054210485E+03  0.57806520133E+03  0.15294330000E+03 0.  0.
<mgrwt>
<rscale>  0 0.63374388E+03</rscale>
<asrwt>0</asrwt>
<pdfrwt beam="1">  1        2 0.16021385E+00 0.74780440E+03</pdfrwt>
<pdfrwt beam="2">  1       -2 0.51393876E-01 0.74780440E+03</pdfrwt>
<totfact> 0.86022477E+01</totfact>
</mgrwt>
</event>
<event>
 4    1  0.8468429E-007  0.1476022E+04  0.7818608E-02  0.8926756E-01
          2   -1    0    0  501    0  0.00000000000E+00  0.00000000000E+00  0.17646161035E+04  0.17646161035E+04  0.25500000000E-02 0. -1.
         -2   -1    0    0    0  501 -0.00000000000E+00 -0.00000000000E+00 -0.21708712252E+04  0.21708712252E+04  0.25500000000E-02 0.  1.
    8880023    1    1    2    0    0 -0.68447075852E+03 -0.11297480224E+04 -0.15797376081E+04  0.21619925832E+04  0.65864270000E+03 0.  1.
    8880022    1    1    2    0    0  0.68447075852E+03  0.11297480224E+04  0.11734824864E+04  0.17734947455E+04  0.15294330000E+03 0.  0.
<mgrwt>
<rscale>  0 0.14380095E+04</rscale>
<asrwt>0</asrwt>
<pdfrwt beam="1">  1        2 0.27147940E+00 0.14760220E+04</pdfrwt>
<pdfrwt beam="2">  1       -2 0.33398019E+00 0.14760220E+04</pdfrwt>
<totfact> 0.16685596E-01</totfact>
</mgrwt>
</event>
<event>
 4    1  0.8468429E-007  0.7163549E+03  0.7818608E-02  0.9935119E-01
         -2   -1    0    0    0  501 -0.00000000000E+00  0.00000000000E+00  0.25564521891E+03  0.25564521892E+03  0.25500000000E-02 0.  1.
          2   -1    0    0  501    0  0.00000000000E+00 -0.00000000000E+00 -0.16719639882E+04  0.16719639882E+04  0.25500000000E-02 0. -1.
    8880023    1    1    2    0    0  0.27514199578E+03 -0.60423081603E+02 -0.31852967413E+03  0.78398050116E+03  0.65864270000E+03 0. -1.
    8880022    1    1    2    0    0 -0.27514199578E+03  0.60423081603E+02 -0.10977890952E+04  0.11436287060E+04  0.15294330000E+03 0.  0.
<mgrwt>
<rscale>  0 0.58589072E+03</rscale>
<asrwt>0</asrwt>
<pdfrwt beam="1">  1        2 0.25722522E+00 0.71635485E+03</pdfrwt>
<pdfrwt beam="2">  1       -2 0.39330035E-01 0.71635485E+03</pdfrwt>
<totfact> 0.63810447E+01</totfact>
</mgrwt>
</event>
<event>
 4    1  0.8468429E-007  0.6602489E+03  0.7818608E-02  0.1023903E+00
          2   -1    0    0  501    0  0.00000000000E+00  0.00000000000E+00  0.23003667173E+04  0.23003667173E+04  0.25500000000E-02 0. -1.
         -2   -1    0    0    0  501 -0.00000000000E+00 -0.00000000000E+00 -0.15956739003E+03  0.15956739005E+03  0.25500000000E-02 0.  1.
    8880023    1    1    2    0    0  0.25270238554E+02 -0.38468874783E+02  0.21943100831E+04  0.22914897745E+04  0.65864270000E+03 0. -1.
    8880022    1    1    2    0    0 -0.25270238554E+02  0.38468874783E+02 -0.53510755843E+02  0.16844433291E+03  0.15294330000E+03 0.  0.
<mgrwt>
<rscale>  0 0.46304136E+03</rscale>
<asrwt>0</asrwt>
<pdfrwt beam="1">  1        2 0.35390258E+00 0.66024893E+03</pdfrwt>
<pdfrwt beam="2">  1       -2 0.24548829E-01 0.66024893E+03</pdfrwt>
<totfact> 0.70247672E+01</totfact>
</mgrwt>
</event>
<event>
 4    1  0.8468429E-007  0.6672125E+03  0.7818608E-02  0.1017745E+00
          2   -1    0    0  501    0  0.00000000000E+00  0.00000000000E+00  0.17825057902E+04  0.17825057902E+04  0.25500000000E-02 0. -1.
         -2   -1    0    0    0  501 -0.00000000000E+00 -0.00000000000E+00 -0.12731839127E+03  0.12731839129E+03  0.25500000000E-02 0.  1.
    8880023    1    1    2    0    0 -0.91385858533E+02  0.54871791368E+02  0.15679325049E+04  0.17039908553E+04  0.65864270000E+03 0. -1.
    8880022    1    1    2    0    0  0.91385858533E+02 -0.54871791368E+02  0.87254893969E+02  0.20583332617E+03  0.15294330000E+03 0.  0.
<mgrwt>
<rscale>  0 0.48509146E+03</rscale>
<asrwt>0</asrwt>
<pdfrwt beam="1">  1        2 0.27423168E+00 0.66721248E+03</pdfrwt>
<pdfrwt beam="2">  1       -2 0.19587443E-01 0.66721248E+03</pdfrwt>
<totfact> 0.20056812E+02</totfact>
</mgrwt>
</event>
<event>
 4    1  0.8468429E-007  0.7127687E+03  0.7818608E-02  0.9947860E-01
         -2   -1    0    0    0  501 -0.00000000000E+00  0.00000000000E+00  0.36009593288E+03  0.36009593288E+03  0.25500000000E-02 0.  1.
          2   -1    0    0  501    0  0.00000000000E+00 -0.00000000000E+00 -0.15611658380E+04  0.15611658380E+04  0.25500000000E-02 0. -1.
    8880023    1    1    2    0    0  0.13767850459E+03 -0.23510334817E+03 -0.13857537528E+04  0.15583172413E+04  0.65864270000E+03 0.  0.
    8880022    1    1    2    0    0 -0.13767850459E+03  0.23510334817E+03  0.18468384766E+03  0.36294452957E+03  0.15294330000E+03 0.  1.
<mgrwt>
<rscale>  0 0.57996814E+03</rscale>
<asrwt>0</asrwt>
<pdfrwt beam="1">  1        2 0.24017936E+00 0.71276866E+03</pdfrwt>
<pdfrwt beam="2">  1       -2 0.55399375E-01 0.71276866E+03</pdfrwt>
<totfact> 0.36919093E+01</totfact>
</mgrwt>
</event>
<event>
 4    1  0.8468429E-007  0.6808133E+03  0.7818608E-02  0.1008867E+00
         -2   -1    0    0    0  501 -0.00000000000E+00  0.00000000000E+00  0.16840452431E+03  0.16840452433E+03  0.25500000000E-02 0.  1.
          2   -1    0    0  501    0  0.00000000000E+00 -0.00000000000E+00 -0.28660795966E+04  0.28660795966E+04  0.25500000000E-02 0. -1.
    8880023    1    1    2    0    0 -0.16699210198E+03 -0.42545716612E+02 -0.27191426811E+04  0.28030775278E+04  0.65864270000E+03 0. -1.
    8880022    1    1    2    0    0  0.16699210198E+03  0.42545716612E+02  0.21467608807E+02  0.23140659318E+03  0.15294330000E+03 0.  0.
<mgrwt>
<rscale>  0 0.51927296E+03</rscale>
<asrwt>0</asrwt>
<pdfrwt beam="1">  1        2 0.44093529E+00 0.68081327E+03</pdfrwt>
<pdfrwt beam="2">  1       -2 0.25908391E-01 0.68081327E+03</pdfrwt>
<totfact> 0.30158033E+01</totfact>
</mgrwt>
</event>
<event>
 4    1  0.8468429E-007  0.8831461E+03  0.7818608E-02  0.9553648E-01
         -2   -1    0    0    0  501 -0.00000000000E+00  0.00000000000E+00  0.88869750848E+03  0.88869750849E+03  0.25500000000E-02 0.  1.
          2   -1    0    0  501    0  0.00000000000E+00 -0.00000000000E+00 -0.97026611380E+03  0.97026611380E+03  0.25500000000E-02 0. -1.
    8880023    1    1    2    0    0 -0.52421420749E+02  0.58599393104E+03  0.50237973135E+03  0.10160376436E+04  0.65864270000E+03 0.  0.
    8880022    1    1    2    0    0  0.52421420749E+02 -0.58599393104E+03 -0.58394833667E+03  0.84292597865E+03  0.15294330000E+03 0.  0.
<mgrwt>
<rscale>  0 0.80441550E+03</rscale>
<asrwt>0</asrwt>
<pdfrwt beam="1">  1        2 0.14927171E+00 0.88314614E+03</pdfrwt>
<pdfrwt beam="2">  1       -2 0.13672269E+00 0.88314614E+03</pdfrwt>
<totfact> 0.10082691E+01</totfact>
</mgrwt>
</event>
<event>
 4    1  0.8468429E-007  0.7847410E+03  0.7818608E-02  0.9744816E-01
          2   -1    0    0  501    0  0.00000000000E+00  0.00000000000E+00  0.77385891037E+03  0.77385891037E+03  0.25500000000E-02 0. -1.
         -2   -1    0    0    0  501 -0.00000000000E+00 -0.00000000000E+00 -0.10069312360E+04  0.10069312360E+04  0.25500000000E-02 0.  1.
    8880023    1    1    2    0    0 -0.12762266481E+03  0.40708802214E+03  0.49164428892E+03  0.92603051539E+03  0.65864270000E+03 0. -1.
    8880022    1    1    2    0    0  0.12762266481E+03 -0.40708802214E+03 -0.72471661454E+03  0.85475963097E+03  0.15294330000E+03 0.  0.
<mgrwt>
<rscale>  0 0.68410028E+03</rscale>
<asrwt>0</asrwt>
<pdfrwt beam="1">  1        2 0.11905522E+00 0.78474098E+03</pdfrwt>
<pdfrwt beam="2">  1       -2 0.15491250E+00 0.78474098E+03</pdfrwt>
<totfact> 0.10019607E+01</totfact>
</mgrwt>
</event>
<event>
 4    1  0.8468429E-007  0.6828698E+03  0.7818608E-02  0.1007745E+00
         -2   -1    0    0    0  501 -0.00000000000E+00  0.00000000000E+00  0.28564779988E+03  0.28564779989E+03  0.25500000000E-02 0.  1.
          2   -1    0    0  501    0  0.00000000000E+00 -0.00000000000E+00 -0.82798772935E+03  0.82798772935E+03  0.25500000000E-02 0. -1.
    8880023    1    1    2    0    0 -0.35473238910E+01 -0.18024541994E+03 -0.55041837194E+03  0.87708128776E+03  0.65864270000E+03 0.  0.
    8880022    1    1    2    0    0  0.35473238910E+01  0.18024541994E+03  0.80784424719E+01  0.23655424148E+03  0.15294330000E+03 0.  0.
<mgrwt>
<rscale>  0 0.52380879E+03</rscale>
<asrwt>0</asrwt>
<pdfrwt beam="1">  1        2 0.12738273E+00 0.68286983E+03</pdfrwt>
<pdfrwt beam="2">  1       -2 0.43945816E-01 0.68286983E+03</pdfrwt>
<totfact> 0.16387622E+02</totfact>
</mgrwt>
</event>
<event>
 4    1  0.8468429E-007  0.6961273E+03  0.7818608E-02  0.1001366E+00
         -2   -1    0    0    0  501 -0.00000000000E+00  0.00000000000E+00  0.92338353462E+02  0.92338353498E+02  0.25500000000E-02 0.  1.
          2   -1    0    0  501    0  0.00000000000E+00 -0.00000000000E+00 -0.27932564535E+04  0.27932564535E+04  0.25500000000E-02 0. -1.
    8880023    1    1    2    0    0  0.22408459851E+03  0.23856284655E+02 -0.22829461760E+04  0.23867208631E+04  0.65864270000E+03 0. -1.
    8880022    1    1    2    0    0 -0.22408459851E+03 -0.23856284655E+02 -0.41797192412E+03  0.49887394398E+03  0.15294330000E+03 0.  1.
<mgrwt>
<rscale>  0 0.55055216E+03</rscale>
<asrwt>0</asrwt>
<pdfrwt beam="1">  1        2 0.42973170E+00 0.69612731E+03</pdfrwt>
<pdfrwt beam="2">  1       -2 0.14205903E-01 0.69612731E+03</pdfrwt>
<totfact> 0.94572672E+01</totfact>
</mgrwt>
</event>
<event>
 4    1  0.8468429E-007  0.6824263E+03  0.7818608E-02  0.1007983E+00
         -2   -1    0    0    0  501 -0.00000000000E+00  0.00000000000E+00  0.29653164763E+03  0.29653164764E+03  0.25500000000E-02 0.  1.
          2   -1    0    0  501    0  0.00000000000E+00 -0.00000000000E+00 -0.19883783387E+04  0.19883783387E+04  0.25500000000E-02 0. -1.
    8880023    1    1    2    0    0  0.17803504600E+03  0.14106619313E+02 -0.18695328484E+04  0.19901906320E+04  0.65864270000E+03 0. -1.
    8880022    1    1    2    0    0 -0.17803504600E+03 -0.14106619313E+02  0.17768615729E+03  0.29471935434E+03  0.15294330000E+03 0.  0.
<mgrwt>
<rscale>  0 0.52284123E+03</rscale>
<asrwt>0</asrwt>
<pdfrwt beam="1">  1        2 0.30590435E+00 0.68242632E+03</pdfrwt>
<pdfrwt beam="2">  1       -2 0.45620255E-01 0.68242632E+03</pdfrwt>
<totfact> 0.32181299E+01</totfact>
</mgrwt>
</event>
<event>
 4    1  0.8468429E-007  0.7817347E+03  0.7818608E-02  0.9751778E-01
         -2   -1    0    0    0  501 -0.00000000000E+00  0.00000000000E+00  0.26299870932E+03  0.26299870933E+03  0.25500000000E-02 0.  1.
          2   -1    0    0  501    0  0.00000000000E+00 -0.00000000000E+00 -0.22537592509E+04  0.22537592509E+04  0.25500000000E-02 0. -1.
    8880023    1    1    2    0    0 -0.42086048721E+03  0.13242434206E+02 -0.19070010613E+04  0.20610099868E+04  0.65864270000E+03 0.  0.
    8880022    1    1    2    0    0  0.42086048721E+03 -0.13242434206E+02 -0.83759480354E+02  0.45574797347E+03  0.15294330000E+03 0.  0.
<mgrwt>
<rscale>  0 0.68015893E+03</rscale>
<asrwt>0</asrwt>
<pdfrwt beam="1">  1        2 0.34673218E+00 0.78173469E+03</pdfrwt>
<pdfrwt beam="2">  1       -2 0.40461342E-01 0.78173469E+03</pdfrwt>
<totfact> 0.28782369E+01</totfact>
</mgrwt>
</event>
<event>
 4    1  0.8468429E-007  0.6638361E+03  0.7818608E-02  0.1020531E+00
          2   -1    0    0  501    0  0.00000000000E+00  0.00000000000E+00  0.12019346720E+04  0.12019346720E+04  0.25500000000E-02 0. -1.
         -2   -1    0    0    0  501 -0.00000000000E+00 -0.00000000000E+00 -0.21785394841E+03  0.21785394842E+03  0.25500000000E-02 0.  1.
    8880023    1    1    2    0    0  0.58924119784E+02  0.58275858089E+02  0.10428209932E+04  0.12361852441E+04  0.65864270000E+03 0. -1.
    8880022    1    1    2    0    0 -0.58924119784E+02 -0.58275858089E+02 -0.58740269592E+02  0.18360337637E+03  0.15294330000E+03 0.  0.
<mgrwt>
<rscale>  0 0.47495653E+03</rscale>
<asrwt>0</asrwt>
<pdfrwt beam="1">  1        2 0.18491303E+00 0.66383607E+03</pdfrwt>
<pdfrwt beam="2">  1       -2 0.33515992E-01 0.66383607E+03</pdfrwt>
<totfact> 0.16019737E+02</totfact>
</mgrwt>
</event>
<event>
 4    1  0.8468429E-007  0.7346516E+03  0.7818608E-02  0.9875810E-01
         -2   -1    0    0    0  501 -0.00000000000E+00  0.00000000000E+00  0.24380735678E+03  0.24380735679E+03  0.25500000000E-02 0.  1.
          2   -1    0    0  501    0  0.00000000000E+00 -0.00000000000E+00 -0.18878454067E+04  0.18878454067E+04  0.25500000000E-02 0. -1.
    8880023    1    1    2    0    0  0.10865767171E+03 -0.30675109006E+03 -0.16109513652E+04  0.17705584509E+04  0.65864270000E+03 0. -1.
    8880022    1    1    2    0    0 -0.10865767171E+03  0.30675109006E+03 -0.33086684774E+02  0.36109431261E+03  0.15294330000E+03 0.  0.
<mgrwt>
<rscale>  0 0.61448107E+03</rscale>
<asrwt>0</asrwt>
<pdfrwt beam="1">  1        2 0.29043775E+00 0.73465157E+03</pdfrwt>
<pdfrwt beam="2">  1       -2 0.37508825E-01 0.73465157E+03</pdfrwt>
<totfact> 0.53222839E+01</totfact>
</mgrwt>
</event>
<event>
 4    1  0.8468429E-007  0.6968911E+03  0.7818608E-02  0.1001035E+00
          2   -1    0    0  501    0  0.00000000000E+00  0.00000000000E+00  0.68951491811E+03  0.68951491811E+03  0.25500000000E-02 0. -1.
         -2   -1    0    0    0  501 -0.00000000000E+00 -0.00000000000E+00 -0.45734806846E+03  0.45734806847E+03  0.25500000000E-02 0.  1.
    8880023    1    1    2    0    0  0.30608790476E+02  0.22563255494E+03  0.42069184394E+03  0.81402627828E+03  0.65864270000E+03 0. -1.
    8880022    1    1    2    0    0 -0.30608790476E+02 -0.22563255494E+03 -0.18852499429E+03  0.33283670830E+03  0.15294330000E+03 0.  0.
<mgrwt>
<rscale>  0 0.55198689E+03</rscale>
<asrwt>0</asrwt>
<pdfrwt beam="1">  1        2 0.10607922E+00 0.69689106E+03</pdfrwt>
<pdfrwt beam="2">  1       -2 0.70361241E-01 0.69689106E+03</pdfrwt>
<totfact> 0.77992633E+01</totfact>
</mgrwt>
</event>
<event>
 4    1  0.8468429E-007  0.7103556E+03  0.7818608E-02  0.9956683E-01
         -2   -1    0    0    0  501 -0.00000000000E+00  0.00000000000E+00  0.24464397129E+03  0.24464397131E+03  0.25500000000E-02 0.  1.
          2   -1    0    0  501    0  0.00000000000E+00 -0.00000000000E+00 -0.34659736270E+04  0.34659736270E+04  0.25500000000E-02 0. -1.
    8880023    1    1    2    0    0 -0.25456633227E+03  0.77400489980E+02 -0.33145962899E+04  0.33898604137E+04  0.65864270000E+03 0. -1.
    8880022    1    1    2    0    0  0.25456633227E+03 -0.77400489980E+02  0.93266634197E+02  0.32075718456E+03  0.15294330000E+03 0.  0.
<mgrwt>
<rscale>  0 0.57591108E+03</rscale>
<asrwt>0</asrwt>
<pdfrwt beam="1">  1        2 0.53322668E+00 0.71035559E+03</pdfrwt>
<pdfrwt beam="2">  1       -2 0.37637536E-01 0.71035559E+03</pdfrwt>
<totfact> 0.62341864E+00</totfact>
</mgrwt>
</event>
<event>
 4    1  0.9743418E-007  0.7077535E+03  0.7818608E-02  0.9966440E-01
         -2   -1    0    0    0  501 -0.00000000000E+00  0.00000000000E+00  0.56063151924E+03  0.56063151925E+03  0.25500000000E-02 0.  1.
          2   -1    0    0  501    0  0.00000000000E+00 -0.00000000000E+00 -0.15513779264E+04  0.15513779264E+04  0.25500000000E-02 0. -1.
    8880023    1    1    2    0    0 -0.25898340052E+03  0.56954348359E+01 -0.14207196773E+04  0.15872490187E+04  0.65864270000E+03 0. -1.
    8880022    1    1    2    0    0  0.25898340052E+03 -0.56954348359E+01  0.42997327008E+03  0.52476042698E+03  0.15294330000E+03 0.  0.
<mgrwt>
<rscale>  0 0.57146613E+03</rscale>
<asrwt>0</asrwt>
<pdfrwt beam="1">  1        2 0.23867353E+00 0.70775352E+03</pdfrwt>
<pdfrwt beam="2">  1       -2 0.86251003E-01 0.70775352E+03</pdfrwt>
<totfact> 0.14269601E+01</totfact>
</mgrwt>
</event>
<event>
 4    1  0.8468429E-007  0.9477239E+03  0.7818608E-02  0.9453396E-01
         -2   -1    0    0    0  501 -0.00000000000E+00  0.00000000000E+00  0.55103322669E+03  0.55103322669E+03  0.25500000000E-02 0.  1.
          2   -1    0    0  501    0  0.00000000000E+00 -0.00000000000E+00 -0.28041297870E+04  0.28041297870E+04  0.25500000000E-02 0. -1.
    8880023    1    1    2    0    0  0.67578000692E+03  0.87702724482E+02 -0.24521754696E+04  0.26289437281E+04  0.65864270000E+03 0. -1.
    8880022    1    1    2    0    0 -0.67578000692E+03 -0.87702724482E+02  0.19907890927E+03  0.72621928559E+03  0.15294330000E+03 0.  0.
<mgrwt>
<rscale>  0 0.87808665E+03</rscale>
<asrwt>0</asrwt>
<pdfrwt beam="1">  1        2 0.43140458E+00 0.94772390E+03</pdfrwt>
<pdfrwt beam="2">  1       -2 0.84774344E-01 0.94772390E+03</pdfrwt>
<totfact> 0.28546265E+00</totfact>
</mgrwt>
</event>
<event>
 4    1  0.8468429E-007  0.1015438E+04  0.7818608E-02  0.9361633E-01
          2   -1    0    0  501    0  0.00000000000E+00  0.00000000000E+00  0.36087677333E+04  0.36087677334E+04  0.25500000000E-02 0. -1.
         -2   -1    0    0    0  501 -0.00000000000E+00 -0.00000000000E+00 -0.30700352397E+03  0.30700352398E+03  0.25500000000E-02 0.  1.
    8880023    1    1    2    0    0 -0.69322604892E+03  0.34167499200E+03  0.28080570865E+04  0.29860172408E+04  0.65864270000E+03 0.  0.
    8880022    1    1    2    0    0  0.69322604892E+03 -0.34167499200E+03  0.49370712287E+03  0.92975401652E+03  0.15294330000E+03 0.  0.
<mgrwt>
<rscale>  0 0.95301539E+03</rscale>
<asrwt>0</asrwt>
<pdfrwt beam="1">  1        2 0.55519504E+00 0.10154380E+04</pdfrwt>
<pdfrwt beam="2">  1       -2 0.47231311E-01 0.10154380E+04</pdfrwt>
<totfact> 0.30010960E+00</totfact>
</mgrwt>
</event>
<event>
 4    1  0.8468429E-007  0.7654762E+03  0.7818608E-02  0.9791131E-01
          2   -1    0    0  501    0  0.00000000000E+00  0.00000000000E+00  0.13817839566E+04  0.13817839566E+04  0.25500000000E-02 0. -1.
         -2   -1    0    0    0  501 -0.00000000000E+00 -0.00000000000E+00 -0.83269974694E+03  0.83269974694E+03  0.25500000000E-02 0.  1.
    8880023    1    1    2    0    0  0.12204593758E+03  0.37047044124E+03  0.12100935840E+04  0.14318799694E+04  0.65864270000E+03 0. -1.
    8880022    1    1    2    0    0 -0.12204593758E+03 -0.37047044124E+03 -0.66100937429E+03  0.78260373410E+03  0.15294330000E+03 0.  0.
<mgrwt>
<rscale>  0 0.65840677E+03</rscale>
<asrwt>0</asrwt>
<pdfrwt beam="1">  1        2 0.21258215E+00 0.76547617E+03</pdfrwt>
<pdfrwt beam="2">  1       -2 0.12810765E+00 0.76547617E+03</pdfrwt>
<totfact> 0.68212370E+00</totfact>
</mgrwt>
</event>
<event>
 4    1  0.8468429E-007  0.8057914E+03  0.7818608E-02  0.9698411E-01
         -2   -1    0    0    0  501 -0.00000000000E+00  0.00000000000E+00  0.30625615162E+03  0.30625615163E+03  0.25500000000E-02 0.  1.
          2   -1    0    0  501    0  0.00000000000E+00 -0.00000000000E+00 -0.28307696204E+04  0.28307696204E+04  0.25500000000E-02 0. -1.
    8880023    1    1    2    0    0 -0.82849906820E+02 -0.45675531161E+03 -0.25227013403E+04  0.26482676943E+04  0.65864270000E+03 0. -1.
    8880022    1    1    2    0    0  0.82849906820E+02  0.45675531161E+03 -0.18121284479E+01  0.48875807775E+03  0.15294330000E+03 0.  0.
<mgrwt>
<rscale>  0 0.71111477E+03</rscale>
<asrwt>0</asrwt>
<pdfrwt beam="1">  1        2 0.43550300E+00 0.80579137E+03</pdfrwt>
<pdfrwt beam="2">  1       -2 0.47116333E-01 0.80579137E+03</pdfrwt>
<totfact> 0.99135233E+00</totfact>
</mgrwt>
</event>
<event>
 4    1  0.8468429E-007  0.1777877E+04  0.7818608E-02  0.8734874E-01
         -2   -1    0    0    0  501 -0.00000000000E+00  0.00000000000E+00  0.17646159077E+04  0.17646159077E+04  0.25500000000E-02 0.  1.
          2   -1    0    0  501    0  0.00000000000E+00 -0.00000000000E+00 -0.25137681726E+04  0.25137681726E+04  0.25500000000E-02 0. -1.
    8880023    1    1    2    0    0 -0.12056220456E+04  0.11285001525E+04 -0.16199557679E+04  0.24052243154E+04  0.65864270000E+03 0.  0.
    8880022    1    1    2    0    0  0.12056220456E+04 -0.11285001525E+04  0.87080350297E+03  0.18731597649E+04  0.15294330000E+03 0.  0.
<mgrwt>
<rscale>  0 0.17472352E+04</rscale>
<asrwt>0</asrwt>
<pdfrwt beam="1">  1        2 0.38673357E+00 0.17778772E+04</pdfrwt>
<pdfrwt beam="2">  1       -2 0.27147937E+00 0.17778772E+04</pdfrwt>
<totfact> 0.14732549E-01</totfact>
</mgrwt>
</event>
<event>
 4    1  0.8468429E-007  0.8722506E+03  0.7818608E-02  0.9572133E-01
         -2   -1    0    0    0  501 -0.00000000000E+00  0.00000000000E+00  0.45928225551E+03  0.45928225552E+03  0.25500000000E-02 0.  1.
          2   -1    0    0  501    0  0.00000000000E+00 -0.00000000000E+00 -0.15835051935E+04  0.15835051935E+04  0.25500000000E-02 0. -1.
    8880023    1    1    2    0    0 -0.27161019399E+03 -0.50322836405E+03 -0.11581437303E+04  0.14498682665E+04  0.65864270000E+03 0.  0.
    8880022    1    1    2    0    0  0.27161019399E+03  0.50322836405E+03  0.33920792308E+02  0.59291918254E+03  0.15294330000E+03 0.  0.
<mgrwt>
<rscale>  0 0.79168398E+03</rscale>
<asrwt>0</asrwt>
<pdfrwt beam="1">  1        2 0.24361618E+00 0.87225059E+03</pdfrwt>
<pdfrwt beam="2">  1       -2 0.70658810E-01 0.87225059E+03</pdfrwt>
<totfact> 0.20977453E+01</totfact>
</mgrwt>
</event>
<event>
 4    1  0.8468429E-007  0.6654841E+03  0.7818608E-02  0.1019131E+00
         -2   -1    0    0    0  501 -0.00000000000E+00  0.00000000000E+00  0.93815562115E+02  0.93815562149E+02  0.25500000000E-02 0.  1.
          2   -1    0    0  501    0  0.00000000000E+00 -0.00000000000E+00 -0.39165741474E+04  0.39165741474E+04  0.25500000000E-02 0. -1.
    8880023    1    1    2    0    0  0.92083709469E+02  0.24073347638E+02 -0.37618062865E+04  0.38202167058E+04  0.65864270000E+03 0. -1.
    8880022    1    1    2    0    0 -0.92083709469E+02 -0.24073347638E+02 -0.60952298750E+02  0.19017300375E+03  0.15294330000E+03 0.  0.
<mgrwt>
<rscale>  0 0.48001643E+03</rscale>
<asrwt>0</asrwt>
<pdfrwt beam="1">  1        2 0.60254974E+00 0.66548414E+03</pdfrwt>
<pdfrwt beam="2">  1       -2 0.14433166E-01 0.66548414E+03</pdfrwt>
<totfact> 0.16637028E+01</totfact>
</mgrwt>
</event>
<event>
 4    1  0.8468429E-007  0.7015676E+03  0.7818608E-02  0.9990759E-01
         -2   -1    0    0    0  501 -0.00000000000E+00  0.00000000000E+00  0.25358109883E+03  0.25358109885E+03  0.25500000000E-02 0.  1.
          2   -1    0    0  501    0  0.00000000000E+00 -0.00000000000E+00 -0.23823414540E+04  0.23823414540E+04  0.25500000000E-02 0. -1.
    8880023    1    1    2    0    0 -0.17817083966E+03 -0.16322385061E+03 -0.22259477684E+04  0.23338895748E+04  0.65864270000E+03 0.  0.
    8880022    1    1    2    0    0  0.17817083966E+03  0.16322385061E+03  0.97187413236E+02  0.30203297803E+03  0.15294330000E+03 0.  0.
<mgrwt>
<rscale>  0 0.56057283E+03</rscale>
<asrwt>0</asrwt>
<pdfrwt beam="1">  1        2 0.36651405E+00 0.70156759E+03</pdfrwt>
<pdfrwt beam="2">  1       -2 0.39012478E-01 0.70156759E+03</pdfrwt>
<totfact> 0.26509762E+01</totfact>
</mgrwt>
</event>
<event>
 4    1  0.8468429E-007  0.1061374E+04  0.7818608E-02  0.9305332E-01
          2   -1    0    0  501    0  0.00000000000E+00  0.00000000000E+00  0.14585729667E+04  0.14585729667E+04  0.25500000000E-02 0. -1.
         -2   -1    0    0    0  501 -0.00000000000E+00 -0.00000000000E+00 -0.14149352299E+04  0.14149352299E+04  0.25500000000E-02 0.  1.
    8880023    1    1    2    0    0  0.70028919434E+03  0.44977723821E+03  0.10942797121E+04  0.15244549237E+04  0.65864270000E+03 0.  0.
    8880022    1    1    2    0    0 -0.70028919434E+03 -0.44977723821E+03 -0.10506419754E+04  0.13490532729E+04  0.15294330000E+03 0.  0.
<mgrwt>
<rscale>  0 0.10029349E+04</rscale>
<asrwt>0</asrwt>
<pdfrwt beam="1">  1        2 0.22439584E+00 0.10613740E+04</pdfrwt>
<pdfrwt beam="2">  1       -2 0.21768234E+00 0.10613740E+04</pdfrwt>
<totfact> 0.13515100E+00</totfact>
</mgrwt>
</event>
<event>
 4    1  0.8468429E-007  0.7194592E+03  0.7818608E-02  0.9924420E-01
         -2   -1    0    0    0  501 -0.00000000000E+00  0.00000000000E+00  0.86368935165E+02  0.86368935203E+02  0.25500000000E-02 0.  1.
          2   -1    0    0  501    0  0.00000000000E+00 -0.00000000000E+00 -0.33546985978E+04  0.33546985978E+04  0.25500000000E-02 0. -1.
    8880023    1    1    2    0    0 -0.22130951425E+03 -0.18663714365E+03 -0.25865008863E+04  0.26846989339E+04  0.65864270000E+03 0. -1.
    8880022    1    1    2    0    0  0.22130951425E+03  0.18663714365E+03 -0.68182877633E+03  0.75636859912E+03  0.15294330000E+03 0.  1.
<mgrwt>
<rscale>  0 0.59092244E+03</rscale>
<asrwt>0</asrwt>
<pdfrwt beam="1">  1        2 0.51610738E+00 0.71945919E+03</pdfrwt>
<pdfrwt beam="2">  1       -2 0.13287531E-01 0.71945919E+03</pdfrwt>
<totfact> 0.47239077E+01</totfact>
</mgrwt>
</event>
<event>
 4    1  0.8468429E-007  0.9393697E+03  0.7818608E-02  0.9465577E-01
         -2   -1    0    0    0  501 -0.00000000000E+00  0.00000000000E+00  0.68422977744E+03  0.68422977744E+03  0.25500000000E-02 0.  1.
          2   -1    0    0  501    0  0.00000000000E+00 -0.00000000000E+00 -0.10464333522E+04  0.10464333522E+04  0.25500000000E-02 0. -1.
    8880023    1    1    2    0    0  0.13260206827E+03 -0.65652262443E+03 -0.44358898016E+03  0.10388390898E+04  0.65864270000E+03 0.  0.
    8880022    1    1    2    0    0 -0.13260206827E+03  0.65652262443E+03  0.81385405386E+02  0.69182403986E+03  0.15294330000E+03 0.  0.
<mgrwt>
<rscale>  0 0.86869998E+03</rscale>
<asrwt>0</asrwt>
<pdfrwt beam="1">  1        2 0.16098975E+00 0.93936972E+03</pdfrwt>
<pdfrwt beam="2">  1       -2 0.10526612E+00 0.93936972E+03</pdfrwt>
<totfact> 0.17169028E+01</totfact>
</mgrwt>
</event>
<event>
 4    1  0.8468429E-007  0.6963571E+03  0.7818608E-02  0.1001266E+00
         -2   -1    0    0    0  501 -0.00000000000E+00  0.00000000000E+00  0.82444316734E+03  0.82444316734E+03  0.25500000000E-02 0.  1.
          2   -1    0    0  501    0  0.00000000000E+00 -0.00000000000E+00 -0.28579376996E+03  0.28579376997E+03  0.25500000000E-02 0. -1.
    8880023    1    1    2    0    0  0.49846691144E+01  0.22600466045E+03  0.41456268227E+03  0.81041679232E+03  0.65864270000E+03 0.  0.
    8880022    1    1    2    0    0 -0.49846691144E+01 -0.22600466045E+03  0.12408671510E+03  0.29982014500E+03  0.15294330000E+03 0. -1.
<mgrwt>
<rscale>  0 0.55098477E+03</rscale>
<asrwt>0</asrwt>
<pdfrwt beam="1">  1        2 0.43968272E-01 0.69635706E+03</pdfrwt>
<pdfrwt beam="2">  1       -2 0.12683741E+00 0.69635706E+03</pdfrwt>
<totfact> 0.54290806E+01</totfact>
</mgrwt>
</event>
<event>
 4    1  0.8468429E-007  0.6918440E+03  0.7818608E-02  0.1003288E+00
          2   -1    0    0  501    0  0.00000000000E+00  0.00000000000E+00  0.36811101733E+04  0.36811101733E+04  0.25500000000E-02 0. -1.
         -2   -1    0    0    0  501 -0.00000000000E+00 -0.00000000000E+00 -0.53119851145E+03  0.53119851146E+03  0.25500000000E-02 0.  1.
    8880023    1    1    2    0    0  0.18339314462E+03  0.10585325984E+03  0.36140727908E+04  0.36796970394E+04  0.65864270000E+03 0. -1.
    8880022    1    1    2    0    0 -0.18339314462E+03 -0.10585325984E+03 -0.46416112897E+03  0.53261164537E+03  0.15294330000E+03 0.  0.
<mgrwt>
<rscale>  0 0.54231643E+03</rscale>
<asrwt>0</asrwt>
<pdfrwt beam="1">  1        2 0.56632465E+00 0.69184403E+03</pdfrwt>
<pdfrwt beam="2">  1       -2 0.81722847E-01 0.69184403E+03</pdfrwt>
<totfact> 0.88407508E-01</totfact>
</mgrwt>
</event>
<event>
 4    1  0.8468429E-007  0.1023997E+04  0.7818608E-02  0.9350815E-01
         -2   -1    0    0    0  501 -0.00000000000E+00  0.00000000000E+00  0.15179533306E+04  0.15179533306E+04  0.25500000000E-02 0.  1.
          2   -1    0    0  501    0  0.00000000000E+00 -0.00000000000E+00 -0.13575266937E+04  0.13575266937E+04  0.25500000000E-02 0. -1.
    8880023    1    1    2    0    0 -0.55614410050E+03  0.55268683859E+03 -0.10231444756E+04  0.14475475213E+04  0.65864270000E+03 0. -1.
    8880022    1    1    2    0    0  0.55614410050E+03 -0.55268683859E+03  0.11835711124E+04  0.14279325030E+04  0.15294330000E+03 0.  0.
<mgrwt>
<rscale>  0 0.96236388E+03</rscale>
<asrwt>0</asrwt>
<pdfrwt beam="1">  1        2 0.20885026E+00 0.10239967E+04</pdfrwt>
<pdfrwt beam="2">  1       -2 0.23353128E+00 0.10239967E+04</pdfrwt>
<totfact> 0.12343898E+00</totfact>
</mgrwt>
</event>
<event>
 4    1  0.8468429E-007  0.6860422E+03  0.7818608E-02  0.1006093E+00
          2   -1    0    0  501    0  0.00000000000E+00  0.00000000000E+00  0.11547597300E+04  0.11547597300E+04  0.25500000000E-02 0. -1.
         -2   -1    0    0    0  501 -0.00000000000E+00 -0.00000000000E+00 -0.99478444268E+03  0.99478444268E+03  0.25500000000E-02 0.  1.
    8880023    1    1    2    0    0 -0.99074703600E+02  0.16440179968E+03  0.10344586423E+04  0.12412729907E+04  0.65864270000E+03 0. -1.
    8880022    1    1    2    0    0  0.99074703600E+02 -0.16440179968E+03 -0.87448335503E+03  0.90827118190E+03  0.15294330000E+03 0.  0.
<mgrwt>
<rscale>  0 0.53057236E+03</rscale>
<asrwt>0</asrwt>
<pdfrwt beam="1">  1        2 0.17765534E+00 0.68604224E+03</pdfrwt>
<pdfrwt beam="2">  1       -2 0.15304376E+00 0.68604224E+03</pdfrwt>
<totfact> 0.59012388E+00</totfact>
</mgrwt>
</event>
<event>
 4    1  0.8468429E-007  0.6747340E+03  0.7818608E-02  0.1012474E+00
          2   -1    0    0  501    0  0.00000000000E+00  0.00000000000E+00  0.54874853779E+03  0.54874853780E+03  0.25500000000E-02 0. -1.
         -2   -1    0    0    0  501 -0.00000000000E+00 -0.00000000000E+00 -0.86055711135E+03  0.86055711136E+03  0.25500000000E-02 0.  1.
    8880023    1    1    2    0    0  0.24546456939E+02  0.14440644027E+03  0.31722163796E+03  0.74558401431E+03  0.65864270000E+03 0. -1.
    8880022    1    1    2    0    0 -0.24546456939E+02 -0.14440644027E+03 -0.62903021152E+03  0.66372163485E+03  0.15294330000E+03 0.  0.
<mgrwt>
<rscale>  0 0.50502933E+03</rscale>
<asrwt>0</asrwt>
<pdfrwt beam="1">  1        2 0.84422852E-01 0.67473399E+03</pdfrwt>
<pdfrwt beam="2">  1       -2 0.13239340E+00 0.67473399E+03</pdfrwt>
<totfact> 0.23342662E+01</totfact>
</mgrwt>
</event>
<event>
 4    1  0.8468429E-007  0.6652259E+03  0.7818608E-02  0.1019345E+00
          2   -1    0    0  501    0  0.00000000000E+00  0.00000000000E+00  0.30776615062E+04  0.30776615062E+04  0.25500000000E-02 0. -1.
         -2   -1    0    0    0  501 -0.00000000000E+00 -0.00000000000E+00 -0.21145524142E+03  0.21145524143E+03  0.25500000000E-02 0.  1.
    8880023    1    1    2    0    0 -0.82776570417E+02  0.43165713814E+02  0.29952947735E+04  0.30682757741E+04  0.65864270000E+03 0. -1.
    8880022    1    1    2    0    0  0.82776570417E+02 -0.43165713814E+02 -0.12908850877E+03  0.22084097349E+03  0.15294330000E+03 0.  0.
<mgrwt>
<rscale>  0 0.47923842E+03</rscale>
<asrwt>0</asrwt>
<pdfrwt beam="1">  1        2 0.47348639E+00 0.66522586E+03</pdfrwt>
<pdfrwt beam="2">  1       -2 0.32531575E-01 0.66522586E+03</pdfrwt>
<totfact> 0.14790417E+01</totfact>
</mgrwt>
</event>
<event>
 4    1  0.8468429E-007  0.8651762E+03  0.7818608E-02  0.9584421E-01
         -2   -1    0    0    0  501 -0.00000000000E+00  0.00000000000E+00  0.72916059783E+03  0.72916059783E+03  0.25500000000E-02 0.  1.
          2   -1    0    0  501    0  0.00000000000E+00 -0.00000000000E+00 -0.15869705890E+04  0.15869705890E+04  0.25500000000E-02 0. -1.
    8880023    1    1    2    0    0  0.53304789921E+03  0.17487041606E+03 -0.13166210014E+04  0.15754430465E+04  0.65864270000E+03 0. -1.
    8880022    1    1    2    0    0 -0.53304789921E+03 -0.17487041606E+03  0.45881101014E+03  0.74068814039E+03  0.15294330000E+03 0.  0.
<mgrwt>
<rscale>  0 0.78335914E+03</rscale>
<asrwt>0</asrwt>
<pdfrwt beam="1">  1        2 0.24414932E+00 0.86517624E+03</pdfrwt>
<pdfrwt beam="2">  1       -2 0.11217855E+00 0.86517624E+03</pdfrwt>
<totfact> 0.71816323E+00</totfact>
</mgrwt>
</event>
<event>
 4    1  0.8468429E-007  0.8218075E+03  0.7818608E-02  0.9665488E-01
         -2   -1    0    0    0  501 -0.00000000000E+00  0.00000000000E+00  0.83539100017E+03  0.83539100018E+03  0.25500000000E-02 0.  1.
          2   -1    0    0  501    0  0.00000000000E+00 -0.00000000000E+00 -0.10489167385E+04  0.10489167385E+04  0.25500000000E-02 0. -1.
    8880023    1    1    2    0    0 -0.41248432723E+03 -0.26723393927E+03 -0.77007185162E+03  0.11262229626E+04  0.65864270000E+03 0.  0.
    8880022    1    1    2    0    0  0.41248432723E+03  0.26723393927E+03  0.55654611330E+03  0.75808477610E+03  0.15294330000E+03 0.  0.
<mgrwt>
<rscale>  0 0.73109335E+03</rscale>
<asrwt>0</asrwt>
<pdfrwt beam="1">  1        2 0.16137181E+00 0.82180746E+03</pdfrwt>
<pdfrwt beam="2">  1       -2 0.12852169E+00 0.82180746E+03</pdfrwt>
<totfact> 0.10582012E+01</totfact>
</mgrwt>
</event>
<event>
 4    1  0.8468429E-007  0.6794839E+03  0.7818608E-02  0.1009617E+00
          2   -1    0    0  501    0  0.00000000000E+00  0.00000000000E+00  0.66256348185E+03  0.66256348186E+03  0.25500000000E-02 0. -1.
         -2   -1    0    0    0  501 -0.00000000000E+00 -0.00000000000E+00 -0.80801150417E+03  0.80801150418E+03  0.25500000000E-02 0.  1.
    8880023    1    1    2    0    0  0.37618756250E+02 -0.16270526756E+03  0.46241340766E+03  0.82190299960E+03  0.65864270000E+03 0. -1.
    8880022    1    1    2    0    0 -0.37618756250E+02  0.16270526756E+03 -0.60786142998E+03  0.64867198643E+03  0.15294330000E+03 0.  0.
<mgrwt>
<rscale>  0 0.51627097E+03</rscale>
<asrwt>0</asrwt>
<pdfrwt beam="1">  1        2 0.10193284E+00 0.67948391E+03</pdfrwt>
<pdfrwt beam="2">  1       -2 0.12430946E+00 0.67948391E+03</pdfrwt>
<totfact> 0.21782236E+01</totfact>
</mgrwt>
</event>
<event>
 4    1  0.8468429E-007  0.7543193E+03  0.7818608E-02  0.9820043E-01
          2   -1    0    0  501    0  0.00000000000E+00  0.00000000000E+00  0.41467468091E+04  0.41467468091E+04  0.25500000000E-02 0. -1.
         -2   -1    0    0    0  501 -0.00000000000E+00 -0.00000000000E+00 -0.11388720489E+03  0.11388720491E+03  0.25500000000E-02 0.  1.
    8880023    1    1    2    0    0  0.28743522643E+03  0.22927785531E+03  0.35755075829E+04  0.36542101781E+04  0.65864270000E+03 0.  1.
    8880022    1    1    2    0    0 -0.28743522643E+03 -0.22927785531E+03  0.45735202135E+03  0.60642383592E+03  0.15294330000E+03 0.  0.
<mgrwt>
<rscale>  0 0.64297947E+03</rscale>
<asrwt>0</asrwt>
<pdfrwt beam="1">  1        2 0.63796116E+00 0.75431926E+03</pdfrwt>
<pdfrwt beam="2">  1       -2 0.17521105E-01 0.75431926E+03</pdfrwt>
<totfact> 0.76983620E+00</totfact>
</mgrwt>
</event>
<event>
 4    1  0.8468429E-007  0.1104357E+04  0.7818608E-02  0.9256221E-01
         -2   -1    0    0    0  501 -0.00000000000E+00  0.00000000000E+00  0.13038073991E+04  0.13038073991E+04  0.25500000000E-02 0.  1.
          2   -1    0    0  501    0  0.00000000000E+00 -0.00000000000E+00 -0.10203166995E+04  0.10203166995E+04  0.25500000000E-02 0. -1.
    8880023    1    1    2    0    0 -0.70639850669E+03  0.53553280988E+03 -0.42065060727E+03  0.11817577503E+04  0.65864270000E+03 0.  0.
    8880022    1    1    2    0    0  0.70639850669E+03 -0.53553280988E+03  0.70414130682E+03  0.11423663483E+04  0.15294330000E+03 0.  0.
<mgrwt>
<rscale>  0 0.10491514E+04</rscale>
<asrwt>0</asrwt>
<pdfrwt beam="1">  1        2 0.15697180E+00 0.11043570E+04</pdfrwt>
<pdfrwt beam="2">  1       -2 0.20058575E+00 0.11043570E+04</pdfrwt>
<totfact> 0.31624385E+00</totfact>
</mgrwt>
</event>
<event>
 4    1  0.8468429E-007  0.7019823E+03  0.7818608E-02  0.9989075E-01
          2   -1    0    0  501    0  0.00000000000E+00  0.00000000000E+00  0.36328793398E+03  0.36328793399E+03  0.25500000000E-02 0. -1.
         -2   -1    0    0    0  501 -0.00000000000E+00 -0.00000000000E+00 -0.77550489031E+03  0.77550489031E+03  0.25500000000E-02 0.  1.
    8880023    1    1    2    0    0  0.10979179178E+03 -0.21659786816E+03 -0.90688591682E+02  0.70781600784E+03  0.65864270000E+03 0. -1.
    8880022    1    1    2    0    0 -0.10979179178E+03  0.21659786816E+03 -0.32152836465E+03  0.43097681645E+03  0.15294330000E+03 0.  0.
<mgrwt>
<rscale>  0 0.56131867E+03</rscale>
<asrwt>0</asrwt>
<pdfrwt beam="1">  1        2 0.55890452E-01 0.70198225E+03</pdfrwt>
<pdfrwt beam="2">  1       -2 0.11930844E+00 0.70198225E+03</pdfrwt>
<totfact> 0.48413674E+01</totfact>
</mgrwt>
</event>
<event>
 4    1  0.8468429E-007  0.7398191E+03  0.7818608E-02  0.9860474E-01
         -2   -1    0    0    0  501 -0.00000000000E+00  0.00000000000E+00  0.21859731641E+03  0.21859731643E+03  0.25500000000E-02 0.  1.
          2   -1    0    0  501    0  0.00000000000E+00 -0.00000000000E+00 -0.16569649536E+04  0.16569649536E+04  0.25500000000E-02 0. -1.
    8880023    1    1    2    0    0 -0.12825941658E+02  0.33668620360E+03 -0.57746020422E+03  0.93850551314E+03  0.65864270000E+03 0.  1.
    8880022    1    1    2    0    0  0.12825941658E+02 -0.33668620360E+03 -0.86090743296E+03  0.93705675688E+03  0.15294330000E+03 0.  0.
<mgrwt>
<rscale>  0 0.62215707E+03</rscale>
<asrwt>0</asrwt>
<pdfrwt beam="1">  1        2 0.25491768E+00 0.73981911E+03</pdfrwt>
<pdfrwt beam="2">  1       -2 0.33630357E-01 0.73981911E+03</pdfrwt>
<totfact> 0.87569906E+01</totfact>
</mgrwt>
</event>
<event>
 4    1  0.8468429E-007  0.7297120E+03  0.7818608E-02  0.9890997E-01
         -2   -1    0    0    0  501 -0.00000000000E+00  0.00000000000E+00  0.53898044664E+03  0.53898044664E+03  0.25500000000E-02 0.  1.
          2   -1    0    0  501    0  0.00000000000E+00 -0.00000000000E+00 -0.13837463459E+04  0.13837463459E+04  0.25500000000E-02 0. -1.
    8880023    1    1    2    0    0 -0.14976690950E+02 -0.31375955474E+03 -0.12127178573E+04  0.14153318222E+04  0.65864270000E+03 0. -1.
    8880022    1    1    2    0    0  0.14976690950E+02  0.31375955474E+03  0.36795195800E+03  0.50739497029E+03  0.15294330000E+03 0.  0.
<mgrwt>
<rscale>  0 0.60699586E+03</rscale>
<asrwt>0</asrwt>
<pdfrwt beam="1">  1        2 0.21288405E+00 0.72971197E+03</pdfrwt>
<pdfrwt beam="2">  1       -2 0.82920069E-01 0.72971197E+03</pdfrwt>
<totfact> 0.19307880E+01</totfact>
</mgrwt>
</event>
<event>
 4    1  0.8468429E-007  0.8553873E+03  0.7818608E-02  0.9601822E-01
          2   -1    0    0  501    0  0.00000000000E+00  0.00000000000E+00  0.12425815806E+04  0.12425815806E+04  0.25500000000E-02 0. -1.
         -2   -1    0    0    0  501 -0.00000000000E+00 -0.00000000000E+00 -0.84338322351E+03  0.84338322351E+03  0.25500000000E-02 0.  1.
    8880023    1    1    2    0    0  0.54547649765E+03  0.18236310034E+02  0.96193838690E+03  0.12872501074E+04  0.65864270000E+03 0. -1.
    8880022    1    1    2    0    0 -0.54547649765E+03 -0.18236310034E+02 -0.56274002985E+03  0.79871469669E+03  0.15294330000E+03 0.  0.
<mgrwt>
<rscale>  0 0.77175715E+03</rscale>
<asrwt>0</asrwt>
<pdfrwt beam="1">  1        2 0.19116640E+00 0.85538727E+03</pdfrwt>
<pdfrwt beam="2">  1       -2 0.12975127E+00 0.85538727E+03</pdfrwt>
<totfact> 0.78569100E+00</totfact>
</mgrwt>
</event>
<event>
 4    1  0.8468429E-007  0.9611767E+03  0.7818608E-02  0.9434212E-01
         -2   -1    0    0    0  501 -0.00000000000E+00  0.00000000000E+00  0.79060655736E+03  0.79060655736E+03  0.25500000000E-02 0.  1.
          2   -1    0    0  501    0  0.00000000000E+00 -0.00000000000E+00 -0.11295304649E+04  0.11295304649E+04  0.25500000000E-02 0. -1.
    8880023    1    1    2    0    0 -0.66660266953E+03  0.21375549507E+03 -0.62726801887E+03  0.11477481886E+04  0.65864270000E+03 0. -1.
    8880022    1    1    2    0    0  0.66660266953E+03 -0.21375549507E+03  0.28834411138E+03  0.77238883361E+03  0.15294330000E+03 0.  0.
<mgrwt>
<rscale>  0 0.89312837E+03</rscale>
<asrwt>0</asrwt>
<pdfrwt beam="1">  1        2 0.17377392E+00 0.96117675E+03</pdfrwt>
<pdfrwt beam="2">  1       -2 0.12163178E+00 0.96117675E+03</pdfrwt>
<totfact> 0.10685263E+01</totfact>
</mgrwt>
</event>
<event>
 4    1  0.8468429E-007  0.6781454E+03  0.7818608E-02  0.1010393E+00
          2   -1    0    0  501    0  0.00000000000E+00  0.00000000000E+00  0.16529782041E+04  0.16529782041E+04  0.25500000000E-02 0. -1.
         -2   -1    0    0    0  501 -0.00000000000E+00 -0.00000000000E+00 -0.18541280331E+03  0.18541280332E+03  0.25500000000E-02 0.  1.
    8880023    1    1    2    0    0  0.39617257088E+02  0.15652957735E+03  0.14668111031E+04  0.16159876405E+04  0.65864270000E+03 0. -1.
    8880022    1    1    2    0    0 -0.39617257088E+02 -0.15652957735E+03  0.75429764648E+00  0.22240336693E+03  0.15294330000E+03 0.  0.
<mgrwt>
<rscale>  0 0.51318842E+03</rscale>
<asrwt>0</asrwt>
<pdfrwt beam="1">  1        2 0.25430433E+00 0.67814544E+03</pdfrwt>
<pdfrwt beam="2">  1       -2 0.28525048E-01 0.67814544E+03</pdfrwt>
<totfact> 0.12037378E+02</totfact>
</mgrwt>
</event>
<event>
 4    1  0.8468429E-007  0.9541333E+03  0.7818608E-02  0.9444192E-01
         -2   -1    0    0    0  501 -0.00000000000E+00  0.00000000000E+00  0.13011603939E+04  0.13011603939E+04  0.25500000000E-02 0.  1.
          2   -1    0    0  501    0  0.00000000000E+00 -0.00000000000E+00 -0.20387868586E+04  0.20387868586E+04  0.25500000000E-02 0. -1.
    8880023    1    1    2    0    0 -0.53758850783E+03  0.43308055669E+03  0.10492853425E+04  0.14182278056E+04  0.65864270000E+03 0.  1.
    8880022    1    1    2    0    0  0.53758850783E+03 -0.43308055669E+03 -0.17869118073E+04  0.19217194468E+04  0.15294330000E+03 0.  0.
<mgrwt>
<rscale>  0 0.88526402E+03</rscale>
<asrwt>0</asrwt>
<pdfrwt beam="1">  1        2 0.31365952E+00 0.95413331E+03</pdfrwt>
<pdfrwt beam="2">  1       -2 0.20017852E+00 0.95413331E+03</pdfrwt>
<totfact> 0.84863452E-01</totfact>
</mgrwt>
</event>
<event>
 4    1  0.8468429E-007  0.6710413E+03  0.7818608E-02  0.1014927E+00
         -2   -1    0    0    0  501 -0.00000000000E+00  0.00000000000E+00  0.10459025510E+03  0.10459025513E+03  0.25500000000E-02 0.  1.
          2   -1    0    0  501    0  0.00000000000E+00 -0.00000000000E+00 -0.18425136559E+04  0.18425136559E+04  0.25500000000E-02 0. -1.
    8880023    1    1    2    0    0  0.58729269457E+01 -0.12826429061E+03 -0.14368668617E+04  0.15858382024E+04  0.65864270000E+03 0. -1.
    8880022    1    1    2    0    0 -0.58729269457E+01  0.12826429061E+03 -0.30105653902E+03  0.36126570861E+03  0.15294330000E+03 0.  1.
<mgrwt>
<rscale>  0 0.49562526E+03</rscale>
<asrwt>0</asrwt>
<pdfrwt beam="1">  1        2 0.28346362E+00 0.67104130E+03</pdfrwt>
<pdfrwt beam="2">  1       -2 0.16090810E-01 0.67104130E+03</pdfrwt>
<totfact> 0.26090536E+02</totfact>
</mgrwt>
</event>
<event>
 4    1  0.8468429E-007  0.7135789E+03  0.7818608E-02  0.9944944E-01
         -2   -1    0    0    0  501 -0.00000000000E+00  0.00000000000E+00  0.94486121938E+02  0.94486121972E+02  0.25500000000E-02 0.  1.
          2   -1    0    0  501    0  0.00000000000E+00 -0.00000000000E+00 -0.44038859110E+04  0.44038859110E+04  0.25500000000E-02 0. -1.
    8880023    1    1    2    0    0  0.89293962424E+02 -0.25963659168E+03 -0.39785702163E+04  0.40420558808E+04  0.65864270000E+03 0.  0.
    8880022    1    1    2    0    0 -0.89293962424E+02  0.25963659168E+03 -0.33082957272E+03  0.45631615210E+03  0.15294330000E+03 0.  0.
<mgrwt>
<rscale>  0 0.58131701E+03</rscale>
<asrwt>0</asrwt>
<pdfrwt beam="1">  1        2 0.67752075E+00 0.71357885E+03</pdfrwt>
<pdfrwt beam="2">  1       -2 0.14536330E-01 0.71357885E+03</pdfrwt>
<totfact> 0.63784874E+00</totfact>
</mgrwt>
</event>
<event>
 4    1  0.8468429E-007  0.9707123E+03  0.7818608E-02  0.9420920E-01
          2   -1    0    0  501    0  0.00000000000E+00  0.00000000000E+00  0.12458017673E+04  0.12458017673E+04  0.25500000000E-02 0. -1.
         -2   -1    0    0    0  501 -0.00000000000E+00 -0.00000000000E+00 -0.15271355122E+04  0.15271355122E+04  0.25500000000E-02 0.  1.
    8880023    1    1    2    0    0  0.52564694522E+03  0.48183760166E+03  0.93947255356E+03  0.13508852914E+04  0.65864270000E+03 0.  0.
    8880022    1    1    2    0    0 -0.52564694522E+03 -0.48183760166E+03 -0.12208062985E+04  0.14220519881E+04  0.15294330000E+03 0.  0.
<mgrwt>
<rscale>  0 0.90373887E+03</rscale>
<asrwt>0</asrwt>
<pdfrwt beam="1">  1        2 0.19166181E+00 0.97071231E+03</pdfrwt>
<pdfrwt beam="2">  1       -2 0.23494393E+00 0.97071231E+03</pdfrwt>
<totfact> 0.14155046E+00</totfact>
</mgrwt>
</event>
<event>
 4    1  0.8468429E-007  0.8538344E+03  0.7818608E-02  0.9604626E-01
          2   -1    0    0  501    0  0.00000000000E+00  0.00000000000E+00  0.22429838388E+04  0.22429838388E+04  0.25500000000E-02 0. -1.
         -2   -1    0    0    0  501 -0.00000000000E+00 -0.00000000000E+00 -0.61345301502E+03  0.61345301503E+03  0.25500000000E-02 0.  1.
    8880023    1    1    2    0    0 -0.39525672642E+03 -0.37282053591E+03  0.20045056095E+04  0.21787785515E+04  0.65864270000E+03 0. -1.
    8880022    1    1    2    0    0  0.39525672642E+03  0.37282053591E+03 -0.37497478571E+03  0.67765830232E+03  0.15294330000E+03 0.  0.
<mgrwt>
<rscale>  0 0.76990736E+03</rscale>
<asrwt>0</asrwt>
<pdfrwt beam="1">  1        2 0.34507444E+00 0.85383443E+03</pdfrwt>
<pdfrwt beam="2">  1       -2 0.94377387E-01 0.85383443E+03</pdfrwt>
<totfact> 0.47378589E+00</totfact>
</mgrwt>
</event>
<event>
 4    1  0.8468429E-007  0.6704615E+03  0.7818608E-02  0.1015334E+00
          2   -1    0    0  501    0  0.00000000000E+00  0.00000000000E+00  0.37361468988E+04  0.37361468988E+04  0.25500000000E-02 0. -1.
         -2   -1    0    0    0  501 -0.00000000000E+00 -0.00000000000E+00 -0.17150801458E+03  0.17150801460E+03  0.25500000000E-02 0.  1.
    8880023    1    1    2    0    0  0.11458310117E+03  0.50785661666E+02  0.36361031061E+04  0.36973996910E+04  0.65864270000E+03 0. -1.
    8880022    1    1    2    0    0 -0.11458310117E+03 -0.50785661666E+02 -0.71464221919E+02  0.21025522237E+03  0.15294330000E+03 0.  0.
<mgrwt>
<rscale>  0 0.49408614E+03</rscale>
<asrwt>0</asrwt>
<pdfrwt beam="1">  1        2 0.57479181E+00 0.67046154E+03</pdfrwt>
<pdfrwt beam="2">  1       -2 0.26385849E-01 0.67046154E+03</pdfrwt>
<totfact> 0.79086638E+00</totfact>
</mgrwt>
</event>
<event>
 4    1  0.8468429E-007  0.6594742E+03  0.7818608E-02  0.1024702E+00
         -2   -1    0    0    0  501 -0.00000000000E+00  0.00000000000E+00  0.32563848280E+03  0.32563848281E+03  0.25500000000E-02 0.  1.
          2   -1    0    0  501    0  0.00000000000E+00 -0.00000000000E+00 -0.33946500613E+04  0.33946500613E+04  0.25500000000E-02 0. -1.
    8880023    1    1    2    0    0 -0.19268444883E+02  0.26921912663E+02 -0.33415585400E+04  0.34060122937E+04  0.65864270000E+03 0. -1.
    8880022    1    1    2    0    0  0.19268444883E+02 -0.26921912663E+02  0.27254696149E+03  0.31427625042E+03  0.15294330000E+03 0.  0.
<mgrwt>
<rscale>  0 0.46027449E+03</rscale>
<asrwt>0</asrwt>
<pdfrwt beam="1">  1        2 0.52225383E+00 0.65947424E+03</pdfrwt>
<pdfrwt beam="2">  1       -2 0.50098230E-01 0.65947424E+03</pdfrwt>
<totfact> 0.39977118E+00</totfact>
</mgrwt>
</event>
<event>
 4    1  0.8468429E-007  0.9472460E+03  0.7818608E-02  0.9454088E-01
         -2   -1    0    0    0  501 -0.00000000000E+00  0.00000000000E+00  0.12290791078E+04  0.12290791078E+04  0.25500000000E-02 0.  1.
          2   -1    0    0  501    0  0.00000000000E+00 -0.00000000000E+00 -0.93129591562E+03  0.93129591562E+03  0.25500000000E-02 0. -1.
    8880023    1    1    2    0    0 -0.67502981485E+03 -0.88314743116E+02 -0.52384593055E+03  0.10824460772E+04  0.65864270000E+03 0.  0.
    8880022    1    1    2    0    0  0.67502981485E+03  0.88314743116E+02  0.82162912269E+03  0.10779289462E+04  0.15294330000E+03 0.  0.
<mgrwt>
<rscale>  0 0.87755064E+03</rscale>
<asrwt>0</asrwt>
<pdfrwt beam="1">  1        2 0.14327630E+00 0.94724598E+03</pdfrwt>
<pdfrwt beam="2">  1       -2 0.18908909E+00 0.94724598E+03</pdfrwt>
<totfact> 0.43799618E+00</totfact>
</mgrwt>
</event>
<event>
 4    1  0.8468429E-007  0.6623593E+03  0.7818608E-02  0.1021860E+00
         -2   -1    0    0    0  501 -0.00000000000E+00  0.00000000000E+00  0.48043491119E+03  0.48043491120E+03  0.25500000000E-02 0.  1.
          2   -1    0    0  501    0  0.00000000000E+00 -0.00000000000E+00 -0.13252725769E+04  0.13252725769E+04  0.25500000000E-02 0. -1.
    8880023    1    1    2    0    0  0.29686491188E+02  0.63469736157E+02 -0.12235403863E+04  0.13913198692E+04  0.65864270000E+03 0. -1.
    8880022    1    1    2    0    0 -0.29686491188E+02 -0.63469736157E+02  0.37870272056E+03  0.41438761896E+03  0.15294330000E+03 0.  0.
<mgrwt>
<rscale>  0 0.47021463E+03</rscale>
<asrwt>0</asrwt>
<pdfrwt beam="1">  1        2 0.20388809E+00 0.66235934E+03</pdfrwt>
<pdfrwt beam="2">  1       -2 0.73913064E-01 0.66235934E+03</pdfrwt>
<totfact> 0.27180565E+01</totfact>
</mgrwt>
</event>
<event>
 4    1  0.8468429E-007  0.7915067E+03  0.7818608E-02  0.9729470E-01
         -2   -1    0    0    0  501 -0.00000000000E+00  0.00000000000E+00  0.53948187170E+03  0.53948187171E+03  0.25500000000E-02 0.  1.
          2   -1    0    0  501    0  0.00000000000E+00 -0.00000000000E+00 -0.17280760123E+04  0.17280760123E+04  0.25500000000E-02 0. -1.
    8880023    1    1    2    0    0 -0.20056604092E+03  0.39044317162E+03 -0.15083230194E+04  0.17033852013E+04  0.65864270000E+03 0. -1.
    8880022    1    1    2    0    0  0.20056604092E+03 -0.39044317162E+03  0.31972887873E+03  0.56417268274E+03  0.15294330000E+03 0.  0.
<mgrwt>
<rscale>  0 0.69288922E+03</rscale>
<asrwt>0</asrwt>
<pdfrwt beam="1">  1        2 0.26585784E+00 0.79150667E+03</pdfrwt>
<pdfrwt beam="2">  1       -2 0.82997212E-01 0.79150667E+03</pdfrwt>
<totfact> 0.12313628E+01</totfact>
</mgrwt>
</event>
<event>
 4    1  0.8468429E-007  0.6609407E+03  0.7818608E-02  0.1023213E+00
          2   -1    0    0  501    0  0.00000000000E+00  0.00000000000E+00  0.67874901448E+03  0.67874901449E+03  0.25500000000E-02 0. -1.
         -2   -1    0    0    0  501 -0.00000000000E+00 -0.00000000000E+00 -0.32177435142E+03  0.32177435143E+03  0.25500000000E-02 0.  1.
    8880023    1    1    2    0    0 -0.52155210893E+02  0.17669832018E+02  0.46252703129E+03  0.80670555343E+03  0.65864270000E+03 0. -1.
    8880022    1    1    2    0    0  0.52155210893E+02 -0.17669832018E+02 -0.10555236823E+03  0.19381781250E+03  0.15294330000E+03 0.  0.
<mgrwt>
<rscale>  0 0.46544865E+03</rscale>
<asrwt>0</asrwt>
<pdfrwt beam="1">  1        2 0.10442292E+00 0.66094069E+03</pdfrwt>
<pdfrwt beam="2">  1       -2 0.49503747E-01 0.66094069E+03</pdfrwt>
<totfact> 0.16700386E+02</totfact>
</mgrwt>
</event>
<event>
 4    1  0.8468429E-007  0.8923100E+03  0.7818608E-02  0.9538491E-01
          2   -1    0    0  501    0  0.00000000000E+00  0.00000000000E+00  0.27550670575E+04  0.27550670575E+04  0.25500000000E-02 0. -1.
         -2   -1    0    0    0  501 -0.00000000000E+00 -0.00000000000E+00 -0.71266363736E+03  0.71266363736E+03  0.25500000000E-02 0.  1.
    8880023    1    1    2    0    0 -0.78100801103E+02 -0.59691467109E+03  0.25270084417E+04  0.26799232695E+04  0.65864270000E+03 0. -1.
    8880022    1    1    2    0    0  0.78100801103E+02  0.59691467109E+03 -0.48460502149E+03  0.78780742543E+03  0.15294330000E+03 0.  0.
<mgrwt>
<rscale>  0 0.81504554E+03</rscale>
<asrwt>0</asrwt>
<pdfrwt beam="1">  1        2 0.42385647E+00 0.89230996E+03</pdfrwt>
<pdfrwt beam="2">  1       -2 0.10964056E+00 0.89230996E+03</pdfrwt>
<totfact> 0.16804967E+00</totfact>
</mgrwt>
</event>
<event>
 4    1  0.8468429E-007  0.6680507E+03  0.7818608E-02  0.1017101E+00
          2   -1    0    0  501    0  0.00000000000E+00  0.00000000000E+00  0.27510458511E+03  0.27510458512E+03  0.25500000000E-02 0. -1.
         -2   -1    0    0    0  501 -0.00000000000E+00 -0.00000000000E+00 -0.84703867045E+03  0.84703867045E+03  0.25500000000E-02 0.  1.
    8880023    1    1    2    0    0  0.97377364098E+02 -0.54765083330E+02 -0.18794740916E+03  0.69398559082E+03  0.65864270000E+03 0. -1.
    8880022    1    1    2    0    0 -0.97377364098E+02  0.54765083330E+02 -0.38398667618E+03  0.42815766476E+03  0.15294330000E+03 0.  0.
<mgrwt>
<rscale>  0 0.48747615E+03</rscale>
<asrwt>0</asrwt>
<pdfrwt beam="1">  1        2 0.42323783E-01 0.66805073E+03</pdfrwt>
<pdfrwt beam="2">  1       -2 0.13031364E+00 0.66805073E+03</pdfrwt>
<totfact> 0.52999316E+01</totfact>
</mgrwt>
</event>
<event>
 4    1  0.8468429E-007  0.7820596E+03  0.7818608E-02  0.9751021E-01
          2   -1    0    0  501    0  0.00000000000E+00  0.00000000000E+00  0.19053476338E+04  0.19053476338E+04  0.25500000000E-02 0. -1.
         -2   -1    0    0    0  501 -0.00000000000E+00 -0.00000000000E+00 -0.27185381373E+03  0.27185381375E+03  0.25500000000E-02 0.  1.
    8880023    1    1    2    0    0  0.27230663028E+03  0.32195659401E+03  0.15278531078E+04  0.17163776608E+04  0.65864270000E+03 0.  0.
    8880022    1    1    2    0    0 -0.27230663028E+03 -0.32195659401E+03  0.10564071230E+03  0.46082378675E+03  0.15294330000E+03 0.  0.
<mgrwt>
<rscale>  0 0.68058597E+03</rscale>
<asrwt>0</asrwt>
<pdfrwt beam="1">  1        2 0.29313040E+00 0.78205956E+03</pdfrwt>
<pdfrwt beam="2">  1       -2 0.41823664E-01 0.78205956E+03</pdfrwt>
<totfact> 0.41887752E+01</totfact>
</mgrwt>
</event>
<event>
 4    1  0.1070084E-006  0.7648569E+03  0.7818608E-02  0.9792692E-01
         -2   -1    0    0    0  501 -0.00000000000E+00  0.00000000000E+00  0.15377953484E+04  0.15377953484E+04  0.25500000000E-02 0.  1.
          2   -1    0    0  501    0  0.00000000000E+00 -0.00000000000E+00 -0.13283522033E+04  0.13283522033E+04  0.25500000000E-02 0. -1.
    8880023    1    1    2    0    0  0.21729541468E+03 -0.32245705827E+03 -0.11850265045E+04  0.14104232961E+04  0.65864270000E+03 0.  0.
    8880022    1    1    2    0    0 -0.21729541468E+03  0.32245705827E+03  0.13944696496E+04  0.14557242556E+04  0.15294330000E+03 0.  0.
<mgrwt>
<rscale>  0 0.65756211E+03</rscale>
<asrwt>0</asrwt>
<pdfrwt beam="1">  1        2 0.20436188E+00 0.76485689E+03</pdfrwt>
<pdfrwt beam="2">  1       -2 0.23658390E+00 0.76485689E+03</pdfrwt>
<totfact> 0.12790910E+00</totfact>
</mgrwt>
</event>
<event>
 4    1  0.8468429E-007  0.7730171E+03  0.7818608E-02  0.9772503E-01
          2   -1    0    0  501    0  0.00000000000E+00  0.00000000000E+00  0.10000621084E+04  0.10000621084E+04  0.25500000000E-02 0. -1.
         -2   -1    0    0    0  501 -0.00000000000E+00 -0.00000000000E+00 -0.37749239400E+03  0.37749239401E+03  0.25500000000E-02 0.  1.
    8880023    1    1    2    0    0 -0.40066503694E+03  0.56681687795E+02  0.26779621428E+03  0.81808942311E+03  0.65864270000E+03 0. -1.
    8880022    1    1    2    0    0  0.40066503694E+03 -0.56681687795E+02  0.35477350013E+03  0.55946507931E+03  0.15294330000E+03 0.  1.
<mgrwt>
<rscale>  0 0.66859293E+03</rscale>
<asrwt>0</asrwt>
<pdfrwt beam="1">  1        2 0.15385571E+00 0.77301714E+03</pdfrwt>
<pdfrwt beam="2">  1       -2 0.58075753E-01 0.77301714E+03</pdfrwt>
<totfact> 0.70772847E+01</totfact>
</mgrwt>
</event>
<event>
 4    1  0.8468429E-007  0.7086925E+03  0.7818608E-02  0.9962889E-01
          2   -1    0    0  501    0  0.00000000000E+00  0.00000000000E+00  0.11318344061E+04  0.11318344061E+04  0.25500000000E-02 0. -1.
         -2   -1    0    0    0  501 -0.00000000000E+00 -0.00000000000E+00 -0.28598368963E+03  0.28598368964E+03  0.25500000000E-02 0.  1.
    8880023    1    1    2    0    0 -0.20476381381E+03 -0.16280866509E+03  0.86009526026E+03  0.11144545499E+04  0.65864270000E+03 0. -1.
    8880022    1    1    2    0    0  0.20476381381E+03  0.16280866509E+03 -0.14244543815E+02  0.30336354580E+03  0.15294330000E+03 0.  1.
<mgrwt>
<rscale>  0 0.57307889E+03</rscale>
<asrwt>0</asrwt>
<pdfrwt beam="1">  1        2 0.17412837E+00 0.70869252E+03</pdfrwt>
<pdfrwt beam="2">  1       -2 0.43997490E-01 0.70869252E+03</pdfrwt>
<totfact> 0.10383465E+02</totfact>
</mgrwt>
</event>
<event>
 4    1  0.8468429E-007  0.6708656E+03  0.7818608E-02  0.1015050E+00
          2   -1    0    0  501    0  0.00000000000E+00  0.00000000000E+00  0.69189286542E+03  0.69189286543E+03  0.25500000000E-02 0. -1.
         -2   -1    0    0    0  501 -0.00000000000E+00 -0.00000000000E+00 -0.42644425233E+03  0.42644425234E+03  0.25500000000E-02 0.  1.
    8880023    1    1    2    0    0  0.12171323024E+03 -0.37898818909E+02  0.48055860248E+03  0.82522554952E+03  0.65864270000E+03 0. -1.
    8880022    1    1    2    0    0 -0.12171323024E+03  0.37898818909E+02 -0.21510998939E+03  0.29311156825E+03  0.15294330000E+03 0.  0.
<mgrwt>
<rscale>  0 0.49516073E+03</rscale>
<asrwt>0</asrwt>
<pdfrwt beam="1">  1        2 0.10644506E+00 0.67086559E+03</pdfrwt>
<pdfrwt beam="2">  1       -2 0.65606809E-01 0.67086559E+03</pdfrwt>
<totfact> 0.90529844E+01</totfact>
</mgrwt>
</event>
<event>
 4    1  0.8468429E-007  0.7523171E+03  0.7818608E-02  0.9825420E-01
         -2   -1    0    0    0  501 -0.00000000000E+00  0.00000000000E+00  0.22993201740E+03  0.22993201741E+03  0.25500000000E-02 0.  1.
          2   -1    0    0  501    0  0.00000000000E+00 -0.00000000000E+00 -0.16140187286E+04  0.16140187287E+04  0.25500000000E-02 0. -1.
    8880023    1    1    2    0    0 -0.29560498726E+03 -0.21163308953E+03 -0.11811469462E+04  0.14003889417E+04  0.65864270000E+03 0.  1.
    8880022    1    1    2    0    0  0.29560498726E+03  0.21163308953E+03 -0.20293976503E+03  0.44356180440E+03  0.15294330000E+03 0.  0.
<mgrwt>
<rscale>  0 0.64016045E+03</rscale>
<asrwt>0</asrwt>
<pdfrwt beam="1">  1        2 0.24831057E+00 0.75231714E+03</pdfrwt>
<pdfrwt beam="2">  1       -2 0.35374157E-01 0.75231714E+03</pdfrwt>
<totfact> 0.83891800E+01</totfact>
</mgrwt>
</event>
<event>
 4    1  0.8468429E-007  0.1052076E+04  0.7818608E-02  0.9316390E-01
         -2   -1    0    0    0  501 -0.00000000000E+00  0.00000000000E+00  0.90792096231E+03  0.90792096231E+03  0.25500000000E-02 0.  1.
          2   -1    0    0  501    0  0.00000000000E+00 -0.00000000000E+00 -0.16077632654E+04  0.16077632654E+04  0.25500000000E-02 0. -1.
    8880023    1    1    2    0    0  0.78929142434E+03 -0.22376911768E+03  0.40823205674E+03  0.11285021883E+04  0.65864270000E+03 0.  1.
    8880022    1    1    2    0    0 -0.78929142434E+03  0.22376911768E+03 -0.11080743598E+04  0.13871820394E+04  0.15294330000E+03 0.  0.
<mgrwt>
<rscale>  0 0.99287868E+03</rscale>
<asrwt>0</asrwt>
<pdfrwt beam="1">  1        2 0.24734819E+00 0.10520759E+04</pdfrwt>
<pdfrwt beam="2">  1       -2 0.13968015E+00 0.10520759E+04</pdfrwt>
<totfact> 0.39408001E+00</totfact>
</mgrwt>
</event>
<event>
 4    1  0.8468429E-007  0.8732644E+03  0.7818608E-02  0.9570391E-01
          2   -1    0    0  501    0  0.00000000000E+00  0.00000000000E+00  0.49082292962E+03  0.49082292962E+03  0.25500000000E-02 0. -1.
         -2   -1    0    0    0  501 -0.00000000000E+00 -0.00000000000E+00 -0.12106017598E+04  0.12106017598E+04  0.25500000000E-02 0.  1.
    8880023    1    1    2    0    0 -0.89127533152E+02  0.56642458172E+03 -0.16432752190E+03  0.88859116845E+03  0.65864270000E+03 0.  0.
    8880022    1    1    2    0    0  0.89127533152E+02 -0.56642458172E+03 -0.55545130832E+03  0.81283352101E+03  0.15294330000E+03 0.  0.
<mgrwt>
<rscale>  0 0.79287313E+03</rscale>
<asrwt>0</asrwt>
<pdfrwt beam="1">  1        2 0.75511220E-01 0.87326441E+03</pdfrwt>
<pdfrwt beam="2">  1       -2 0.18624642E+00 0.87326441E+03</pdfrwt>
<totfact> 0.10394057E+01</totfact>
</mgrwt>
</event>
<event>
 4    1  0.8468429E-007  0.1003835E+04  0.7818608E-02  0.9376558E-01
          2   -1    0    0  501    0  0.00000000000E+00  0.00000000000E+00  0.34827066207E+04  0.34827066207E+04  0.25500000000E-02 0. -1.
         -2   -1    0    0    0  501 -0.00000000000E+00 -0.00000000000E+00 -0.35338597961E+03  0.35338597962E+03  0.25500000000E-02 0.  1.
    8880023    1    1    2    0    0  0.32792105318E+03  0.68289223207E+03  0.28377885413E+04  0.30101043220E+04  0.65864270000E+03 0.  0.
    8880022    1    1    2    0    0 -0.32792105318E+03 -0.68289223207E+03  0.29153209976E+03  0.82598827833E+03  0.15294330000E+03 0.  1.
<mgrwt>
<rscale>  0 0.94030256E+03</rscale>
<asrwt>0</asrwt>
<pdfrwt beam="1">  1        2 0.53580102E+00 0.10038348E+04</pdfrwt>
<pdfrwt beam="2">  1       -2 0.54367073E-01 0.10038348E+04</pdfrwt>
<totfact> 0.27576058E+00</totfact>
</mgrwt>
</event>
<event>
 4    1  0.8468429E-007  0.1583575E+04  0.7818608E-02  0.8852769E-01
          2   -1    0    0  501    0  0.00000000000E+00  0.00000000000E+00  0.37698237142E+04  0.37698237142E+04  0.25500000000E-02 0. -1.
         -2   -1    0    0    0  501 -0.00000000000E+00 -0.00000000000E+00 -0.74477267287E+03  0.74477267287E+03  0.25500000000E-02 0.  1.
    8880023    1    1    2    0    0  0.83760011895E+03  0.11714628793E+04  0.60676873685E+03  0.16958413083E+04  0.65864270000E+03 0.  0.
    8880022    1    1    2    0    0 -0.83760011895E+03 -0.11714628793E+04  0.24182823045E+04  0.28187550787E+04  0.15294330000E+03 0.  1.
<mgrwt>
<rscale>  0 0.15485894E+04</rscale>
<asrwt>0</asrwt>
<pdfrwt beam="1">  1        2 0.57997288E+00 0.15835749E+04</pdfrwt>
<pdfrwt beam="2">  1       -2 0.11458041E+00 0.15835749E+04</pdfrwt>
<totfact> 0.29357604E-01</totfact>
</mgrwt>
</event>
<event>
 4    1  0.8468429E-007  0.8478323E+03  0.7818608E-02  0.9615585E-01
          2   -1    0    0  501    0  0.00000000000E+00  0.00000000000E+00  0.29399284960E+04  0.29399284960E+04  0.25500000000E-02 0. -1.
         -2   -1    0    0    0  501 -0.00000000000E+00 -0.00000000000E+00 -0.56769452109E+03  0.56769452109E+03  0.25500000000E-02 0.  1.
    8880023    1    1    2    0    0 -0.47178346024E+03  0.24985937165E+03  0.27222247173E+04  0.28511974602E+04  0.65864270000E+03 0. -1.
    8880022    1    1    2    0    0  0.47178346024E+03 -0.24985937165E+03 -0.34999074243E+03  0.65642555691E+03  0.15294330000E+03 0.  0.
<mgrwt>
<rscale>  0 0.76273193E+03</rscale>
<asrwt>0</asrwt>
<pdfrwt beam="1">  1        2 0.45229669E+00 0.84783226E+03</pdfrwt>
<pdfrwt beam="2">  1       -2 0.87337620E-01 0.84783226E+03</pdfrwt>
<totfact> 0.22465829E+00</totfact>
</mgrwt>
</event>
<event>
 4    1  0.8468429E-007  0.6615646E+03  0.7818608E-02  0.1022608E+00
          2   -1    0    0  501    0  0.00000000000E+00  0.00000000000E+00  0.46726926158E+04  0.46726926158E+04  0.25500000000E-02 0. -1.
         -2   -1    0    0    0  501 -0.00000000000E+00 -0.00000000000E+00 -0.61489177578E+02  0.61489177631E+02  0.25500000000E-02 0.  1.
    8880023    1    1    2    0    0 -0.35217942489E+02  0.51158443397E+02  0.44647762835E+04  0.45135235635E+04  0.65864270000E+03 0. -1.
    8880022    1    1    2    0    0  0.35217942489E+02 -0.51158443397E+02  0.14642715471E+03  0.22065822997E+03  0.15294330000E+03 0.  0.
<mgrwt>
<rscale>  0 0.46757178E+03</rscale>
<asrwt>0</asrwt>
<pdfrwt beam="1">  1        2 0.71887585E+00 0.66156458E+03</pdfrwt>
<pdfrwt beam="2">  1       -2 0.94598727E-02 0.66156458E+03</pdfrwt>
<totfact> 0.72048301E+00</totfact>
</mgrwt>
</event>
<event>
 4    1  0.8468429E-007  0.6767299E+03  0.7818608E-02  0.1011237E+00
          2   -1    0    0  501    0  0.00000000000E+00  0.00000000000E+00  0.22451776701E+04  0.22451776701E+04  0.25500000000E-02 0. -1.
         -2   -1    0    0    0  501 -0.00000000000E+00 -0.00000000000E+00 -0.22319195617E+03  0.22319195618E+03  0.25500000000E-02 0.  1.
    8880023    1    1    2    0    0  0.11391054706E+03 -0.10572392445E+03  0.21228625606E+04  0.22281177748E+04  0.65864270000E+03 0. -1.
    8880022    1    1    2    0    0 -0.11391054706E+03  0.10572392445E+03 -0.10087684667E+03  0.24025185148E+03  0.15294330000E+03 0.  0.
<mgrwt>
<rscale>  0 0.50985822E+03</rscale>
<asrwt>0</asrwt>
<pdfrwt beam="1">  1        2 0.34541195E+00 0.67672991E+03</pdfrwt>
<pdfrwt beam="2">  1       -2 0.34337224E-01 0.67672991E+03</pdfrwt>
<totfact> 0.40494680E+01</totfact>
</mgrwt>
</event>
<event>
 4    1  0.8468429E-007  0.7395860E+03  0.7818608E-02  0.9861155E-01
          2   -1    0    0  501    0  0.00000000000E+00  0.00000000000E+00  0.51552096131E+04  0.51552096131E+04  0.25500000000E-02 0. -1.
         -2   -1    0    0    0  501 -0.00000000000E+00 -0.00000000000E+00 -0.27630423133E+03  0.27630423135E+03  0.25500000000E-02 0.  1.
    8880023    1    1    2    0    0  0.31147420717E+03  0.12712592010E+03  0.49908712315E+04  0.50453724379E+04  0.65864270000E+03 0. -1.
    8880022    1    1    2    0    0 -0.31147420717E+03 -0.12712592010E+03 -0.11196584978E+03  0.38614140652E+03  0.15294330000E+03 0.  0.
<mgrwt>
<rscale>  0 0.62181392E+03</rscale>
<asrwt>0</asrwt>
<pdfrwt beam="1">  1        2 0.79310909E+00 0.73958596E+03</pdfrwt>
<pdfrwt beam="2">  1       -2 0.42508348E-01 0.73958596E+03</pdfrwt>
<totfact> 0.13444841E-01</totfact>
</mgrwt>
</event>
<event>
 4    1  0.8468429E-007  0.8819054E+03  0.7818608E-02  0.9555727E-01
         -2   -1    0    0    0  501 -0.00000000000E+00  0.00000000000E+00  0.40113039115E+03  0.40113039116E+03  0.25500000000E-02 0.  1.
          2   -1    0    0  501    0  0.00000000000E+00 -0.00000000000E+00 -0.28804810309E+04  0.28804810309E+04  0.25500000000E-02 0. -1.
    8880023    1    1    2    0    0 -0.25344868169E+03 -0.52887686965E+03 -0.25242433436E+04  0.26738664218E+04  0.65864270000E+03 0. -1.
    8880022    1    1    2    0    0  0.25344868169E+03  0.52887686965E+03  0.44892703844E+02  0.60774500029E+03  0.15294330000E+03 0.  0.
<mgrwt>
<rscale>  0 0.80297096E+03</rscale>
<asrwt>0</asrwt>
<pdfrwt beam="1">  1        2 0.44315091E+00 0.88190543E+03</pdfrwt>
<pdfrwt beam="2">  1       -2 0.61712370E-01 0.88190543E+03</pdfrwt>
<totfact> 0.52293154E+00</totfact>
</mgrwt>
</event>
<event>
 4    1  0.8468429E-007  0.6987077E+03  0.7818608E-02  0.1000260E+00
         -2   -1    0    0    0  501 -0.00000000000E+00  0.00000000000E+00  0.52025212331E+03  0.52025212331E+03  0.25500000000E-02 0.  1.
          2   -1    0    0  501    0  0.00000000000E+00 -0.00000000000E+00 -0.61499941848E+03  0.61499941848E+03  0.25500000000E-02 0. -1.
    8880023    1    1    2    0    0 -0.11709283759E+03  0.20167178488E+03 -0.32783054735E+03  0.77179357050E+03  0.65864270000E+03 0.  0.
    8880022    1    1    2    0    0  0.11709283759E+03 -0.20167178488E+03  0.23308325218E+03  0.36345797129E+03  0.15294330000E+03 0.  0.
<mgrwt>
<rscale>  0 0.55536164E+03</rscale>
<asrwt>0</asrwt>
<pdfrwt beam="1">  1        2 0.94615295E-01 0.69870770E+03</pdfrwt>
<pdfrwt beam="2">  1       -2 0.80038788E-01 0.69870770E+03</pdfrwt>
<totfact> 0.67494048E+01</totfact>
</mgrwt>
</event>
<event>
 4    1  0.8468429E-007  0.6888649E+03  0.7818608E-02  0.1004697E+00
          2   -1    0    0  501    0  0.00000000000E+00  0.00000000000E+00  0.44454290628E+04  0.44454290628E+04  0.25500000000E-02 0. -1.
         -2   -1    0    0    0  501 -0.00000000000E+00 -0.00000000000E+00 -0.67443586628E+02  0.67443586676E+02  0.25500000000E-02 0.  1.
    8880023    1    1    2    0    0 -0.17079747964E+03  0.10748424145E+03  0.39936297007E+04  0.40526057092E+04  0.65864270000E+03 0. -1.
    8880022    1    1    2    0    0  0.17079747964E+03 -0.10748424145E+03  0.38435577547E+03  0.46026694034E+03  0.15294330000E+03 0.  0.
<mgrwt>
<rscale>  0 0.53637879E+03</rscale>
<asrwt>0</asrwt>
<pdfrwt beam="1">  1        2 0.68391210E+00 0.68886490E+03</pdfrwt>
<pdfrwt beam="2">  1       -2 0.10375937E-01 0.68886490E+03</pdfrwt>
<totfact> 0.10269393E+01</totfact>
</mgrwt>
</event>
<event>
 4    1  0.8468429E-007  0.7655416E+03  0.7818608E-02  0.9790966E-01
         -2   -1    0    0    0  501 -0.00000000000E+00  0.00000000000E+00  0.76298610756E+03  0.76298610757E+03  0.25500000000E-02 0.  1.
          2   -1    0    0  501    0  0.00000000000E+00 -0.00000000000E+00 -0.61605295530E+03  0.61605295530E+03  0.25500000000E-02 0. -1.
    8880023    1    1    2    0    0 -0.29038667381E+03  0.26061335514E+03 -0.24646379784E+03  0.80423774539E+03  0.65864270000E+03 0. -1.
    8880022    1    1    2    0    0  0.29038667381E+03 -0.26061335514E+03  0.39339695010E+03  0.57480131748E+03  0.15294330000E+03 0.  0.
<mgrwt>
<rscale>  0 0.65849594E+03</rscale>
<asrwt>0</asrwt>
<pdfrwt beam="1">  1        2 0.94777379E-01 0.76554160E+03</pdfrwt>
<pdfrwt beam="2">  1       -2 0.11738248E+00 0.76554160E+03</pdfrwt>
<totfact> 0.27247400E+01</totfact>
</mgrwt>
</event>
<event>
 4    1  0.8468429E-007  0.1087359E+04  0.7818608E-02  0.9275263E-01
          2   -1    0    0  501    0  0.00000000000E+00  0.00000000000E+00  0.36807879412E+04  0.36807879412E+04  0.25500000000E-02 0. -1.
         -2   -1    0    0    0  501 -0.00000000000E+00 -0.00000000000E+00 -0.38868705738E+03  0.38868705738E+03  0.25500000000E-02 0.  1.
    8880023    1    1    2    0    0  0.83334138411E+03 -0.23255403645E+03  0.29189844104E+04  0.31149349009E+04  0.65864270000E+03 0. -1.
    8880022    1    1    2    0    0 -0.83334138411E+03  0.23255403645E+03  0.37311647341E+03  0.95454009769E+03  0.15294330000E+03 0.  0.
<mgrwt>
<rscale>  0 0.10309248E+04</rscale>
<asrwt>0</asrwt>
<pdfrwt beam="1">  1        2 0.56627506E+00 0.10873589E+04</pdfrwt>
<pdfrwt beam="2">  1       -2 0.59798010E-01 0.10873589E+04</pdfrwt>
<totfact> 0.16169459E+00</totfact>
</mgrwt>
</event>
<event>
 4    1  0.8468429E-007  0.9243822E+03  0.7818608E-02  0.9487972E-01
          2   -1    0    0  501    0  0.00000000000E+00  0.00000000000E+00  0.12256256813E+04  0.12256256813E+04  0.25500000000E-02 0. -1.
         -2   -1    0    0    0  501 -0.00000000000E+00 -0.00000000000E+00 -0.66033577259E+03  0.66033577260E+03  0.25500000000E-02 0.  1.
    8880023    1    1    2    0    0  0.17140158123E+03 -0.62553482606E+03  0.75453076256E+03  0.11932305723E+04  0.65864270000E+03 0. -1.
    8880022    1    1    2    0    0 -0.17140158123E+03  0.62553482606E+03 -0.18924085382E+03  0.69273088168E+03  0.15294330000E+03 0.  0.
<mgrwt>
<rscale>  0 0.85176421E+03</rscale>
<asrwt>0</asrwt>
<pdfrwt beam="1">  1        2 0.18855780E+00 0.92438224E+03</pdfrwt>
<pdfrwt beam="2">  1       -2 0.10159012E+00 0.92438224E+03</pdfrwt>
<totfact> 0.14562158E+01</totfact>
</mgrwt>
</event>
<event>
 4    1  0.8468429E-007  0.7598981E+03  0.7818608E-02  0.9805371E-01
         -2   -1    0    0    0  501 -0.00000000000E+00  0.00000000000E+00  0.82906535939E+03  0.82906535940E+03  0.25500000000E-02 0.  1.
          2   -1    0    0  501    0  0.00000000000E+00 -0.00000000000E+00 -0.62804809211E+03  0.62804809212E+03  0.25500000000E-02 0. -1.
    8880023    1    1    2    0    0  0.32662348192E+03 -0.19222888685E+03 -0.29435221258E+03  0.81491611543E+03  0.65864270000E+03 0. -1.
    8880022    1    1    2    0    0 -0.32662348192E+03  0.19222888685E+03  0.49536947986E+03  0.64219733608E+03  0.15294330000E+03 0.  0.
<mgrwt>
<rscale>  0 0.65075074E+03</rscale>
<asrwt>0</asrwt>
<pdfrwt beam="1">  1        2 0.96622783E-01 0.75989805E+03</pdfrwt>
<pdfrwt beam="2">  1       -2 0.12754852E+00 0.75989805E+03</pdfrwt>
<totfact> 0.21645341E+01</totfact>
</mgrwt>
</event>
<event>
 4    1  0.8468429E-007  0.6739613E+03  0.7818608E-02  0.1012969E+00
          2   -1    0    0  501    0  0.00000000000E+00  0.00000000000E+00  0.39119705159E+03  0.39119705160E+03  0.25500000000E-02 0. -1.
         -2   -1    0    0    0  501 -0.00000000000E+00 -0.00000000000E+00 -0.79340387737E+03  0.79340387737E+03  0.25500000000E-02 0.  1.
    8880023    1    1    2    0    0  0.10389788930E+03 -0.98075835799E+02  0.60588125965E+02  0.67667922108E+03  0.65864270000E+03 0. -1.
    8880022    1    1    2    0    0 -0.10389788930E+03  0.98075835799E+02 -0.46279495175E+03  0.50792170789E+03  0.15294330000E+03 0.  0.
<mgrwt>
<rscale>  0 0.50311475E+03</rscale>
<asrwt>0</asrwt>
<pdfrwt beam="1">  1        2 0.60184162E-01 0.67396131E+03</pdfrwt>
<pdfrwt beam="2">  1       -2 0.12206213E+00 0.67396131E+03</pdfrwt>
<totfact> 0.42191591E+01</totfact>
</mgrwt>
</event>
<event>
 4    1  0.8468429E-007  0.6663511E+03  0.7818608E-02  0.1018426E+00
          2   -1    0    0  501    0  0.00000000000E+00  0.00000000000E+00  0.52443680235E+03  0.52443680235E+03  0.25500000000E-02 0. -1.
         -2   -1    0    0    0  501 -0.00000000000E+00 -0.00000000000E+00 -0.30271999500E+04  0.30271999500E+04  0.25500000000E-02 0.  1.
    8880023    1    1    2    0    0 -0.85538604412E+02 -0.53821775443E+02  0.30857285590E+03  0.73433034121E+03  0.65864270000E+03 0. -1.
    8880022    1    1    2    0    0  0.85538604412E+02  0.53821775443E+02 -0.28113360036E+04  0.28173064112E+04  0.15294330000E+03 0.  0.
<mgrwt>
<rscale>  0 0.48259000E+03</rscale>
<asrwt>0</asrwt>
<pdfrwt beam="1">  1        2 0.80682587E-01 0.66635114E+03</pdfrwt>
<pdfrwt beam="2">  1       -2 0.46572306E+00 0.66635114E+03</pdfrwt>
<totfact> 0.17291112E-01</totfact>
</mgrwt>
</event>
<event>
 4    1  0.8468429E-007  0.8235591E+03  0.7818608E-02  0.9661997E-01
         -2   -1    0    0    0  501 -0.00000000000E+00  0.00000000000E+00  0.64007299635E+03  0.64007299635E+03  0.25500000000E-02 0.  1.
          2   -1    0    0  501    0  0.00000000000E+00 -0.00000000000E+00 -0.23221318564E+04  0.23221318564E+04  0.25500000000E-02 0. -1.
    8880023    1    1    2    0    0 -0.36934358468E+03  0.32867099979E+03 -0.21262642642E+04  0.22801862286E+04  0.65864270000E+03 0.  0.
    8880022    1    1    2    0    0  0.36934358468E+03 -0.32867099979E+03  0.44420540412E+03  0.68201862417E+03  0.15294330000E+03 0.  0.
<mgrwt>
<rscale>  0 0.73325268E+03</rscale>
<asrwt>0</asrwt>
<pdfrwt beam="1">  1        2 0.35725105E+00 0.82355905E+03</pdfrwt>
<pdfrwt beam="2">  1       -2 0.98472770E-01 0.82355905E+03</pdfrwt>
<totfact> 0.38927740E+00</totfact>
</mgrwt>
</event>
<event>
 4    1  0.8468429E-007  0.7486571E+03  0.7818608E-02  0.9835411E-01
         -2   -1    0    0    0  501 -0.00000000000E+00  0.00000000000E+00  0.65899394208E+03  0.65899394209E+03  0.25500000000E-02 0.  1.
          2   -1    0    0  501    0  0.00000000000E+00 -0.00000000000E+00 -0.61954217060E+03  0.61954217060E+03  0.25500000000E-02 0. -1.
    8880023    1    1    2    0    0 -0.33614718484E+03 -0.11697127202E+03  0.30549875940E+03  0.80858945492E+03  0.65864270000E+03 0.  1.
    8880022    1    1    2    0    0  0.33614718484E+03  0.11697127202E+03 -0.26604698792E+03  0.46994665777E+03  0.15294330000E+03 0.  0.
<mgrwt>
<rscale>  0 0.63496315E+03</rscale>
<asrwt>0</asrwt>
<pdfrwt beam="1">  1        2 0.95314180E-01 0.74865707E+03</pdfrwt>
<pdfrwt beam="2">  1       -2 0.10138368E+00 0.74865707E+03</pdfrwt>
<totfact> 0.38617257E+01</totfact>
</mgrwt>
</event>
<event>
 4    1  0.8468429E-007  0.1172838E+04  0.7818608E-02  0.9183988E-01
         -2   -1    0    0    0  501 -0.00000000000E+00  0.00000000000E+00  0.11157743797E+04  0.11157743797E+04  0.25500000000E-02 0.  1.
          2   -1    0    0  501    0  0.00000000000E+00 -0.00000000000E+00 -0.11792419731E+04  0.11792419731E+04  0.25500000000E-02 0. -1.
    8880023    1    1    2    0    0  0.11163379602E+02  0.97036837750E+03 -0.42605821866E+03  0.12478282017E+04  0.65864270000E+03 0. -1.
    8880022    1    1    2    0    0 -0.11163379602E+02 -0.97036837750E+03  0.36259062532E+03  0.10471881510E+04  0.15294330000E+03 0.  0.
<mgrwt>
<rscale>  0 0.11220233E+04</rscale>
<asrwt>0</asrwt>
<pdfrwt beam="1">  1        2 0.18142184E+00 0.11728383E+04</pdfrwt>
<pdfrwt beam="2">  1       -2 0.17165760E+00 0.11728383E+04</pdfrwt>
<totfact> 0.39392876E+00</totfact>
</mgrwt>
</event>
<event>
 4    1  0.8468429E-007  0.7467053E+03  0.7818608E-02  0.9840828E-01
          2   -1    0    0  501    0  0.00000000000E+00  0.00000000000E+00  0.36745045960E+03  0.36745045961E+03  0.25500000000E-02 0. -1.
         -2   -1    0    0    0  501 -0.00000000000E+00 -0.00000000000E+00 -0.10952721472E+04  0.10952721472E+04  0.25500000000E-02 0.  1.
    8880023    1    1    2    0    0 -0.27248281255E+03  0.22251234135E+03 -0.13833275525E+03  0.75941081282E+03  0.65864270000E+03 0.  0.
    8880022    1    1    2    0    0  0.27248281255E+03 -0.22251234135E+03 -0.58948893234E+03  0.70331179398E+03  0.15294330000E+03 0.  0.
<mgrwt>
<rscale>  0 0.63216736E+03</rscale>
<asrwt>0</asrwt>
<pdfrwt beam="1">  1        2 0.56530840E-01 0.74670532E+03</pdfrwt>
<pdfrwt beam="2">  1       -2 0.16850341E+00 0.74670532E+03</pdfrwt>
<totfact> 0.19389260E+01</totfact>
</mgrwt>
</event>
<event>
 4    1  0.8468429E-007  0.7160794E+03  0.7818608E-02  0.9936082E-01
          2   -1    0    0  501    0  0.00000000000E+00  0.00000000000E+00  0.31425336377E+04  0.31425336377E+04  0.25500000000E-02 0. -1.
         -2   -1    0    0    0  501 -0.00000000000E+00 -0.00000000000E+00 -0.12210675412E+03  0.12210675415E+03  0.25500000000E-02 0.  1.
    8880023    1    1    2    0    0 -0.24654563577E+03  0.13481376570E+03  0.27621858028E+04  0.28534961219E+04  0.65864270000E+03 0. -1.
    8880022    1    1    2    0    0  0.24654563577E+03 -0.13481376570E+03  0.25824108076E+03  0.41114426999E+03  0.15294330000E+03 0.  0.
<mgrwt>
<rscale>  0 0.58544012E+03</rscale>
<asrwt>0</asrwt>
<pdfrwt beam="1">  1        2 0.48346672E+00 0.71607940E+03</pdfrwt>
<pdfrwt beam="2">  1       -2 0.18785654E-01 0.71607940E+03</pdfrwt>
<totfact> 0.35904776E+01</totfact>
</mgrwt>
</event>
<event>
 4    1  0.8468429E-007  0.6715210E+03  0.7818608E-02  0.1014595E+00
          2   -1    0    0  501    0  0.00000000000E+00  0.00000000000E+00  0.18175077459E+04  0.18175077459E+04  0.25500000000E-02 0. -1.
         -2   -1    0    0    0  501 -0.00000000000E+00 -0.00000000000E+00 -0.24603614908E+03  0.24603614909E+03  0.25500000000E-02 0.  1.
    8880023    1    1    2    0    0  0.12978120851E+03  0.16942459063E+02  0.16978746903E+04  0.18258474414E+04  0.65864270000E+03 0. -1.
    8880022    1    1    2    0    0 -0.12978120851E+03 -0.16942459063E+02 -0.12640309348E+03  0.23769645361E+03  0.15294330000E+03 0.  0.
<mgrwt>
<rscale>  0 0.49688497E+03</rscale>
<asrwt>0</asrwt>
<pdfrwt beam="1">  1        2 0.27961659E+00 0.67152097E+03</pdfrwt>
<pdfrwt beam="2">  1       -2 0.37851714E-01 0.67152097E+03</pdfrwt>
<totfact> 0.57553116E+01</totfact>
</mgrwt>
</event>
<event>
 4    1  0.8468429E-007  0.8462152E+03  0.7818608E-02  0.9618570E-01
          2   -1    0    0  501    0  0.00000000000E+00  0.00000000000E+00  0.10252044879E+04  0.10252044879E+04  0.25500000000E-02 0. -1.
         -2   -1    0    0    0  501 -0.00000000000E+00 -0.00000000000E+00 -0.85183922501E+03  0.85183922502E+03  0.25500000000E-02 0.  1.
    8880023    1    1    2    0    0  0.12882400088E+03 -0.51543610119E+03  0.71145259167E+03  0.11055518957E+04  0.65864270000E+03 0. -1.
    8880022    1    1    2    0    0 -0.12882400088E+03  0.51543610119E+03 -0.53808732879E+03  0.77149181722E+03  0.15294330000E+03 0.  0.
<mgrwt>
<rscale>  0 0.76079166E+03</rscale>
<asrwt>0</asrwt>
<pdfrwt beam="1">  1        2 0.15772377E+00 0.84621522E+03</pdfrwt>
<pdfrwt beam="2">  1       -2 0.13105219E+00 0.84621522E+03</pdfrwt>
<totfact> 0.10397175E+01</totfact>
</mgrwt>
</event>
<event>
 4    1  0.8468429E-007  0.7536300E+03  0.7818608E-02  0.9821887E-01
         -2   -1    0    0    0  501 -0.00000000000E+00  0.00000000000E+00  0.99918433206E+03  0.99918433206E+03  0.25500000000E-02 0.  1.
          2   -1    0    0  501    0  0.00000000000E+00 -0.00000000000E+00 -0.92828003134E+03  0.92828003135E+03  0.25500000000E-02 0. -1.
    8880023    1    1    2    0    0 -0.35898902957E+03  0.72627960555E+02 -0.72016869868E+03  0.10424016044E+04  0.65864270000E+03 0. -1.
    8880022    1    1    2    0    0  0.35898902957E+03 -0.72627960555E+02  0.79107299940E+03  0.88506275902E+03  0.15294330000E+03 0.  0.
<mgrwt>
<rscale>  0 0.64201081E+03</rscale>
<asrwt>0</asrwt>
<pdfrwt beam="1">  1        2 0.14281231E+00 0.75362998E+03</pdfrwt>
<pdfrwt beam="2">  1       -2 0.15372067E+00 0.75362998E+03</pdfrwt>
<totfact> 0.80145982E+00</totfact>
</mgrwt>
</event>
<event>
 4    1  0.8468429E-007  0.8525812E+03  0.7818608E-02  0.9606899E-01
          2   -1    0    0  501    0  0.00000000000E+00  0.00000000000E+00  0.22617963179E+04  0.22617963179E+04  0.25500000000E-02 0. -1.
         -2   -1    0    0    0  501 -0.00000000000E+00 -0.00000000000E+00 -0.61131166547E+03  0.61131166547E+03  0.25500000000E-02 0.  1.
    8880023    1    1    2    0    0  0.16755373560E+03 -0.51479150192E+03  0.20250828910E+04  0.21972381452E+04  0.65864270000E+03 0. -1.
    8880022    1    1    2    0    0 -0.16755373560E+03  0.51479150192E+03 -0.37459823862E+03  0.67586983818E+03  0.15294330000E+03 0.  0.
<mgrwt>
<rscale>  0 0.76841256E+03</rscale>
<asrwt>0</asrwt>
<pdfrwt beam="1">  1        2 0.34796867E+00 0.85258123E+03</pdfrwt>
<pdfrwt beam="2">  1       -2 0.94047948E-01 0.85258123E+03</pdfrwt>
<totfact> 0.46640393E+00</totfact>
</mgrwt>
</event>
<event>
 4    1  0.8468429E-007  0.8541368E+03  0.7818608E-02  0.9604079E-01
         -2   -1    0    0    0  501 -0.00000000000E+00  0.00000000000E+00  0.14915262777E+04  0.14915262777E+04  0.25500000000E-02 0.  1.
          2   -1    0    0  501    0  0.00000000000E+00 -0.00000000000E+00 -0.10068813062E+04  0.10068813062E+04  0.25500000000E-02 0. -1.
    8880023    1    1    2    0    0  0.52393094398E+03 -0.14572509777E+03 -0.75253264409E+03  0.11383562820E+04  0.65864270000E+03 0.  0.
    8880022    1    1    2    0    0 -0.52393094398E+03  0.14572509777E+03  0.12371776156E+04  0.13600513019E+04  0.15294330000E+03 0.  0.
<mgrwt>
<rscale>  0 0.77026774E+03</rscale>
<asrwt>0</asrwt>
<pdfrwt beam="1">  1        2 0.15490482E+00 0.85413678E+03</pdfrwt>
<pdfrwt beam="2">  1       -2 0.22946558E+00 0.85413678E+03</pdfrwt>
<totfact> 0.21773575E+00</totfact>
</mgrwt>
</event>
<event>
 4    1  0.8468429E-007  0.6619371E+03  0.7818608E-02  0.1022254E+00
          2   -1    0    0  501    0  0.00000000000E+00  0.00000000000E+00  0.17716846740E+04  0.17716846740E+04  0.25500000000E-02 0. -1.
         -2   -1    0    0    0  501 -0.00000000000E+00 -0.00000000000E+00 -0.97094750916E+02  0.97094750950E+02  0.25500000000E-02 0.  1.
    8880023    1    1    2    0    0 -0.32151364328E+02 -0.57591922220E+02  0.12997025400E+04  0.14585566285E+04  0.65864270000E+03 0. -1.
    8880022    1    1    2    0    0  0.32151364328E+02  0.57591922220E+02  0.37488738305E+03  0.41022279644E+03  0.15294330000E+03 0.  1.
<mgrwt>
<rscale>  0 0.46881894E+03</rscale>
<asrwt>0</asrwt>
<pdfrwt beam="1">  1        2 0.27256688E+00 0.66193712E+03</pdfrwt>
<pdfrwt beam="2">  1       -2 0.14937654E-01 0.66193712E+03</pdfrwt>
<totfact> 0.32359776E+02</totfact>
</mgrwt>
</event>
<event>
 4    1  0.8468429E-007  0.9702161E+03  0.7818608E-02  0.9421605E-01
          2   -1    0    0  501    0  0.00000000000E+00  0.00000000000E+00  0.15809990719E+04  0.15809990719E+04  0.25500000000E-02 0. -1.
         -2   -1    0    0    0  501 -0.00000000000E+00 -0.00000000000E+00 -0.67185588764E+03  0.67185588764E+03  0.25500000000E-02 0.  1.
    8880023    1    1    2    0    0 -0.35128931089E+03  0.61976198889E+03  0.11320184875E+04  0.14909007899E+04  0.65864270000E+03 0. -1.
    8880022    1    1    2    0    0  0.35128931089E+03 -0.61976198889E+03 -0.22287530330E+03  0.76195416966E+03  0.15294330000E+03 0.  0.
<mgrwt>
<rscale>  0 0.90318773E+03</rscale>
<asrwt>0</asrwt>
<pdfrwt beam="1">  1        2 0.24323062E+00 0.97021611E+03</pdfrwt>
<pdfrwt beam="2">  1       -2 0.10336245E+00 0.97021611E+03</pdfrwt>
<totfact> 0.87148750E+00</totfact>
</mgrwt>
</event>
<event>
 4    1  0.8468429E-007  0.1271770E+04  0.7818608E-02  0.9090330E-01
         -2   -1    0    0    0  501 -0.00000000000E+00  0.00000000000E+00  0.44784646011E+03  0.44784646011E+03  0.25500000000E-02 0.  1.
          2   -1    0    0  501    0  0.00000000000E+00 -0.00000000000E+00 -0.36888685251E+04  0.36888685251E+04  0.25500000000E-02 0. -1.
    8880023    1    1    2    0    0  0.30224789694E+03  0.10451000715E+04 -0.92263809172E+03  0.15711967430E+04  0.65864270000E+03 0.  1.
    8880022    1    1    2    0    0 -0.30224789694E+03 -0.10451000715E+04 -0.23183839733E+04  0.25655182422E+04  0.15294330000E+03 0.  0.
<mgrwt>
<rscale>  0 0.12260801E+04</rscale>
<asrwt>0</asrwt>
<pdfrwt beam="1">  1        2 0.56751822E+00 0.12717697E+04</pdfrwt>
<pdfrwt beam="2">  1       -2 0.68899458E-01 0.12717697E+04</pdfrwt>
<totfact> 0.11442096E+00</totfact>
</mgrwt>
</event>
<event>
 4    1  0.8468429E-007  0.1206191E+04  0.7818608E-02  0.9151127E-01
         -2   -1    0    0    0  501 -0.00000000000E+00  0.00000000000E+00  0.93971482045E+03  0.93971482045E+03  0.25500000000E-02 0.  1.
          2   -1    0    0  501    0  0.00000000000E+00 -0.00000000000E+00 -0.19538877492E+04  0.19538877492E+04  0.25500000000E-02 0. -1.
    8880023    1    1    2    0    0 -0.10101186834E+04  0.27345238213E+02 -0.13570494518E+04  0.18156213640E+04  0.65864270000E+03 0.  0.
    8880022    1    1    2    0    0  0.10101186834E+04 -0.27345238213E+02  0.34287652311E+03  0.10779812056E+04  0.15294330000E+03 0.  0.
<mgrwt>
<rscale>  0 0.11572432E+04</rscale>
<asrwt>0</asrwt>
<pdfrwt beam="1">  1        2 0.30059812E+00 0.12061914E+04</pdfrwt>
<pdfrwt beam="2">  1       -2 0.14457151E+00 0.12061914E+04</pdfrwt>
<totfact> 0.22770927E+00</totfact>
</mgrwt>
</event>
<event>
 4    1  0.8468429E-007  0.7292373E+03  0.7818608E-02  0.9892486E-01
          2   -1    0    0  501    0  0.00000000000E+00  0.00000000000E+00  0.11498312439E+04  0.11498312439E+04  0.25500000000E-02 0. -1.
         -2   -1    0    0    0  501 -0.00000000000E+00 -0.00000000000E+00 -0.27145300867E+03  0.27145300868E+03  0.25500000000E-02 0.  1.
    8880023    1    1    2    0    0  0.25309786289E+03  0.18416906112E+03  0.76016783113E+03  0.10533955140E+04  0.65864270000E+03 0. -1.
    8880022    1    1    2    0    0 -0.25309786289E+03 -0.18416906112E+03  0.11821040408E+03  0.36788873851E+03  0.15294330000E+03 0.  0.
<mgrwt>
<rscale>  0 0.60626829E+03</rscale>
<asrwt>0</asrwt>
<pdfrwt beam="1">  1        2 0.17689711E+00 0.72923726E+03</pdfrwt>
<pdfrwt beam="2">  1       -2 0.41762002E-01 0.72923726E+03</pdfrwt>
<totfact> 0.11207317E+02</totfact>
</mgrwt>
</event>
<event>
 4    1  0.8468429E-007  0.7907827E+03  0.7818608E-02  0.9731092E-01
          2   -1    0    0  501    0  0.00000000000E+00  0.00000000000E+00  0.38666398972E+03  0.38666398973E+03  0.25500000000E-02 0. -1.
         -2   -1    0    0    0  501 -0.00000000000E+00 -0.00000000000E+00 -0.15749651207E+04  0.15749651207E+04  0.25500000000E-02 0.  1.
    8880023    1    1    2    0    0  0.43648951876E+03  0.31685157280E+02 -0.12360932515E+03  0.80038523269E+03  0.65864270000E+03 0. -1.
    8880022    1    1    2    0    0 -0.43648951876E+03 -0.31685157280E+02 -0.10646918058E+04  0.11612438777E+04  0.15294330000E+03 0.  0.
<mgrwt>
<rscale>  0 0.69195387E+03</rscale>
<asrwt>0</asrwt>
<pdfrwt beam="1">  1        2 0.59486769E-01 0.79078269E+03</pdfrwt>
<pdfrwt beam="2">  1       -2 0.24230232E+00 0.79078269E+03</pdfrwt>
<totfact> 0.60509962E+00</totfact>
</mgrwt>
</event>
<event>
 4    1  0.8468429E-007  0.9341768E+03  0.7818608E-02  0.9473255E-01
          2   -1    0    0  501    0  0.00000000000E+00  0.00000000000E+00  0.24370925078E+04  0.24370925078E+04  0.25500000000E-02 0. -1.
         -2   -1    0    0    0  501 -0.00000000000E+00 -0.00000000000E+00 -0.69635821602E+03  0.69635821602E+03  0.25500000000E-02 0.  1.
    8880023    1    1    2    0    0 -0.35799308258E+03 -0.55741998331E+03  0.21469898355E+04  0.23414208603E+04  0.65864270000E+03 0. -1.
    8880022    1    1    2    0    0  0.35799308258E+03  0.55741998331E+03 -0.40625554370E+03  0.79202986356E+03  0.15294330000E+03 0.  0.
<mgrwt>
<rscale>  0 0.86284643E+03</rscale>
<asrwt>0</asrwt>
<pdfrwt beam="1">  1        2 0.37493730E+00 0.93417680E+03</pdfrwt>
<pdfrwt beam="2">  1       -2 0.10713204E+00 0.93417680E+03</pdfrwt>
<totfact> 0.26947886E+00</totfact>
</mgrwt>
</event>
<event>
 4    1  0.8468429E-007  0.9141751E+03  0.7818608E-02  0.9503649E-01
          2   -1    0    0  501    0  0.00000000000E+00  0.00000000000E+00  0.48757780384E+03  0.48757780384E+03  0.25500000000E-02 0. -1.
         -2   -1    0    0    0  501 -0.00000000000E+00 -0.00000000000E+00 -0.21096112125E+04  0.21096112125E+04  0.25500000000E-02 0.  1.
    8880023    1    1    2    0    0 -0.57347219420E+03 -0.27025096371E+03 -0.73725829814E+02  0.91714319773E+03  0.65864270000E+03 0.  0.
    8880022    1    1    2    0    0  0.57347219420E+03  0.27025096371E+03 -0.15483075789E+04  0.16800458186E+04  0.15294330000E+03 0.  0.
<mgrwt>
<rscale>  0 0.84015354E+03</rscale>
<asrwt>0</asrwt>
<pdfrwt beam="1">  1        2 0.75011971E-01 0.91417512E+03</pdfrwt>
<pdfrwt beam="2">  1       -2 0.32455556E+00 0.91417512E+03</pdfrwt>
<totfact> 0.14544809E+00</totfact>
</mgrwt>
</event>
<event>
 4    1  0.8468429E-007  0.7297221E+03  0.7818608E-02  0.9890965E-01
         -2   -1    0    0    0  501 -0.00000000000E+00  0.00000000000E+00  0.41241149140E+03  0.41241149141E+03  0.25500000000E-02 0.  1.
          2   -1    0    0  501    0  0.00000000000E+00 -0.00000000000E+00 -0.78094771498E+03  0.78094771499E+03  0.25500000000E-02 0. -1.
    8880023    1    1    2    0    0 -0.10036433812E+03  0.29767627473E+03 -0.41724352426E+03  0.84058701495E+03  0.65864270000E+03 0.  0.
    8880022    1    1    2    0    0  0.10036433812E+03 -0.29767627473E+03  0.48707300682E+02  0.35277219145E+03  0.15294330000E+03 0.  0.
<mgrwt>
<rscale>  0 0.60701139E+03</rscale>
<asrwt>0</asrwt>
<pdfrwt beam="1">  1        2 0.12014580E+00 0.72972212E+03</pdfrwt>
<pdfrwt beam="2">  1       -2 0.63447922E-01 0.72972212E+03</pdfrwt>
<totfact> 0.82935768E+01</totfact>
</mgrwt>
</event>
<event>
 4    1  0.8468429E-007  0.8986395E+03  0.7818608E-02  0.9528219E-01
          2   -1    0    0  501    0  0.00000000000E+00  0.00000000000E+00  0.20740013126E+04  0.20740013126E+04  0.25500000000E-02 0. -1.
         -2   -1    0    0    0  501 -0.00000000000E+00 -0.00000000000E+00 -0.57410863696E+03  0.57410863697E+03  0.25500000000E-02 0.  1.
    8880023    1    1    2    0    0 -0.27787289789E+02  0.61071320383E+03  0.17522713284E+04  0.19692657935E+04  0.65864270000E+03 0. -1.
    8880022    1    1    2    0    0  0.27787289789E+02 -0.61071320383E+03 -0.25237865280E+03  0.67884415605E+03  0.15294330000E+03 0.  0.
<mgrwt>
<rscale>  0 0.82234928E+03</rscale>
<asrwt>0</asrwt>
<pdfrwt beam="1">  1        2 0.31907713E+00 0.89863950E+03</pdfrwt>
<pdfrwt beam="2">  1       -2 0.88324405E-01 0.89863950E+03</pdfrwt>
<totfact> 0.68078714E+00</totfact>
</mgrwt>
</event>
<event>
 4    1  0.8468429E-007  0.1107279E+04  0.7818608E-02  0.9252994E-01
          2   -1    0    0  501    0  0.00000000000E+00  0.00000000000E+00  0.11730531485E+04  0.11730531485E+04  0.25500000000E-02 0. -1.
         -2   -1    0    0    0  501 -0.00000000000E+00 -0.00000000000E+00 -0.99533578219E+03  0.99533578219E+03  0.25500000000E-02 0.  1.
    8880023    1    1    2    0    0  0.12321389289E+03 -0.88151906708E+03  0.49263860791E+03  0.12119243101E+04  0.65864270000E+03 0.  0.
    8880022    1    1    2    0    0 -0.12321389289E+03  0.88151906708E+03 -0.31492124163E+03  0.95646462061E+03  0.15294330000E+03 0. -1.
<mgrwt>
<rscale>  0 0.10522789E+04</rscale>
<asrwt>0</asrwt>
<pdfrwt beam="1">  1        2 0.18046971E+00 0.11072794E+04</pdfrwt>
<pdfrwt beam="2">  1       -2 0.15312858E+00 0.11072794E+04</pdfrwt>
<totfact> 0.54695555E+00</totfact>
</mgrwt>
</event>
<event>
 4    1  0.8468429E-007  0.8033824E+03  0.7818608E-02  0.9703530E-01
          2   -1    0    0  501    0  0.00000000000E+00  0.00000000000E+00  0.13395288501E+04  0.13395288501E+04  0.25500000000E-02 0. -1.
         -2   -1    0    0    0  501 -0.00000000000E+00 -0.00000000000E+00 -0.54189984160E+03  0.54189984160E+03  0.25500000000E-02 0.  1.
    8880023    1    1    2    0    0  0.45412406685E+03  0.73378385462E+02  0.10601277036E+04  0.13301481157E+04  0.65864270000E+03 0. -1.
    8880022    1    1    2    0    0 -0.45412406685E+03 -0.73378385462E+02 -0.26249869508E+03  0.55128057600E+03  0.15294330000E+03 0.  0.
<mgrwt>
<rscale>  0 0.70807017E+03</rscale>
<asrwt>0</asrwt>
<pdfrwt beam="1">  1        2 0.20608136E+00 0.80338239E+03</pdfrwt>
<pdfrwt beam="2">  1       -2 0.83369207E-01 0.80338239E+03</pdfrwt>
<totfact> 0.20041423E+01</totfact>
</mgrwt>
</event>
<event>
 4    1  0.8468429E-007  0.6646789E+03  0.7818608E-02  0.1019804E+00
         -2   -1    0    0    0  501 -0.00000000000E+00  0.00000000000E+00  0.28583193603E+03  0.28583193604E+03  0.25500000000E-02 0.  1.
          2   -1    0    0  501    0  0.00000000000E+00 -0.00000000000E+00 -0.35088914133E+04  0.35088914133E+04  0.25500000000E-02 0. -1.
    8880023    1    1    2    0    0 -0.74797731099E+02  0.48919134949E+02 -0.34462588433E+04  0.35097717879E+04  0.65864270000E+03 0. -1.
    8880022    1    1    2    0    0  0.74797731099E+02 -0.48919134949E+02  0.22319936600E+03  0.28495156139E+03  0.15294330000E+03 0.  0.
<mgrwt>
<rscale>  0 0.47757275E+03</rscale>
<asrwt>0</asrwt>
<pdfrwt beam="1">  1        2 0.53982942E+00 0.66467886E+03</pdfrwt>
<pdfrwt beam="2">  1       -2 0.43974146E-01 0.66467886E+03</pdfrwt>
<totfact> 0.43464717E+00</totfact>
</mgrwt>
</event>
<event>
 4    1  0.8468429E-007  0.9027890E+03  0.7818608E-02  0.9521569E-01
          2   -1    0    0  501    0  0.00000000000E+00  0.00000000000E+00  0.11829261741E+04  0.11829261741E+04  0.25500000000E-02 0. -1.
         -2   -1    0    0    0  501 -0.00000000000E+00 -0.00000000000E+00 -0.67686944130E+03  0.67686944131E+03  0.25500000000E-02 0.  1.
    8880023    1    1    2    0    0  0.38252589509E+03 -0.48465621769E+03  0.75484564382E+03  0.11767836938E+04  0.65864270000E+03 0.  0.
    8880022    1    1    2    0    0 -0.38252589509E+03  0.48465621769E+03 -0.24878891104E+03  0.68301192159E+03  0.15294330000E+03 0.  0.
<mgrwt>
<rscale>  0 0.82712124E+03</rscale>
<asrwt>0</asrwt>
<pdfrwt beam="1">  1        2 0.18198864E+00 0.90278897E+03</pdfrwt>
<pdfrwt beam="2">  1       -2 0.10413376E+00 0.90278897E+03</pdfrwt>
<totfact> 0.14581221E+01</totfact>
</mgrwt>
</event>
<event>
 4    1  0.8468429E-007  0.7795886E+03  0.7818608E-02  0.9756804E-01
          2   -1    0    0  501    0  0.00000000000E+00  0.00000000000E+00  0.71278583727E+03  0.71278583728E+03  0.25500000000E-02 0. -1.
         -2   -1    0    0    0  501 -0.00000000000E+00 -0.00000000000E+00 -0.70274617764E+03  0.70274617765E+03  0.25500000000E-02 0.  1.
    8880023    1    1    2    0    0  0.24075086296E+03  0.34056895698E+03  0.35156462308E+03  0.85519359384E+03  0.65864270000E+03 0.  0.
    8880022    1    1    2    0    0 -0.24075086296E+03 -0.34056895698E+03 -0.34152496345E+03  0.56033842109E+03  0.15294330000E+03 0.  0.
<mgrwt>
<rscale>  0 0.67733101E+03</rscale>
<asrwt>0</asrwt>
<pdfrwt beam="1">  1        2 0.10965936E+00 0.77958861E+03</pdfrwt>
<pdfrwt beam="2">  1       -2 0.10811480E+00 0.77958861E+03</pdfrwt>
<totfact> 0.27733328E+01</totfact>
</mgrwt>
</event>
<event>
 4    1  0.8468429E-007  0.7912394E+03  0.7818608E-02  0.9730069E-01
         -2   -1    0    0    0  501 -0.00000000000E+00  0.00000000000E+00  0.51807662489E+03  0.51807662489E+03  0.25500000000E-02 0.  1.
          2   -1    0    0  501    0  0.00000000000E+00 -0.00000000000E+00 -0.84168876814E+03  0.84168876815E+03  0.25500000000E-02 0. -1.
    8880023    1    1    2    0    0 -0.11890196834E+03 -0.42203302209E+03 -0.40411987124E+03  0.88846644641E+03  0.65864270000E+03 0.  1.
    8880022    1    1    2    0    0  0.11890196834E+03  0.42203302209E+03  0.80507727984E+02  0.47129894662E+03  0.15294330000E+03 0. -1.
<mgrwt>
<rscale>  0 0.69254403E+03</rscale>
<asrwt>0</asrwt>
<pdfrwt beam="1">  1        2 0.12949058E+00 0.79123938E+03</pdfrwt>
<pdfrwt beam="2">  1       -2 0.79704097E-01 0.79123938E+03</pdfrwt>
<totfact> 0.45319479E+01</totfact>
</mgrwt>
</event>
<event>
 4    1  0.8468429E-007  0.6663461E+03  0.7818608E-02  0.1018430E+00
         -2   -1    0    0    0  501 -0.00000000000E+00  0.00000000000E+00  0.17470419059E+04  0.17470419059E+04  0.25500000000E-02 0.  1.
          2   -1    0    0  501    0  0.00000000000E+00 -0.00000000000E+00 -0.28005171226E+03  0.28005171227E+03  0.25500000000E-02 0. -1.
    8880023    1    1    2    0    0 -0.10102783996E+03  0.49214318923E+00  0.13164371378E+03  0.67922539727E+03  0.65864270000E+03 0. -1.
    8880022    1    1    2    0    0  0.10102783996E+03 -0.49214318923E+00  0.13353464798E+04  0.13478682209E+04  0.15294330000E+03 0.  0.
<mgrwt>
<rscale>  0 0.48257508E+03</rscale>
<asrwt>0</asrwt>
<pdfrwt beam="1">  1        2 0.43084879E-01 0.66634606E+03</pdfrwt>
<pdfrwt beam="2">  1       -2 0.26877568E+00 0.66634606E+03</pdfrwt>
<totfact> 0.60939119E+00</totfact>
</mgrwt>
</event>
<event>
 4    1  0.8468429E-007  0.6829954E+03  0.7818608E-02  0.1007678E+00
         -2   -1    0    0    0  501 -0.00000000000E+00  0.00000000000E+00  0.11590301700E+03  0.11590301703E+03  0.25500000000E-02 0.  1.
          2   -1    0    0  501    0  0.00000000000E+00 -0.00000000000E+00 -0.37065683674E+04  0.37065683674E+04  0.25500000000E-02 0. -1.
    8880023    1    1    2    0    0 -0.18038534042E+03 -0.11560311984E+02 -0.35046052199E+04  0.35705378398E+04  0.65864270000E+03 0.  0.
    8880022    1    1    2    0    0  0.18038534042E+03  0.11560311984E+02 -0.86060130553E+02  0.25193354468E+03  0.15294330000E+03 0.  0.
<mgrwt>
<rscale>  0 0.52408171E+03</rscale>
<asrwt>0</asrwt>
<pdfrwt beam="1">  1        2 0.57024120E+00 0.68299540E+03</pdfrwt>
<pdfrwt beam="2">  1       -2 0.17831236E-01 0.68299540E+03</pdfrwt>
<totfact> 0.16556402E+01</totfact>
</mgrwt>
</event>
<event>
 4    1  0.8468429E-007  0.8038365E+03  0.7818608E-02  0.9702561E-01
          2   -1    0    0  501    0  0.00000000000E+00  0.00000000000E+00  0.22775715972E+04  0.22775715972E+04  0.25500000000E-02 0. -1.
         -2   -1    0    0    0  501 -0.00000000000E+00 -0.00000000000E+00 -0.20363493942E+03  0.20363493943E+03  0.25500000000E-02 0.  1.
    8880023    1    1    2    0    0  0.10831240562E+03  0.44789663209E+03  0.16551591908E+04  0.18400285659E+04  0.65864270000E+03 0.  0.
    8880022    1    1    2    0    0 -0.10831240562E+03 -0.44789663209E+03  0.41877746693E+03  0.64117797066E+03  0.15294330000E+03 0.  0.
<mgrwt>
<rscale>  0 0.70864500E+03</rscale>
<asrwt>0</asrwt>
<pdfrwt beam="1">  1        2 0.35039562E+00 0.80383654E+03</pdfrwt>
<pdfrwt beam="2">  1       -2 0.31328453E-01 0.80383654E+03</pdfrwt>
<totfact> 0.45410729E+01</totfact>
</mgrwt>
</event>
<event>
 4    1  0.8468429E-007  0.1046514E+04  0.7818608E-02  0.9323084E-01
         -2   -1    0    0    0  501 -0.00000000000E+00  0.00000000000E+00  0.73105134400E+03  0.73105134401E+03  0.25500000000E-02 0.  1.
          2   -1    0    0  501    0  0.00000000000E+00 -0.00000000000E+00 -0.17637157066E+04  0.17637157066E+04  0.25500000000E-02 0. -1.
    8880023    1    1    2    0    0 -0.70260874843E+03  0.40953938544E+03 -0.12587173896E+04  0.16369365396E+04  0.65864270000E+03 0. -1.
    8880022    1    1    2    0    0  0.70260874843E+03 -0.40953938544E+03  0.22605302698E+03  0.85783051101E+03  0.15294330000E+03 0.  0.
<mgrwt>
<rscale>  0 0.98685230E+03</rscale>
<asrwt>0</asrwt>
<pdfrwt beam="1">  1        2 0.27134088E+00 0.10465141E+04</pdfrwt>
<pdfrwt beam="2">  1       -2 0.11246944E+00 0.10465141E+04</pdfrwt>
<totfact> 0.55793254E+00</totfact>
</mgrwt>
</event>
<event>
 4    1  0.8468429E-007  0.6626728E+03  0.7818608E-02  0.1021571E+00
         -2   -1    0    0    0  501 -0.00000000000E+00  0.00000000000E+00  0.31983133778E+03  0.31983133779E+03  0.25500000000E-02 0.  1.
          2   -1    0    0  501    0  0.00000000000E+00 -0.00000000000E+00 -0.13507240782E+04  0.13507240782E+04  0.25500000000E-02 0. -1.
    8880023    1    1    2    0    0 -0.14112685110E+02 -0.71594861648E+02 -0.12372472897E+04  0.14035369800E+04  0.65864270000E+03 0. -1.
    8880022    1    1    2    0    0  0.14112685110E+02  0.71594861648E+02  0.20635454932E+03  0.26701843595E+03  0.15294330000E+03 0.  0.
<mgrwt>
<rscale>  0 0.47123882E+03</rscale>
<asrwt>0</asrwt>
<pdfrwt beam="1">  1        2 0.20780370E+00 0.66267277E+03</pdfrwt>
<pdfrwt beam="2">  1       -2 0.49204822E-01 0.66267277E+03</pdfrwt>
<totfact> 0.62087554E+01</totfact>
</mgrwt>
</event>
<event>
 4    1  0.8468429E-007  0.7977442E+03  0.7818608E-02  0.9715695E-01
          2   -1    0    0  501    0  0.00000000000E+00  0.00000000000E+00  0.75755756158E+03  0.75755756158E+03  0.25500000000E-02 0. -1.
         -2   -1    0    0    0  501 -0.00000000000E+00 -0.00000000000E+00 -0.68547532923E+03  0.68547532923E+03  0.25500000000E-02 0.  1.
    8880023    1    1    2    0    0 -0.11097559212E+03 -0.43619953414E+03  0.37277574130E+03  0.88054390873E+03  0.65864270000E+03 0.  0.
    8880022    1    1    2    0    0  0.11097559212E+03  0.43619953414E+03 -0.30069350895E+03  0.56248898209E+03  0.15294330000E+03 0.  0.
<mgrwt>
<rscale>  0 0.70089964E+03</rscale>
<asrwt>0</asrwt>
<pdfrwt beam="1">  1        2 0.11654732E+00 0.79774421E+03</pdfrwt>
<pdfrwt beam="2">  1       -2 0.10545774E+00 0.79774421E+03</pdfrwt>
<totfact> 0.27187392E+01</totfact>
</mgrwt>
</event>
<event>
 4    1  0.8468429E-007  0.7926994E+03  0.7818608E-02  0.9726809E-01
          2   -1    0    0  501    0  0.00000000000E+00  0.00000000000E+00  0.95742374259E+03  0.95742374260E+03  0.25500000000E-02 0. -1.
         -2   -1    0    0    0  501 -0.00000000000E+00 -0.00000000000E+00 -0.48922390135E+03  0.48922390136E+03  0.25500000000E-02 0.  1.
    8880023    1    1    2    0    0  0.23490172887E+03 -0.37334080289E+03  0.10372705171E+02  0.79276729032E+03  0.65864270000E+03 0.  1.
    8880022    1    1    2    0    0 -0.23490172887E+03  0.37334080289E+03  0.45782713607E+03  0.65388035363E+03  0.15294330000E+03 0.  0.
<mgrwt>
<rscale>  0 0.69442760E+03</rscale>
<asrwt>0</asrwt>
<pdfrwt beam="1">  1        2 0.14729596E+00 0.79269943E+03</pdfrwt>
<pdfrwt beam="2">  1       -2 0.75265216E-01 0.79269943E+03</pdfrwt>
<totfact> 0.43025315E+01</totfact>
</mgrwt>
</event>
<event>
 4    1  0.8468429E-007  0.9939441E+03  0.7818608E-02  0.9389524E-01
          2   -1    0    0  501    0  0.00000000000E+00  0.00000000000E+00  0.28998061872E+04  0.28998061872E+04  0.25500000000E-02 0. -1.
         -2   -1    0    0    0  501 -0.00000000000E+00 -0.00000000000E+00 -0.29124465913E+03  0.29124465914E+03  0.25500000000E-02 0.  1.
    8880023    1    1    2    0    0  0.72028239159E+03  0.18790395954E+03  0.19359905195E+04  0.21762316327E+04  0.65864270000E+03 0.  0.
    8880022    1    1    2    0    0 -0.72028239159E+03 -0.18790395954E+03  0.67257100859E+03  0.10148192136E+04  0.15294330000E+03 0.  0.
<mgrwt>
<rscale>  0 0.92942864E+03</rscale>
<asrwt>0</asrwt>
<pdfrwt beam="1">  1        2 0.44612401E+00 0.99394408E+03</pdfrwt>
<pdfrwt beam="2">  1       -2 0.44806872E-01 0.99394408E+03</pdfrwt>
<totfact> 0.96974043E+00</totfact>
</mgrwt>
</event>
<event>
 4    1  0.8468429E-007  0.8600262E+03  0.7818608E-02  0.9593517E-01
          2   -1    0    0  501    0  0.00000000000E+00  0.00000000000E+00  0.43801174095E+03  0.43801174096E+03  0.25500000000E-02 0. -1.
         -2   -1    0    0    0  501 -0.00000000000E+00 -0.00000000000E+00 -0.17419141508E+04  0.17419141508E+04  0.25500000000E-02 0.  1.
    8880023    1    1    2    0    0  0.31695386622E+03 -0.45318330572E+03 -0.12534105043E+03  0.86911187259E+03  0.65864270000E+03 0. -1.
    8880022    1    1    2    0    0 -0.31695386622E+03  0.45318330572E+03 -0.11785613594E+04  0.13108140191E+04  0.15294330000E+03 0.  0.
<mgrwt>
<rscale>  0 0.77726769E+03</rscale>
<asrwt>0</asrwt>
<pdfrwt beam="1">  1        2 0.67386423E-01 0.86002620E+03</pdfrwt>
<pdfrwt beam="2">  1       -2 0.26798679E+00 0.86002620E+03</pdfrwt>
<totfact> 0.36428381E+00</totfact>
</mgrwt>
</event>
<event>
 4    1  0.8468429E-007  0.7286091E+03  0.7818608E-02  0.9894464E-01
          2   -1    0    0  501    0  0.00000000000E+00  0.00000000000E+00  0.82832338270E+03  0.82832338271E+03  0.25500000000E-02 0. -1.
         -2   -1    0    0    0  501 -0.00000000000E+00 -0.00000000000E+00 -0.35105438859E+03  0.35105438860E+03  0.25500000000E-02 0.  1.
    8880023    1    1    2    0    0  0.29584074051E+03 -0.97669027674E+02  0.36270134514E+03  0.81389400707E+03  0.65864270000E+03 0.  0.
    8880022    1    1    2    0    0 -0.29584074051E+03  0.97669027674E+02  0.11456764898E+03  0.36548376424E+03  0.15294330000E+03 0. -1.
<mgrwt>
<rscale>  0 0.60530320E+03</rscale>
<asrwt>0</asrwt>
<pdfrwt beam="1">  1        2 0.12743437E+00 0.72860908E+03</pdfrwt>
<pdfrwt beam="2">  1       -2 0.54008368E-01 0.72860908E+03</pdfrwt>
<totfact> 0.10759502E+02</totfact>
</mgrwt>
</event>
<event>
 4    1  0.8468429E-007  0.6598380E+03  0.7818608E-02  0.1024323E+00
         -2   -1    0    0    0  501 -0.00000000000E+00  0.00000000000E+00  0.86403878435E+02  0.86403878472E+02  0.25500000000E-02 0.  1.
          2   -1    0    0  501    0  0.00000000000E+00 -0.00000000000E+00 -0.39921684634E+04  0.39921684634E+04  0.25500000000E-02 0. -1.
    8880023    1    1    2    0    0 -0.32594939868E+02 -0.22662291011E+02 -0.38572503772E+04  0.39132808088E+04  0.65864270000E+03 0. -1.
    8880022    1    1    2    0    0  0.32594939868E+02  0.22662291011E+02 -0.48514207722E+02  0.16529153307E+03  0.15294330000E+03 0.  0.
<mgrwt>
<rscale>  0 0.46158346E+03</rscale>
<asrwt>0</asrwt>
<pdfrwt beam="1">  1        2 0.61417962E+00 0.65983802E+03</pdfrwt>
<pdfrwt beam="2">  1       -2 0.13292907E-01 0.65983802E+03</pdfrwt>
<totfact> 0.16707633E+01</totfact>
</mgrwt>
</event>
<event>
 4    1  0.8468429E-007  0.8073057E+03  0.7818608E-02  0.9695217E-01
          2   -1    0    0  501    0  0.00000000000E+00  0.00000000000E+00  0.18035508588E+04  0.18035508588E+04  0.25500000000E-02 0. -1.
         -2   -1    0    0    0  501 -0.00000000000E+00 -0.00000000000E+00 -0.40483952047E+03  0.40483952048E+03  0.25500000000E-02 0.  1.
    8880023    1    1    2    0    0  0.12576055547E+02 -0.46666275612E+03  0.15030943056E+04  0.17061755428E+04  0.65864270000E+03 0.  0.
    8880022    1    1    2    0    0 -0.12576055547E+02  0.46666275612E+03 -0.10438296724E+03  0.50221483649E+03  0.15294330000E+03 0.  0.
<mgrwt>
<rscale>  0 0.71302304E+03</rscale>
<asrwt>0</asrwt>
<pdfrwt beam="1">  1        2 0.27746937E+00 0.80730570E+03</pdfrwt>
<pdfrwt beam="2">  1       -2 0.62283002E-01 0.80730570E+03</pdfrwt>
<totfact> 0.21007694E+01</totfact>
</mgrwt>
</event>
<event>
 4    1  0.8468429E-007  0.7488901E+03  0.7818608E-02  0.9834769E-01
          2   -1    0    0  501    0  0.00000000000E+00  0.00000000000E+00  0.17631048922E+04  0.17631048922E+04  0.25500000000E-02 0. -1.
         -2   -1    0    0    0  501 -0.00000000000E+00 -0.00000000000E+00 -0.18790704060E+03  0.18790704061E+03  0.25500000000E-02 0.  1.
    8880023    1    1    2    0    0 -0.34770562517E+03  0.78274741387E+02  0.11778026289E+04  0.13957275435E+04  0.65864270000E+03 0.  0.
    8880022    1    1    2    0    0  0.34770562517E+03 -0.78274741387E+02  0.39739522271E+03  0.55528438927E+03  0.15294330000E+03 0.  0.
<mgrwt>
<rscale>  0 0.63529576E+03</rscale>
<asrwt>0</asrwt>
<pdfrwt beam="1">  1        2 0.27124690E+00 0.74889007E+03</pdfrwt>
<pdfrwt beam="2">  1       -2 0.28908777E-01 0.74889007E+03</pdfrwt>
<totfact> 0.10153696E+02</totfact>
</mgrwt>
</event>
<event>
 4    1  0.8468429E-007  0.9412281E+03  0.7818608E-02  0.9462849E-01
          2   -1    0    0  501    0  0.00000000000E+00  0.00000000000E+00  0.16645508893E+04  0.16645508893E+04  0.25500000000E-02 0. -1.
         -2   -1    0    0    0  501 -0.00000000000E+00 -0.00000000000E+00 -0.58577199954E+03  0.58577199954E+03  0.25500000000E-02 0.  1.
    8880023    1    1    2    0    0 -0.10939999889E+03 -0.66342429624E+03 -0.33289815732E+02  0.94181663538E+03  0.65864270000E+03 0. -1.
    8880022    1    1    2    0    0  0.10939999889E+03  0.66342429624E+03  0.11120687055E+04  0.13085062535E+04  0.15294330000E+03 0.  0.
<mgrwt>
<rscale>  0 0.87079123E+03</rscale>
<asrwt>0</asrwt>
<pdfrwt beam="1">  1        2 0.25608475E+00 0.94122811E+03</pdfrwt>
<pdfrwt beam="2">  1       -2 0.90118769E-01 0.94122811E+03</pdfrwt>
<totfact> 0.10854796E+01</totfact>
</mgrwt>
</event>
<event>
 4    1  0.8468429E-007  0.7044207E+03  0.7818608E-02  0.9979334E-01
          2   -1    0    0  501    0  0.00000000000E+00  0.00000000000E+00  0.74829867118E+03  0.74829867118E+03  0.25500000000E-02 0. -1.
         -2   -1    0    0    0  501 -0.00000000000E+00 -0.00000000000E+00 -0.37257178985E+03  0.37257178986E+03  0.25500000000E-02 0.  1.
    8880023    1    1    2    0    0  0.17606624276E+03  0.17719744939E+03  0.42668636421E+03  0.82357131906E+03  0.65864270000E+03 0.  0.
    8880022    1    1    2    0    0 -0.17606624276E+03 -0.17719744939E+03 -0.50959482889E+02  0.29729914198E+03  0.15294330000E+03 0.  0.
<mgrwt>
<rscale>  0 0.56565755E+03</rscale>
<asrwt>0</asrwt>
<pdfrwt beam="1">  1        2 0.11512287E+00 0.70442066E+03</pdfrwt>
<pdfrwt beam="2">  1       -2 0.57318738E-01 0.70442066E+03</pdfrwt>
<totfact> 0.10884994E+02</totfact>
</mgrwt>
</event>
<event>
 4    1  0.8468429E-007  0.8106370E+03  0.7818608E-02  0.9688252E-01
          2   -1    0    0  501    0  0.00000000000E+00  0.00000000000E+00  0.13038488874E+04  0.13038488874E+04  0.25500000000E-02 0. -1.
         -2   -1    0    0    0  501 -0.00000000000E+00 -0.00000000000E+00 -0.43988563156E+03  0.43988563157E+03  0.25500000000E-02 0.  1.
    8880023    1    1    2    0    0 -0.40951297623E+03  0.23584162111E+03  0.93998120628E+03  0.12412481711E+04  0.65864270000E+03 0.  0.
    8880022    1    1    2    0    0  0.40951297623E+03 -0.23584162111E+03 -0.76017950448E+02  0.50248634782E+03  0.15294330000E+03 0.  0.
<mgrwt>
<rscale>  0 0.71720614E+03</rscale>
<asrwt>0</asrwt>
<pdfrwt beam="1">  1        2 0.20059214E+00 0.81063701E+03</pdfrwt>
<pdfrwt beam="2">  1       -2 0.67674713E-01 0.81063701E+03</pdfrwt>
<totfact> 0.33358639E+01</totfact>
</mgrwt>
</event>
<event>
 4    1  0.8468429E-007  0.7706867E+03  0.7818608E-02  0.9778187E-01
         -2   -1    0    0    0  501 -0.00000000000E+00  0.00000000000E+00  0.24829473278E+03  0.24829473279E+03  0.25500000000E-02 0.  1.
          2   -1    0    0  501    0  0.00000000000E+00 -0.00000000000E+00 -0.26408154169E+04  0.26408154169E+04  0.25500000000E-02 0. -1.
    8880023    1    1    2    0    0  0.27885732421E+03 -0.28703020783E+03 -0.23324831524E+04  0.24565088255E+04  0.65864270000E+03 0. -1.
    8880022    1    1    2    0    0 -0.27885732421E+03  0.28703020783E+03 -0.60037531788E+02  0.43260132421E+03  0.15294330000E+03 0.  0.
<mgrwt>
<rscale>  0 0.66546398E+03</rscale>
<asrwt>0</asrwt>
<pdfrwt beam="1">  1        2 0.40627928E+00 0.77068668E+03</pdfrwt>
<pdfrwt beam="2">  1       -2 0.38199192E-01 0.77068668E+03</pdfrwt>
<totfact> 0.19490086E+01</totfact>
</mgrwt>
</event>
<event>
 4    1  0.8468429E-007  0.6780662E+03  0.7818608E-02  0.1010439E+00
         -2   -1    0    0    0  501 -0.00000000000E+00  0.00000000000E+00  0.45902509634E+03  0.45902509634E+03  0.25500000000E-02 0.  1.
          2   -1    0    0  501    0  0.00000000000E+00 -0.00000000000E+00 -0.16858902570E+04  0.16858902570E+04  0.25500000000E-02 0. -1.
    8880023    1    1    2    0    0 -0.15004622969E+03 -0.58734008022E+02 -0.15847297443E+04  0.17237001258E+04  0.65864270000E+03 0. -1.
    8880022    1    1    2    0    0  0.15004622969E+03  0.58734008022E+02  0.35786458363E+03  0.42121522761E+03  0.15294330000E+03 0.  0.
<mgrwt>
<rscale>  0 0.51300393E+03</rscale>
<asrwt>0</asrwt>
<pdfrwt beam="1">  1        2 0.25936773E+00 0.67806619E+03</pdfrwt>
<pdfrwt beam="2">  1       -2 0.70619246E-01 0.67806619E+03</pdfrwt>
<totfact> 0.18895893E+01</totfact>
</mgrwt>
</event>
<event>
 4    1  0.8468429E-007  0.7231377E+03  0.7818608E-02  0.9912109E-01
         -2   -1    0    0    0  501 -0.00000000000E+00  0.00000000000E+00  0.24407011657E+03  0.24407011659E+03  0.25500000000E-02 0.  1.
          2   -1    0    0  501    0  0.00000000000E+00 -0.00000000000E+00 -0.30712270892E+04  0.30712270892E+04  0.25500000000E-02 0. -1.
    8880023    1    1    2    0    0  0.43721879666E+02  0.29530709241E+03 -0.28855904509E+04  0.29748210598E+04  0.65864270000E+03 0. -1.
    8880022    1    1    2    0    0 -0.43721879666E+02 -0.29530709241E+03  0.58433478225E+02  0.34047614598E+03  0.15294330000E+03 0.  0.
<mgrwt>
<rscale>  0 0.59678020E+03</rscale>
<asrwt>0</asrwt>
<pdfrwt beam="1">  1        2 0.47249645E+00 0.72313767E+03</pdfrwt>
<pdfrwt beam="2">  1       -2 0.37549251E-01 0.72313767E+03</pdfrwt>
<totfact> 0.11236512E+01</totfact>
</mgrwt>
</event>
<event>
 4    1  0.8468429E-007  0.6721456E+03  0.7818608E-02  0.1014169E+00
         -2   -1    0    0    0  501 -0.00000000000E+00  0.00000000000E+00  0.19700156277E+03  0.19700156279E+03  0.25500000000E-02 0.  1.
          2   -1    0    0  501    0  0.00000000000E+00 -0.00000000000E+00 -0.20190178195E+04  0.20190178195E+04  0.25500000000E-02 0. -1.
    8880023    1    1    2    0    0  0.18729355843E+01 -0.13403731223E+03 -0.18865024949E+04  0.20026660676E+04  0.65864270000E+03 0.  0.
    8880022    1    1    2    0    0 -0.18729355843E+01  0.13403731223E+03  0.64486238147E+02  0.21335331467E+03  0.15294330000E+03 0.  1.
<mgrwt>
<rscale>  0 0.49850741E+03</rscale>
<asrwt>0</asrwt>
<pdfrwt beam="1">  1        2 0.31061811E+00 0.67214561E+03</pdfrwt>
<pdfrwt beam="2">  1       -2 0.30307934E-01 0.67214561E+03</pdfrwt>
<totfact> 0.68090994E+01</totfact>
</mgrwt>
</event>
<event>
 4    1  0.1486982E-006  0.6976995E+03  0.7818608E-02  0.1000688E+00
         -2   -1    0    0    0  501 -0.00000000000E+00  0.00000000000E+00  0.18671695609E+04  0.18671695609E+04  0.25500000000E-02 0.  1.
          2   -1    0    0  501    0  0.00000000000E+00 -0.00000000000E+00 -0.12759958750E+04  0.12759958750E+04  0.25500000000E-02 0. -1.
    8880023    1    1    2    0    0  0.11694179663E+03  0.19823974218E+03 -0.11690296161E+04  0.13614017882E+04  0.65864270000E+03 0. -1.
    8880022    1    1    2    0    0 -0.11694179663E+03 -0.19823974218E+03  0.17602033020E+04  0.17817636478E+04  0.15294330000E+03 0.  0.
<mgrwt>
<rscale>  0 0.55349517E+03</rscale>
<asrwt>0</asrwt>
<pdfrwt beam="1">  1        2 0.19630706E+00 0.69769950E+03</pdfrwt>
<pdfrwt beam="2">  1       -2 0.28725686E+00 0.69769950E+03</pdfrwt>
<totfact> 0.68772413E-01</totfact>
</mgrwt>
</event>
<event>
 4    1  0.8468429E-007  0.6956600E+03  0.7818608E-02  0.1001570E+00
         -2   -1    0    0    0  501 -0.00000000000E+00  0.00000000000E+00  0.13448304429E+03  0.13448304431E+03  0.25500000000E-02 0.  1.
          2   -1    0    0  501    0  0.00000000000E+00 -0.00000000000E+00 -0.25233851177E+04  0.25233851177E+04  0.25500000000E-02 0. -1.
    8880023    1    1    2    0    0 -0.11322941637E+03  0.19316257321E+03 -0.22461954440E+04  0.23514542009E+04  0.65864270000E+03 0. -1.
    8880022    1    1    2    0    0  0.11322941637E+03 -0.19316257321E+03 -0.14270662941E+03  0.30641396102E+03  0.15294330000E+03 0.  0.
<mgrwt>
<rscale>  0 0.54966955E+03</rscale>
<asrwt>0</asrwt>
<pdfrwt beam="1">  1        2 0.38821306E+00 0.69566004E+03</pdfrwt>
<pdfrwt beam="2">  1       -2 0.20689701E-01 0.69566004E+03</pdfrwt>
<totfact> 0.71042320E+01</totfact>
</mgrwt>
</event>
<event>
 4    1  0.8468429E-007  0.6714069E+03  0.7818608E-02  0.1014674E+00
         -2   -1    0    0    0  501 -0.00000000000E+00  0.00000000000E+00  0.33200563857E+03  0.33200563858E+03  0.25500000000E-02 0.  1.
          2   -1    0    0  501    0  0.00000000000E+00 -0.00000000000E+00 -0.10688928909E+04  0.10688928909E+04  0.25500000000E-02 0. -1.
    8880023    1    1    2    0    0 -0.24145579564E+02 -0.12803886945E+03 -0.91329056311E+03  0.11335284822E+04  0.65864270000E+03 0. -1.
    8880022    1    1    2    0    0  0.24145579564E+02  0.12803886945E+03  0.17640331077E+03  0.26737004725E+03  0.15294330000E+03 0.  0.
<mgrwt>
<rscale>  0 0.49658639E+03</rscale>
<asrwt>0</asrwt>
<pdfrwt beam="1">  1        2 0.16444506E+00 0.67140686E+03</pdfrwt>
<pdfrwt beam="2">  1       -2 0.51077791E-01 0.67140686E+03</pdfrwt>
<totfact> 0.84285173E+01</totfact>
</mgrwt>
</event>
<event>
 4    1  0.8468429E-007  0.7042613E+03  0.7818608E-02  0.9979962E-01
          2   -1    0    0  501    0  0.00000000000E+00  0.00000000000E+00  0.10987588341E+04  0.10987588341E+04  0.25500000000E-02 0. -1.
         -2   -1    0    0    0  501 -0.00000000000E+00 -0.00000000000E+00 -0.48452227821E+03  0.48452227821E+03  0.25500000000E-02 0.  1.
    8880023    1    1    2    0    0 -0.10637687095E+03  0.22551662982E+03  0.92099989349E+03  0.11594070895E+04  0.65864270000E+03 0.  0.
    8880022    1    1    2    0    0  0.10637687095E+03 -0.22551662982E+03 -0.30676333757E+03  0.42387402290E+03  0.15294330000E+03 0.  0.
<mgrwt>
<rscale>  0 0.56537640E+03</rscale>
<asrwt>0</asrwt>
<pdfrwt beam="1">  1        2 0.16903982E+00 0.70426131E+03</pdfrwt>
<pdfrwt beam="2">  1       -2 0.74541890E-01 0.70426131E+03</pdfrwt>
<totfact> 0.36095473E+01</totfact>
</mgrwt>
</event>
<event>
 4    1  0.8468429E-007  0.6846672E+03  0.7818608E-02  0.1006798E+00
          2   -1    0    0  501    0  0.00000000000E+00  0.00000000000E+00  0.18519443844E+04  0.18519443844E+04  0.25500000000E-02 0. -1.
         -2   -1    0    0    0  501 -0.00000000000E+00 -0.00000000000E+00 -0.13719398961E+03  0.13719398963E+03  0.25500000000E-02 0.  1.
    8880023    1    1    2    0    0  0.76324024103E+02  0.17068561521E+03  0.15563060589E+04  0.17002522434E+04  0.65864270000E+03 0. -1.
    8880022    1    1    2    0    0 -0.76324024103E+02 -0.17068561521E+03  0.15844433590E+03  0.28888613066E+03  0.15294330000E+03 0.  0.
<mgrwt>
<rscale>  0 0.52767350E+03</rscale>
<asrwt>0</asrwt>
<pdfrwt beam="1">  1        2 0.28491450E+00 0.68466718E+03</pdfrwt>
<pdfrwt beam="2">  1       -2 0.21106769E-01 0.68466718E+03</pdfrwt>
<totfact> 0.16106234E+02</totfact>
</mgrwt>
</event>
<event>
 4    1  0.8468429E-007  0.7040320E+03  0.7818608E-02  0.9980869E-01
          2   -1    0    0  501    0  0.00000000000E+00  0.00000000000E+00  0.90037824928E+03  0.90037824929E+03  0.25500000000E-02 0. -1.
         -2   -1    0    0    0  501 -0.00000000000E+00 -0.00000000000E+00 -0.60279409193E+03  0.60279409193E+03  0.25500000000E-02 0.  1.
    8880023    1    1    2    0    0 -0.14159927012E+03  0.20445162193E+03  0.70868281833E+03  0.99894562528E+03  0.65864270000E+03 0. -1.
    8880022    1    1    2    0    0  0.14159927012E+03 -0.20445162193E+03 -0.41109866097E+03  0.50422671594E+03  0.15294330000E+03 0.  0.
<mgrwt>
<rscale>  0 0.56497118E+03</rscale>
<asrwt>0</asrwt>
<pdfrwt beam="1">  1        2 0.13851973E+00 0.70403198E+03</pdfrwt>
<pdfrwt beam="2">  1       -2 0.92737553E-01 0.70403198E+03</pdfrwt>
<totfact> 0.29457731E+01</totfact>
</mgrwt>
</event>
<event>
 4    1  0.8468429E-007  0.9463635E+03  0.7818608E-02  0.9455366E-01
          2   -1    0    0  501    0  0.00000000000E+00  0.00000000000E+00  0.28699437811E+04  0.28699437811E+04  0.25500000000E-02 0. -1.
         -2   -1    0    0    0  501 -0.00000000000E+00 -0.00000000000E+00 -0.68008403175E+03  0.68008403176E+03  0.25500000000E-02 0.  1.
    8880023    1    1    2    0    0 -0.44015348843E+03  0.51774373452E+03  0.25824964624E+04  0.27504348479E+04  0.65864270000E+03 0. -1.
    8880022    1    1    2    0    0  0.44015348843E+03 -0.51774373452E+03 -0.39263671311E+03  0.79959296490E+03  0.15294330000E+03 0.  0.
<mgrwt>
<rscale>  0 0.87656059E+03</rscale>
<asrwt>0</asrwt>
<pdfrwt beam="1">  1        2 0.44152981E+00 0.94636350E+03</pdfrwt>
<pdfrwt beam="2">  1       -2 0.10462831E+00 0.94636350E+03</pdfrwt>
<totfact> 0.15928240E+00</totfact>
</mgrwt>
</event>
<event>
 4    1  0.8468429E-007  0.9008877E+03  0.7818608E-02  0.9524608E-01
         -2   -1    0    0    0  501 -0.00000000000E+00  0.00000000000E+00  0.38009031504E+03  0.38009031505E+03  0.25500000000E-02 0.  1.
          2   -1    0    0  501    0  0.00000000000E+00 -0.00000000000E+00 -0.27645271983E+04  0.27645271983E+04  0.25500000000E-02 0. -1.
    8880023    1    1    2    0    0 -0.35677806649E+03  0.50049762639E+03 -0.23425933503E+04  0.25098490540E+04  0.65864270000E+03 0. -1.
    8880022    1    1    2    0    0  0.35677806649E+03 -0.50049762639E+03 -0.41843532985E+02  0.63476845938E+03  0.15294330000E+03 0.  0.
<mgrwt>
<rscale>  0 0.82493631E+03</rscale>
<asrwt>0</asrwt>
<pdfrwt beam="1">  1        2 0.42531186E+00 0.90088771E+03</pdfrwt>
<pdfrwt beam="2">  1       -2 0.58475435E-01 0.90088771E+03</pdfrwt>
<totfact> 0.68529902E+00</totfact>
</mgrwt>
</event>
<event>
 4    1  0.8468429E-007  0.6913097E+03  0.7818608E-02  0.1003536E+00
         -2   -1    0    0    0  501 -0.00000000000E+00  0.00000000000E+00  0.37832430716E+03  0.37832430717E+03  0.25500000000E-02 0.  1.
          2   -1    0    0  501    0  0.00000000000E+00 -0.00000000000E+00 -0.65484995545E+03  0.65484995546E+03  0.25500000000E-02 0. -1.
    8880023    1    1    2    0    0  0.55624221287E+02 -0.20249642066E+03 -0.33297778553E+03  0.76732213984E+03  0.65864270000E+03 0. -1.
    8880022    1    1    2    0    0 -0.55624221287E+02  0.20249642066E+03  0.56452137247E+02  0.26585212278E+03  0.15294330000E+03 0.  0.
<mgrwt>
<rscale>  0 0.54126483E+03</rscale>
<asrwt>0</asrwt>
<pdfrwt beam="1">  1        2 0.10074615E+00 0.69130967E+03</pdfrwt>
<pdfrwt beam="2">  1       -2 0.58203739E-01 0.69130967E+03</pdfrwt>
<totfact> 0.12481810E+02</totfact>
</mgrwt>
</event>
<event>
 4    1  0.8468429E-007  0.8087586E+03  0.7818608E-02  0.9692169E-01
         -2   -1    0    0    0  501 -0.00000000000E+00  0.00000000000E+00  0.45071884017E+03  0.45071884018E+03  0.25500000000E-02 0.  1.
          2   -1    0    0  501    0  0.00000000000E+00 -0.00000000000E+00 -0.19827263303E+04  0.19827263303E+04  0.25500000000E-02 0. -1.
    8880023    1    1    2    0    0 -0.61767513278E+02 -0.46525806490E+03 -0.17236178247E+04  0.19039298581E+04  0.65864270000E+03 0. -1.
    8880022    1    1    2    0    0  0.61767513278E+02  0.46525806490E+03  0.19161033462E+03  0.52951531234E+03  0.15294330000E+03 0.  0.
<mgrwt>
<rscale>  0 0.71484993E+03</rscale>
<asrwt>0</asrwt>
<pdfrwt beam="1">  1        2 0.30503481E+00 0.80875862E+03</pdfrwt>
<pdfrwt beam="2">  1       -2 0.69341361E-01 0.80875862E+03</pdfrwt>
<totfact> 0.13301137E+01</totfact>
</mgrwt>
</event>
<event>
 4    1  0.8468429E-007  0.6777098E+03  0.7818608E-02  0.1010650E+00
         -2   -1    0    0    0  501 -0.00000000000E+00  0.00000000000E+00  0.26204794696E+03  0.26204794697E+03  0.25500000000E-02 0.  1.
          2   -1    0    0  501    0  0.00000000000E+00 -0.00000000000E+00 -0.16432323593E+04  0.16432323594E+04  0.25500000000E-02 0. -1.
    8880023    1    1    2    0    0 -0.15960298813E+03 -0.26808722792E+01 -0.15059619439E+04  0.16514272262E+04  0.65864270000E+03 0. -1.
    8880022    1    1    2    0    0  0.15960298813E+03  0.26808722792E+01  0.12477753148E+03  0.25385308009E+03  0.15294330000E+03 0.  0.
<mgrwt>
<rscale>  0 0.51217133E+03</rscale>
<asrwt>0</asrwt>
<pdfrwt beam="1">  1        2 0.25280497E+00 0.67770975E+03</pdfrwt>
<pdfrwt beam="2">  1       -2 0.40315070E-01 0.67770975E+03</pdfrwt>
<totfact> 0.63330489E+01</totfact>
</mgrwt>
</event>
<event>
 4    1  0.8468429E-007  0.8347729E+03  0.7818608E-02  0.9640116E-01
         -2   -1    0    0    0  501 -0.00000000000E+00  0.00000000000E+00  0.64994210180E+03  0.64994210180E+03  0.25500000000E-02 0.  1.
          2   -1    0    0  501    0  0.00000000000E+00 -0.00000000000E+00 -0.76919375202E+03  0.76919375202E+03  0.25500000000E-02 0. -1.
    8880023    1    1    2    0    0 -0.28314579906E+03  0.42762603861E+03 -0.24379919032E+03  0.86964580370E+03  0.65864270000E+03 0.  0.
    8880022    1    1    2    0    0  0.28314579906E+03 -0.42762603861E+03  0.12454754010E+03  0.54949005012E+03  0.15294330000E+03 0.  0.
<mgrwt>
<rscale>  0 0.74696979E+03</rscale>
<asrwt>0</asrwt>
<pdfrwt beam="1">  1        2 0.11833750E+00 0.83477289E+03</pdfrwt>
<pdfrwt beam="2">  1       -2 0.99991093E-01 0.83477289E+03</pdfrwt>
<totfact> 0.30179880E+01</totfact>
</mgrwt>
</event>
<event>
 4    1  0.8468429E-007  0.7889957E+03  0.7818608E-02  0.9735115E-01
         -2   -1    0    0    0  501 -0.00000000000E+00  0.00000000000E+00  0.65088718929E+03  0.65088718929E+03  0.25500000000E-02 0.  1.
          2   -1    0    0  501    0  0.00000000000E+00 -0.00000000000E+00 -0.99180702792E+03  0.99180702793E+03  0.25500000000E-02 0. -1.
    8880023    1    1    2    0    0  0.33487301061E+03  0.27670201503E+03  0.30798173534E+03  0.84697514363E+03  0.65864270000E+03 0.  0.
    8880022    1    1    2    0    0 -0.33487301061E+03 -0.27670201503E+03 -0.64890157397E+03  0.79571907359E+03  0.15294330000E+03 0.  0.
<mgrwt>
<rscale>  0 0.68963995E+03</rscale>
<asrwt>0</asrwt>
<pdfrwt beam="1">  1        2 0.15258570E+00 0.78899566E+03</pdfrwt>
<pdfrwt beam="2">  1       -2 0.10013649E+00 0.78899566E+03</pdfrwt>
<totfact> 0.21252715E+01</totfact>
</mgrwt>
</event>
<event>
 4    1  0.8468429E-007  0.6682894E+03  0.7818608E-02  0.1016920E+00
         -2   -1    0    0    0  501 -0.00000000000E+00  0.00000000000E+00  0.13627193869E+03  0.13627193871E+03  0.25500000000E-02 0.  1.
          2   -1    0    0  501    0  0.00000000000E+00 -0.00000000000E+00 -0.24663575296E+04  0.24663575296E+04  0.25500000000E-02 0. -1.
    8880023    1    1    2    0    0  0.10640160599E+03  0.38460151296E+02 -0.23175436946E+04  0.24119741847E+04  0.65864270000E+03 0. -1.
    8880022    1    1    2    0    0 -0.10640160599E+03 -0.38460151296E+02 -0.12541896312E+02  0.19065528362E+03  0.15294330000E+03 0.  0.
<mgrwt>
<rscale>  0 0.48814652E+03</rscale>
<asrwt>0</asrwt>
<pdfrwt beam="1">  1        2 0.37943959E+00 0.66828938E+03</pdfrwt>
<pdfrwt beam="2">  1       -2 0.20964915E-01 0.66828938E+03</pdfrwt>
<totfact> 0.75041197E+01</totfact>
</mgrwt>
</event>
<event>
 4    1  0.8468429E-007  0.8455227E+03  0.7818608E-02  0.9619853E-01
         -2   -1    0    0    0  501 -0.00000000000E+00  0.00000000000E+00  0.34073851294E+03  0.34073851295E+03  0.25500000000E-02 0.  1.
          2   -1    0    0  501    0  0.00000000000E+00 -0.00000000000E+00 -0.22730722589E+04  0.22730722589E+04  0.25500000000E-02 0. -1.
    8880023    1    1    2    0    0  0.44827253045E+03  0.28310818639E+03 -0.18777230436E+04  0.20593087533E+04  0.65864270000E+03 0. -1.
    8880022    1    1    2    0    0 -0.44827253045E+03 -0.28310818639E+03 -0.54610702396E+02  0.55450201856E+03  0.15294330000E+03 0.  0.
<mgrwt>
<rscale>  0 0.75995982E+03</rscale>
<asrwt>0</asrwt>
<pdfrwt beam="1">  1        2 0.34970341E+00 0.84552275E+03</pdfrwt>
<pdfrwt beam="2">  1       -2 0.52421311E-01 0.84552275E+03</pdfrwt>
<totfact> 0.16562239E+01</totfact>
</mgrwt>
</event>
<event>
 4    1  0.8468429E-007  0.8026040E+03  0.7818608E-02  0.9705194E-01
          2   -1    0    0  501    0  0.00000000000E+00  0.00000000000E+00  0.78554379571E+03  0.78554379571E+03  0.25500000000E-02 0. -1.
         -2   -1    0    0    0  501 -0.00000000000E+00 -0.00000000000E+00 -0.64377954902E+03  0.64377954902E+03  0.25500000000E-02 0.  1.
    8880023    1    1    2    0    0 -0.45851887884E+03 -0.11108246745E+02  0.38265291776E+03  0.88915488928E+03  0.65864270000E+03 0.  0.
    8880022    1    1    2    0    0  0.45851887884E+03  0.11108246745E+02 -0.24088867107E+03  0.54016845545E+03  0.15294330000E+03 0.  0.
<mgrwt>
<rscale>  0 0.70708400E+03</rscale>
<asrwt>0</asrwt>
<pdfrwt beam="1">  1        2 0.12085289E+00 0.80260399E+03</pdfrwt>
<pdfrwt beam="2">  1       -2 0.99043007E-01 0.80260399E+03</pdfrwt>
<totfact> 0.30104459E+01</totfact>
</mgrwt>
</event>
<event>
 4    1  0.8468429E-007  0.9812140E+03  0.7818608E-02  0.9406559E-01
         -2   -1    0    0    0  501 -0.00000000000E+00  0.00000000000E+00  0.75138713713E+03  0.75138713714E+03  0.25500000000E-02 0.  1.
          2   -1    0    0  501    0  0.00000000000E+00 -0.00000000000E+00 -0.14195425685E+04  0.14195425685E+04  0.25500000000E-02 0. -1.
    8880023    1    1    2    0    0  0.68280104550E+03  0.25050620038E+03 -0.95975952275E+03  0.13725593510E+04  0.65864270000E+03 0.  0.
    8880022    1    1    2    0    0 -0.68280104550E+03 -0.25050620038E+03  0.29160409135E+03  0.79837035470E+03  0.15294330000E+03 0.  0.
<mgrwt>
<rscale>  0 0.91537867E+03</rscale>
<asrwt>0</asrwt>
<pdfrwt beam="1">  1        2 0.21839116E+00 0.98121396E+03</pdfrwt>
<pdfrwt beam="2">  1       -2 0.11559802E+00 0.98121396E+03</pdfrwt>
<totfact> 0.81759937E+00</totfact>
</mgrwt>
</event>
<event>
 4    1  0.8468429E-007  0.6838334E+03  0.7818608E-02  0.1007233E+00
          2   -1    0    0  501    0  0.00000000000E+00  0.00000000000E+00  0.32429427386E+03  0.32429427387E+03  0.25500000000E-02 0. -1.
         -2   -1    0    0    0  501 -0.00000000000E+00 -0.00000000000E+00 -0.75265880150E+03  0.75265880151E+03  0.25500000000E-02 0.  1.
    8880023    1    1    2    0    0  0.12692311641E+03 -0.13307311480E+03 -0.13259009389E+03  0.69656892740E+03  0.65864270000E+03 0.  0.
    8880022    1    1    2    0    0 -0.12692311641E+03  0.13307311480E+03 -0.29577443374E+03  0.38038414798E+03  0.15294330000E+03 0. -1.
<mgrwt>
<rscale>  0 0.52589173E+03</rscale>
<asrwt>0</asrwt>
<pdfrwt beam="1">  1        2 0.49891427E-01 0.68383341E+03</pdfrwt>
<pdfrwt beam="2">  1       -2 0.11579366E+00 0.68383341E+03</pdfrwt>
<totfact> 0.59195882E+01</totfact>
</mgrwt>
</event>
<event>
 4    1  0.8468429E-007  0.1125949E+04  0.7818608E-02  0.9232701E-01
          2   -1    0    0  501    0  0.00000000000E+00  0.00000000000E+00  0.36744794721E+04  0.36744794721E+04  0.25500000000E-02 0. -1.
         -2   -1    0    0    0  501 -0.00000000000E+00 -0.00000000000E+00 -0.39315769183E+03  0.39315769184E+03  0.25500000000E-02 0.  1.
    8880023    1    1    2    0    0  0.14002782089E+03 -0.90240941498E+03  0.28130825202E+04  0.30300485169E+04  0.65864270000E+03 0. -1.
    8880022    1    1    2    0    0 -0.14002782089E+03  0.90240941498E+03  0.46823926007E+03  0.10375886471E+04  0.15294330000E+03 0.  0.
<mgrwt>
<rscale>  0 0.10722184E+04</rscale>
<asrwt>0</asrwt>
<pdfrwt beam="1">  1        2 0.56530455E+00 0.11259488E+04</pdfrwt>
<pdfrwt beam="2">  1       -2 0.60485797E-01 0.11259488E+04</pdfrwt>
<totfact> 0.15854539E+00</totfact>
</mgrwt>
</event>
<event>
 4    1  0.8468429E-007  0.9514301E+03  0.7818608E-02  0.9448059E-01
          2   -1    0    0  501    0  0.00000000000E+00  0.00000000000E+00  0.19829426912E+04  0.19829426912E+04  0.25500000000E-02 0. -1.
         -2   -1    0    0    0  501 -0.00000000000E+00 -0.00000000000E+00 -0.67470433525E+03  0.67470433526E+03  0.25500000000E-02 0.  1.
    8880023    1    1    2    0    0 -0.61372455738E+03 -0.30781689607E+03 -0.21890497263E+03  0.97628820906E+03  0.65864270000E+03 0.  1.
    8880022    1    1    2    0    0  0.61372455738E+03  0.30781689607E+03  0.15271433286E+04  0.16813588174E+04  0.15294330000E+03 0.  0.
<mgrwt>
<rscale>  0 0.88223943E+03</rscale>
<asrwt>0</asrwt>
<pdfrwt beam="1">  1        2 0.30506810E+00 0.95143012E+03</pdfrwt>
<pdfrwt beam="2">  1       -2 0.10380067E+00 0.95143012E+03</pdfrwt>
<totfact> 0.51913076E+00</totfact>
</mgrwt>
</event>
<event>
 4    1  0.8468429E-007  0.8217170E+03  0.7818608E-02  0.9665669E-01
          2   -1    0    0  501    0  0.00000000000E+00  0.00000000000E+00  0.11869558252E+04  0.11869558252E+04  0.25500000000E-02 0. -1.
         -2   -1    0    0    0  501 -0.00000000000E+00 -0.00000000000E+00 -0.63299290891E+03  0.63299290891E+03  0.25500000000E-02 0.  1.
    8880023    1    1    2    0    0  0.30840677859E+03 -0.38248381969E+03  0.88532768926E+03  0.12079006321E+04  0.65864270000E+03 0. -1.
    8880022    1    1    2    0    0 -0.30840677859E+03  0.38248381969E+03 -0.33136477296E+03  0.61204810202E+03  0.15294330000E+03 0.  0.
<mgrwt>
<rscale>  0 0.73098170E+03</rscale>
<asrwt>0</asrwt>
<pdfrwt beam="1">  1        2 0.18260859E+00 0.82171699E+03</pdfrwt>
<pdfrwt beam="2">  1       -2 0.97383526E-01 0.82171699E+03</pdfrwt>
<totfact> 0.17147315E+01</totfact>
</mgrwt>
</event>
<event>
 4    1  0.8937085E-007  0.7095217E+03  0.7818608E-02  0.9959782E-01
          2   -1    0    0  501    0  0.00000000000E+00  0.00000000000E+00  0.20498042691E+04  0.20498042691E+04  0.25500000000E-02 0. -1.
         -2   -1    0    0    0  501 -0.00000000000E+00 -0.00000000000E+00 -0.95322804410E+03  0.95322804411E+03  0.25500000000E-02 0.  1.
    8880023    1    1    2    0    0  0.18990129933E+03 -0.18316188525E+03  0.19615200707E+04  0.20859007584E+04  0.65864270000E+03 0. -1.
    8880022    1    1    2    0    0 -0.18990129933E+03  0.18316188525E+03 -0.86494384569E+03  0.91713155486E+03  0.15294330000E+03 0.  0.
<mgrwt>
<rscale>  0 0.57449471E+03</rscale>
<asrwt>0</asrwt>
<pdfrwt beam="1">  1        2 0.31535450E+00 0.70952166E+03</pdfrwt>
<pdfrwt beam="2">  1       -2 0.14665047E+00 0.70952166E+03</pdfrwt>
<totfact> 0.20873942E+00</totfact>
</mgrwt>
</event>
<event>
 4    1  0.8468429E-007  0.1045084E+04  0.7818608E-02  0.9324814E-01
          2   -1    0    0  501    0  0.00000000000E+00  0.00000000000E+00  0.26940318745E+04  0.26940318745E+04  0.25500000000E-02 0. -1.
         -2   -1    0    0    0  501 -0.00000000000E+00 -0.00000000000E+00 -0.40462203748E+03  0.40462203749E+03  0.25500000000E-02 0.  1.
    8880023    1    1    2    0    0  0.67974284476E+03  0.44310296315E+03  0.19368879559E+04  0.22008488660E+04  0.65864270000E+03 0.  0.
    8880022    1    1    2    0    0 -0.67974284476E+03 -0.44310296315E+03  0.35252188113E+03  0.89780504601E+03  0.15294330000E+03 0.  0.
<mgrwt>
<rscale>  0 0.98530149E+03</rscale>
<asrwt>0</asrwt>
<pdfrwt beam="1">  1        2 0.41446643E+00 0.10450841E+04</pdfrwt>
<pdfrwt beam="2">  1       -2 0.62249546E-01 0.10450841E+04</pdfrwt>
<totfact> 0.64739317E+00</totfact>
</mgrwt>
</event>
<event>
 4    1  0.8468429E-007  0.1063154E+04  0.7818608E-02  0.9303234E-01
          2   -1    0    0  501    0  0.00000000000E+00  0.00000000000E+00  0.10196279338E+04  0.10196279338E+04  0.25500000000E-02 0. -1.
         -2   -1    0    0    0  501 -0.00000000000E+00 -0.00000000000E+00 -0.12112061247E+04  0.12112061247E+04  0.25500000000E-02 0.  1.
    8880023    1    1    2    0    0 -0.74522516599E+03 -0.37566571702E+03 -0.67012519462E+03  0.12567272026E+04  0.65864270000E+03 0.  0.
    8880022    1    1    2    0    0  0.74522516599E+03  0.37566571702E+03  0.47854700373E+03  0.97410685593E+03  0.15294330000E+03 0.  0.
<mgrwt>
<rscale>  0 0.10048570E+04</rscale>
<asrwt>0</asrwt>
<pdfrwt beam="1">  1        2 0.15686584E+00 0.10631536E+04</pdfrwt>
<pdfrwt beam="2">  1       -2 0.18633940E+00 0.10631536E+04</pdfrwt>
<totfact> 0.39549825E+00</totfact>
</mgrwt>
</event>
<event>
 4    1  0.8468429E-007  0.7961519E+03  0.7818608E-02  0.9719179E-01
          2   -1    0    0  501    0  0.00000000000E+00  0.00000000000E+00  0.82000213051E+03  0.82000213052E+03  0.25500000000E-02 0. -1.
         -2   -1    0    0    0  501 -0.00000000000E+00 -0.00000000000E+00 -0.57999903225E+03  0.57999903226E+03  0.25500000000E-02 0.  1.
    8880023    1    1    2    0    0  0.38697682837E+03  0.22426882095E+03  0.41268504310E+03  0.89675343368E+03  0.65864270000E+03 0. -1.
    8880022    1    1    2    0    0 -0.38697682837E+03 -0.22426882095E+03 -0.17268194484E+03  0.50324772909E+03  0.15294330000E+03 0.  0.
<mgrwt>
<rscale>  0 0.69886270E+03</rscale>
<asrwt>0</asrwt>
<pdfrwt beam="1">  1        2 0.12615417E+00 0.79615185E+03</pdfrwt>
<pdfrwt beam="2">  1       -2 0.89230621E-01 0.79615185E+03</pdfrwt>
<totfact> 0.36291294E+01</totfact>
</mgrwt>
</event>
<event>
 4    1  0.8468429E-007  0.6762406E+03  0.7818608E-02  0.1011535E+00
          2   -1    0    0  501    0  0.00000000000E+00  0.00000000000E+00  0.29114562948E+04  0.29114562948E+04  0.25500000000E-02 0. -1.
         -2   -1    0    0    0  501 -0.00000000000E+00 -0.00000000000E+00 -0.95124180353E+02  0.95124180387E+02  0.25500000000E-02 0.  1.
    8880023    1    1    2    0    0  0.92028189107E+02 -0.12256435598E+03  0.26461181637E+04  0.27311614290E+04  0.65864270000E+03 0. -1.
    8880022    1    1    2    0    0 -0.92028189107E+02  0.12256435598E+03  0.17021395080E+03  0.27541904620E+03  0.15294330000E+03 0.  0.
<mgrwt>
<rscale>  0 0.50868944E+03</rscale>
<asrwt>0</asrwt>
<pdfrwt beam="1">  1        2 0.44791639E+00 0.67624065E+03</pdfrwt>
<pdfrwt beam="2">  1       -2 0.14634488E-01 0.67624065E+03</pdfrwt>
<totfact> 0.76736308E+01</totfact>
</mgrwt>
</event>
<event>
 4    1  0.8468429E-007  0.7295412E+03  0.7818608E-02  0.9891532E-01
         -2   -1    0    0    0  501 -0.00000000000E+00  0.00000000000E+00  0.43942056335E+03  0.43942056336E+03  0.25500000000E-02 0.  1.
          2   -1    0    0  501    0  0.00000000000E+00 -0.00000000000E+00 -0.84621299995E+03  0.84621299995E+03  0.25500000000E-02 0. -1.
    8880023    1    1    2    0    0  0.20391974658E+02  0.31305642066E+03 -0.54460145591E+03  0.91039612652E+03  0.65864270000E+03 0. -1.
    8880022    1    1    2    0    0 -0.20391974658E+02 -0.31305642066E+03  0.13780901931E+03  0.37523743678E+03  0.15294330000E+03 0.  0.
<mgrwt>
<rscale>  0 0.60673429E+03</rscale>
<asrwt>0</asrwt>
<pdfrwt beam="1">  1        2 0.13018662E+00 0.72954120E+03</pdfrwt>
<pdfrwt beam="2">  1       -2 0.67603164E-01 0.72954120E+03</pdfrwt>
<totfact> 0.65017098E+01</totfact>
</mgrwt>
</event>
<event>
 4    1  0.1513128E-006  0.7481963E+03  0.7818608E-02  0.9836684E-01
          2   -1    0    0  501    0  0.00000000000E+00  0.00000000000E+00  0.13261746088E+04  0.13261746088E+04  0.25500000000E-02 0. -1.
         -2   -1    0    0    0  501 -0.00000000000E+00 -0.00000000000E+00 -0.19168935317E+04  0.19168935317E+04  0.25500000000E-02 0.  1.
    8880023    1    1    2    0    0 -0.33219539508E+02  0.35338928341E+03  0.11983419731E+04  0.14127353659E+04  0.65864270000E+03 0. -1.
    8880022    1    1    2    0    0  0.33219539508E+02 -0.35338928341E+03 -0.17890608960E+04  0.18303327746E+04  0.15294330000E+03 0.  0.
<mgrwt>
<rscale>  0 0.63430470E+03</rscale>
<asrwt>0</asrwt>
<pdfrwt beam="1">  1        2 0.20402686E+00 0.74819632E+03</pdfrwt>
<pdfrwt beam="2">  1       -2 0.29490670E+00 0.74819632E+03</pdfrwt>
<totfact> 0.57261499E-01</totfact>
</mgrwt>
</event>
<event>
 4    1  0.8468429E-007  0.6734057E+03  0.7818608E-02  0.1013331E+00
         -2   -1    0    0    0  501 -0.00000000000E+00  0.00000000000E+00  0.11443836936E+04  0.11443836936E+04  0.25500000000E-02 0.  1.
          2   -1    0    0  501    0  0.00000000000E+00 -0.00000000000E+00 -0.11525791174E+04  0.11525791174E+04  0.25500000000E-02 0. -1.
    8880023    1    1    2    0    0 -0.13932518959E+03 -0.15921032978E+02 -0.10430319906E+04  0.12415276587E+04  0.65864270000E+03 0. -1.
    8880022    1    1    2    0    0  0.13932518959E+03  0.15921032978E+02  0.10348365667E+04  0.10554351522E+04  0.15294330000E+03 0.  0.
<mgrwt>
<rscale>  0 0.50172136E+03</rscale>
<asrwt>0</asrwt>
<pdfrwt beam="1">  1        2 0.17731986E+00 0.67340567E+03</pdfrwt>
<pdfrwt beam="2">  1       -2 0.17605903E+00 0.67340567E+03</pdfrwt>
<totfact> 0.40451362E+00</totfact>
</mgrwt>
</event>
<event>
 4    1  0.8468429E-007  0.6642506E+03  0.7818608E-02  0.1020171E+00
         -2   -1    0    0    0  501 -0.00000000000E+00  0.00000000000E+00  0.44165104416E+03  0.44165104416E+03  0.25500000000E-02 0.  1.
          2   -1    0    0  501    0  0.00000000000E+00 -0.00000000000E+00 -0.65559168672E+03  0.65559168673E+03  0.25500000000E-02 0. -1.
    8880023    1    1    2    0    0 -0.81659204240E+02 -0.27393719639E+02 -0.45054874311E+03  0.80263504639E+03  0.65864270000E+03 0. -1.
    8880022    1    1    2    0    0  0.81659204240E+02  0.27393719639E+02  0.23660810054E+03  0.29460768450E+03  0.15294330000E+03 0.  0.
<mgrwt>
<rscale>  0 0.47625105E+03</rscale>
<asrwt>0</asrwt>
<pdfrwt beam="1">  1        2 0.10086026E+00 0.66425059E+03</pdfrwt>
<pdfrwt beam="2">  1       -2 0.67946315E-01 0.66425059E+03</pdfrwt>
<totfact> 0.89797034E+01</totfact>
</mgrwt>
</event>
<event>
 4    1  0.8468429E-007  0.1289446E+04  0.7818608E-02  0.9074728E-01
         -2   -1    0    0    0  501 -0.00000000000E+00  0.00000000000E+00  0.92215224361E+03  0.92215224361E+03  0.25500000000E-02 0.  1.
          2   -1    0    0  501    0  0.00000000000E+00 -0.00000000000E+00 -0.32071586906E+04  0.32071586906E+04  0.25500000000E-02 0. -1.
    8880023    1    1    2    0    0  0.13336361989E+03 -0.11004883753E+04 -0.26542843199E+04  0.29509144305E+04  0.65864270000E+03 0.  0.
    8880022    1    1    2    0    0 -0.13336361989E+03  0.11004883753E+04  0.36927787290E+03  0.11783965036E+04  0.15294330000E+03 0.  0.
<mgrwt>
<rscale>  0 0.12445542E+04</rscale>
<asrwt>0</asrwt>
<pdfrwt beam="1">  1        2 0.49340902E+00 0.12894459E+04</pdfrwt>
<pdfrwt beam="2">  1       -2 0.14186958E+00 0.12894459E+04</pdfrwt>
<totfact> 0.43471832E-01</totfact>
</mgrwt>
</event>
<event>
 4    1  0.8468429E-007  0.8888501E+03  0.7818608E-02  0.9544173E-01
         -2   -1    0    0    0  501 -0.00000000000E+00  0.00000000000E+00  0.17163260854E+04  0.17163260854E+04  0.25500000000E-02 0.  1.
          2   -1    0    0  501    0  0.00000000000E+00 -0.00000000000E+00 -0.96700041588E+03  0.96700041588E+03  0.25500000000E-02 0. -1.
    8880023    1    1    2    0    0  0.48170171612E+03 -0.35243128145E+03 -0.68505528072E+03  0.11222100050E+04  0.65864270000E+03 0. -1.
    8880022    1    1    2    0    0 -0.48170171612E+03  0.35243128145E+03  0.14343809502E+04  0.15611164962E+04  0.15294330000E+03 0.  0.
<mgrwt>
<rscale>  0 0.81104011E+03</rscale>
<asrwt>0</asrwt>
<pdfrwt beam="1">  1        2 0.14876929E+00 0.88885013E+03</pdfrwt>
<pdfrwt beam="2">  1       -2 0.26405017E+00 0.88885013E+03</pdfrwt>
<totfact> 0.14141356E+00</totfact>
</mgrwt>
</event>
<event>
 4    1  0.8468429E-007  0.6873279E+03  0.7818608E-02  0.1005449E+00
         -2   -1    0    0    0  501 -0.00000000000E+00  0.00000000000E+00  0.19895734144E+03  0.19895734146E+03  0.25500000000E-02 0.  1.
          2   -1    0    0  501    0  0.00000000000E+00 -0.00000000000E+00 -0.15140266691E+04  0.15140266691E+04  0.25500000000E-02 0. -1.
    8880023    1    1    2    0    0  0.10741914879E+03  0.16453137785E+03 -0.12913261565E+04  0.14628543662E+04  0.65864270000E+03 0. -1.
    8880022    1    1    2    0    0 -0.10741914879E+03 -0.16453137785E+03 -0.23743171154E+02  0.25012964442E+03  0.15294330000E+03 0.  0.
<mgrwt>
<rscale>  0 0.53324023E+03</rscale>
<asrwt>0</asrwt>
<pdfrwt beam="1">  1        2 0.23292717E+00 0.68732791E+03</pdfrwt>
<pdfrwt beam="2">  1       -2 0.30608823E-01 0.68732791E+03</pdfrwt>
<totfact> 0.12589184E+02</totfact>
</mgrwt>
</event>
<event>
 4    1  0.8468429E-007  0.7010558E+03  0.7818608E-02  0.9992849E-01
         -2   -1    0    0    0  501 -0.00000000000E+00  0.00000000000E+00  0.30898223660E+03  0.30898223661E+03  0.25500000000E-02 0.  1.
          2   -1    0    0  501    0  0.00000000000E+00 -0.00000000000E+00 -0.29521836757E+04  0.29521836757E+04  0.25500000000E-02 0. -1.
    8880023    1    1    2    0    0 -0.18379847486E+03  0.15455479756E+03 -0.28333520527E+04  0.29187948071E+04  0.65864270000E+03 0. -1.
    8880022    1    1    2    0    0  0.18379847486E+03 -0.15455479756E+03  0.19015061365E+03  0.34237110523E+03  0.15294330000E+03 0.  0.
<mgrwt>
<rscale>  0 0.55964903E+03</rscale>
<asrwt>0</asrwt>
<pdfrwt beam="1">  1        2 0.45418208E+00 0.70105583E+03</pdfrwt>
<pdfrwt beam="2">  1       -2 0.47535731E-01 0.70105583E+03</pdfrwt>
<totfact> 0.83887108E+00</totfact>
</mgrwt>
</event>
<event>
 4    1  0.8468429E-007  0.8104081E+03  0.7818608E-02  0.9688727E-01
          2   -1    0    0  501    0  0.00000000000E+00  0.00000000000E+00  0.65840124178E+03  0.65840124178E+03  0.25500000000E-02 0. -1.
         -2   -1    0    0    0  501 -0.00000000000E+00 -0.00000000000E+00 -0.85963158620E+03  0.85963158620E+03  0.25500000000E-02 0.  1.
    8880023    1    1    2    0    0 -0.13850298467E+03  0.45140678380E+03  0.24912656476E+03  0.84783572274E+03  0.65864270000E+03 0.  0.
    8880022    1    1    2    0    0  0.13850298467E+03 -0.45140678380E+03 -0.45035690918E+03  0.67019710525E+03  0.15294330000E+03 0.  0.
<mgrwt>
<rscale>  0 0.71691941E+03</rscale>
<asrwt>0</asrwt>
<pdfrwt beam="1">  1        2 0.10129250E+00 0.81040815E+03</pdfrwt>
<pdfrwt beam="2">  1       -2 0.13225101E+00 0.81040815E+03</pdfrwt>
<totfact> 0.18552239E+01</totfact>
</mgrwt>
</event>
<event>
 4    1  0.8468429E-007  0.1028116E+04  0.7818608E-02  0.9345663E-01
          2   -1    0    0  501    0  0.00000000000E+00  0.00000000000E+00  0.28555503138E+04  0.28555503138E+04  0.25500000000E-02 0. -1.
         -2   -1    0    0    0  501 -0.00000000000E+00 -0.00000000000E+00 -0.10845629921E+04  0.10845629921E+04  0.25500000000E-02 0.  1.
    8880023    1    1    2    0    0 -0.77080165821E+03  0.17052245919E+03 -0.76383253967E+03  0.12808057856E+04  0.65864270000E+03 0.  0.
    8880022    1    1    2    0    0  0.77080165821E+03 -0.17052245919E+03  0.25348198614E+04  0.26593075204E+04  0.15294330000E+03 0.  0.
<mgrwt>
<rscale>  0 0.96685550E+03</rscale>
<asrwt>0</asrwt>
<pdfrwt beam="1">  1        2 0.43931543E+00 0.10281164E+04</pdfrwt>
<pdfrwt beam="2">  1       -2 0.16685585E+00 0.10281164E+04</pdfrwt>
<totfact> 0.48414326E-01</totfact>
</mgrwt>
</event>
<event>
 4    1  0.8468429E-007  0.8829085E+03  0.7818608E-02  0.9554045E-01
         -2   -1    0    0    0  501 -0.00000000000E+00  0.00000000000E+00  0.79666967065E+03  0.79666967066E+03  0.25500000000E-02 0.  1.
          2   -1    0    0  501    0  0.00000000000E+00 -0.00000000000E+00 -0.16425682551E+04  0.16425682551E+04  0.25500000000E-02 0. -1.
    8880023    1    1    2    0    0 -0.57730158500E+03  0.11153516600E+03 -0.13746909200E+04  0.16338000322E+04  0.65864270000E+03 0.  0.
    8880022    1    1    2    0    0  0.57730158500E+03 -0.11153516600E+03  0.52879233555E+03  0.80543789360E+03  0.15294330000E+03 0.  0.
<mgrwt>
<rscale>  0 0.80413892E+03</rscale>
<asrwt>0</asrwt>
<pdfrwt beam="1">  1        2 0.25270281E+00 0.88290850E+03</pdfrwt>
<pdfrwt beam="2">  1       -2 0.12256457E+00 0.88290850E+03</pdfrwt>
<totfact> 0.53662387E+00</totfact>
</mgrwt>
</event>
<event>
 4    1  0.8468429E-007  0.8361008E+03  0.7818608E-02  0.9637577E-01
         -2   -1    0    0    0  501 -0.00000000000E+00  0.00000000000E+00  0.12227600873E+03  0.12227600875E+03  0.25500000000E-02 0.  1.
          2   -1    0    0  501    0  0.00000000000E+00 -0.00000000000E+00 -0.43219464241E+04  0.43219464241E+04  0.25500000000E-02 0. -1.
    8880023    1    1    2    0    0 -0.41177434006E+03 -0.30934815023E+03 -0.32213613954E+04  0.33280976295E+04  0.65864270000E+03 0.  0.
    8880022    1    1    2    0    0  0.41177434006E+03  0.30934815023E+03 -0.97830901996E+03  0.11161248034E+04  0.15294330000E+03 0.  0.
<mgrwt>
<rscale>  0 0.74858253E+03</rscale>
<asrwt>0</asrwt>
<pdfrwt beam="1">  1        2 0.66491472E+00 0.83610083E+03</pdfrwt>
<pdfrwt beam="2">  1       -2 0.18811697E-01 0.83610083E+03</pdfrwt>
<totfact> 0.47363414E+00</totfact>
</mgrwt>
</event>
<event>
 4    1  0.8468429E-007  0.7783780E+03  0.7818608E-02  0.9759661E-01
          2   -1    0    0  501    0  0.00000000000E+00  0.00000000000E+00  0.11067220558E+04  0.11067220558E+04  0.25500000000E-02 0. -1.
         -2   -1    0    0    0  501 -0.00000000000E+00 -0.00000000000E+00 -0.82288214225E+03  0.82288214226E+03  0.25500000000E-02 0.  1.
    8880023    1    1    2    0    0 -0.37597966906E+03  0.17521812664E+03  0.88807008119E+03  0.11809067613E+04  0.65864270000E+03 0.  0.
    8880022    1    1    2    0    0  0.37597966906E+03 -0.17521812664E+03 -0.60423016761E+03  0.74869743683E+03  0.15294330000E+03 0.  1.
<mgrwt>
<rscale>  0 0.67573034E+03</rscale>
<asrwt>0</asrwt>
<pdfrwt beam="1">  1        2 0.17026493E+00 0.77837800E+03</pdfrwt>
<pdfrwt beam="2">  1       -2 0.12659725E+00 0.77837800E+03</pdfrwt>
<totfact> 0.10173545E+01</totfact>
</mgrwt>
</event>
<event>
 4    1  0.8468429E-007  0.8943383E+03  0.7818608E-02  0.9535182E-01
         -2   -1    0    0    0  501 -0.00000000000E+00  0.00000000000E+00  0.22552304138E+03  0.22552304140E+03  0.25500000000E-02 0.  1.
          2   -1    0    0  501    0  0.00000000000E+00 -0.00000000000E+00 -0.27850240570E+04  0.27850240570E+04  0.25500000000E-02 0. -1.
    8880023    1    1    2    0    0 -0.35215721339E+03  0.49195137276E+03 -0.19144392935E+04  0.21130354637E+04  0.65864270000E+03 0.  0.
    8880022    1    1    2    0    0  0.35215721339E+03 -0.49195137276E+03 -0.64506172219E+03  0.89751163477E+03  0.15294330000E+03 0.  0.
<mgrwt>
<rscale>  0 0.81738943E+03</rscale>
<asrwt>0</asrwt>
<pdfrwt beam="1">  1        2 0.42846522E+00 0.89433834E+03</pdfrwt>
<pdfrwt beam="2">  1       -2 0.34695854E-01 0.89433834E+03</pdfrwt>
<totfact> 0.18967572E+01</totfact>
</mgrwt>
</event>
<event>
 4    1  0.8468429E-007  0.7242660E+03  0.7818608E-02  0.9908407E-01
         -2   -1    0    0    0  501 -0.00000000000E+00  0.00000000000E+00  0.60711439249E+03  0.60711439250E+03  0.25500000000E-02 0.  1.
          2   -1    0    0  501    0  0.00000000000E+00 -0.00000000000E+00 -0.83850129798E+03  0.83850129799E+03  0.25500000000E-02 0. -1.
    8880023    1    1    2    0    0  0.28017934565E+03 -0.11068235768E+03 -0.60369104175E+03  0.94287015553E+03  0.65864270000E+03 0. -1.
    8880022    1    1    2    0    0 -0.28017934565E+03  0.11068235768E+03  0.37230413626E+03  0.50274553496E+03  0.15294330000E+03 0.  0.
<mgrwt>
<rscale>  0 0.59855574E+03</rscale>
<asrwt>0</asrwt>
<pdfrwt beam="1">  1        2 0.12900020E+00 0.72426601E+03</pdfrwt>
<pdfrwt beam="2">  1       -2 0.93402214E-01 0.72426601E+03</pdfrwt>
<totfact> 0.31879879E+01</totfact>
</mgrwt>
</event>
<event>
 4    1  0.8468429E-007  0.7388054E+03  0.7818608E-02  0.9863441E-01
          2   -1    0    0  501    0  0.00000000000E+00  0.00000000000E+00  0.17825451098E+04  0.17825451098E+04  0.25500000000E-02 0. -1.
         -2   -1    0    0    0  501 -0.00000000000E+00 -0.00000000000E+00 -0.41395572141E+03  0.41395572142E+03  0.25500000000E-02 0.  1.
    8880023    1    1    2    0    0 -0.33259860554E+03  0.37434098109E+02  0.15996260494E+04  0.17619979706E+04  0.65864270000E+03 0.  0.
    8880022    1    1    2    0    0  0.33259860554E+03 -0.37434098109E+02 -0.23103666106E+03  0.43450286060E+03  0.15294330000E+03 0.  0.
<mgrwt>
<rscale>  0 0.62066291E+03</rscale>
<asrwt>0</asrwt>
<pdfrwt beam="1">  1        2 0.27423771E+00 0.73880535E+03</pdfrwt>
<pdfrwt beam="2">  1       -2 0.63685496E-01 0.73880535E+03</pdfrwt>
<totfact> 0.20747961E+01</totfact>
</mgrwt>
</event>
<event>
 4    1  0.8468429E-007  0.6965453E+03  0.7818608E-02  0.1001185E+00
         -2   -1    0    0    0  501 -0.00000000000E+00  0.00000000000E+00  0.17125213516E+03  0.17125213518E+03  0.25500000000E-02 0.  1.
          2   -1    0    0  501    0  0.00000000000E+00 -0.00000000000E+00 -0.23309260233E+04  0.23309260233E+04  0.25500000000E-02 0. -1.
    8880023    1    1    2    0    0  0.20620182048E+03  0.94053278002E+02 -0.21129474568E+04  0.22247971528E+04  0.65864270000E+03 0.  0.
    8880022    1    1    2    0    0 -0.20620182048E+03 -0.94053278002E+02 -0.46726431325E+02  0.27738100561E+03  0.15294330000E+03 0.  0.
<mgrwt>
<rscale>  0 0.55133864E+03</rscale>
<asrwt>0</asrwt>
<pdfrwt beam="1">  1        2 0.35860398E+00 0.69654534E+03</pdfrwt>
<pdfrwt beam="2">  1       -2 0.26346484E-01 0.69654534E+03</pdfrwt>
<totfact> 0.59170109E+01</totfact>
</mgrwt>
</event>
<event>
 4    1  0.8468429E-007  0.7275779E+03  0.7818608E-02  0.9897732E-01
          2   -1    0    0  501    0  0.00000000000E+00  0.00000000000E+00  0.14135197208E+04  0.14135197208E+04  0.25500000000E-02 0. -1.
         -2   -1    0    0    0  501 -0.00000000000E+00 -0.00000000000E+00 -0.26081199974E+03  0.26081199975E+03  0.25500000000E-02 0.  1.
    8880023    1    1    2    0    0 -0.10720201369E+03 -0.28994326546E+03  0.11094402409E+04  0.13267355514E+04  0.65864270000E+03 0.  0.
    8880022    1    1    2    0    0  0.10720201369E+03  0.28994326546E+03  0.43267480082E+02  0.34759616910E+03  0.15294330000E+03 0. -1.
<mgrwt>
<rscale>  0 0.60371315E+03</rscale>
<asrwt>0</asrwt>
<pdfrwt beam="1">  1        2 0.21746457E+00 0.72757788E+03</pdfrwt>
<pdfrwt beam="2">  1       -2 0.40124924E-01 0.72757788E+03</pdfrwt>
<totfact> 0.85249187E+01</totfact>
</mgrwt>
</event>
<event>
 4    1  0.8468429E-007  0.8422414E+03  0.7818608E-02  0.9625968E-01
         -2   -1    0    0    0  501 -0.00000000000E+00  0.00000000000E+00  0.18285950059E+03  0.18285950061E+03  0.25500000000E-02 0.  1.
          2   -1    0    0  501    0  0.00000000000E+00 -0.00000000000E+00 -0.34344992693E+04  0.34344992693E+04  0.25500000000E-02 0. -1.
    8880023    1    1    2    0    0  0.40699622340E+03  0.33153355647E+03 -0.27473206528E+04  0.28735242126E+04  0.65864270000E+03 0. -1.
    8880022    1    1    2    0    0 -0.40699622340E+03 -0.33153355647E+03 -0.50431911591E+03  0.74383455728E+03  0.15294330000E+03 0.  0.
<mgrwt>
<rscale>  0 0.75601019E+03</rscale>
<asrwt>0</asrwt>
<pdfrwt beam="1">  1        2 0.52838446E+00 0.84224143E+03</pdfrwt>
<pdfrwt beam="2">  1       -2 0.28132233E-01 0.84224143E+03</pdfrwt>
<totfact> 0.11047533E+01</totfact>
</mgrwt>
</event>
<event>
 4    1  0.8468429E-007  0.1533176E+04  0.7818608E-02  0.8886558E-01
         -2   -1    0    0    0  501 -0.00000000000E+00  0.00000000000E+00  0.11416143823E+04  0.11416143823E+04  0.25500000000E-02 0.  1.
          2   -1    0    0  501    0  0.00000000000E+00 -0.00000000000E+00 -0.42087700675E+04  0.42087700675E+04  0.25500000000E-02 0. -1.
    8880023    1    1    2    0    0 -0.93752020581E+03 -0.10187606961E+04  0.42474175248E+03  0.15909221397E+04  0.65864270000E+03 0.  1.
    8880022    1    1    2    0    0  0.93752020581E+03  0.10187606961E+04 -0.34918974377E+04  0.37594623100E+04  0.15294330000E+03 0.  0.
<mgrwt>
<rscale>  0 0.14968387E+04</rscale>
<asrwt>0</asrwt>
<pdfrwt beam="1">  1        2 0.64750308E+00 0.15331757E+04</pdfrwt>
<pdfrwt beam="2">  1       -2 0.17563298E+00 0.15331757E+04</pdfrwt>
<totfact> 0.42527502E-02</totfact>
</mgrwt>
</event>
<event>
 4    1  0.8468429E-007  0.1211233E+04  0.7818608E-02  0.9146279E-01
         -2   -1    0    0    0  501 -0.00000000000E+00  0.00000000000E+00  0.72508520100E+03  0.72508520100E+03  0.25500000000E-02 0.  1.
          2   -1    0    0  501    0  0.00000000000E+00 -0.00000000000E+00 -0.18035073404E+04  0.18035073404E+04  0.25500000000E-02 0. -1.
    8880023    1    1    2    0    0  0.49414342917E+03 -0.88831211906E+03 -0.32491154198E+03  0.12540549692E+04  0.65864270000E+03 0.  0.
    8880022    1    1    2    0    0 -0.49414342917E+03  0.88831211906E+03 -0.75351059743E+03  0.12745375722E+04  0.15294330000E+03 0.  0.
<mgrwt>
<rscale>  0 0.11625541E+04</rscale>
<asrwt>0</asrwt>
<pdfrwt beam="1">  1        2 0.27746267E+00 0.12112334E+04</pdfrwt>
<pdfrwt beam="2">  1       -2 0.11155157E+00 0.12112334E+04</pdfrwt>
<totfact> 0.53211713E+00</totfact>
</mgrwt>
</event>
<event>
 4    1  0.8468429E-007  0.8126628E+03  0.7818608E-02  0.9684057E-01
          2   -1    0    0  501    0  0.00000000000E+00  0.00000000000E+00  0.11275692101E+04  0.11275692101E+04  0.25500000000E-02 0. -1.
         -2   -1    0    0    0  501 -0.00000000000E+00 -0.00000000000E+00 -0.12039943266E+04  0.12039943266E+04  0.25500000000E-02 0.  1.
    8880023    1    1    2    0    0  0.45966202787E+03  0.12377977063E+03  0.91341970420E+03  0.12226022958E+04  0.65864270000E+03 0. -1.
    8880022    1    1    2    0    0 -0.45966202787E+03 -0.12377977063E+03 -0.98984482071E+03  0.11089612408E+04  0.15294330000E+03 0.  0.
<mgrwt>
<rscale>  0 0.71974023E+03</rscale>
<asrwt>0</asrwt>
<pdfrwt beam="1">  1        2 0.17347219E+00 0.81266279E+03</pdfrwt>
<pdfrwt beam="2">  1       -2 0.18522990E+00 0.81266279E+03</pdfrwt>
<totfact> 0.35491876E+00</totfact>
</mgrwt>
</event>
<event>
 4    1  0.8468429E-007  0.7361648E+03  0.7818608E-02  0.9871263E-01
          2   -1    0    0  501    0  0.00000000000E+00  0.00000000000E+00  0.24352071633E+04  0.24352071633E+04  0.25500000000E-02 0. -1.
         -2   -1    0    0    0  501 -0.00000000000E+00 -0.00000000000E+00 -0.21289299621E+03  0.21289299622E+03  0.25500000000E-02 0.  1.
    8880023    1    1    2    0    0  0.56695341119E+02 -0.32390442189E+03  0.21575777138E+04  0.22797105592E+04  0.65864270000E+03 0. -1.
    8880022    1    1    2    0    0 -0.56695341119E+02  0.32390442189E+03  0.64736453241E+02  0.36838960031E+03  0.15294330000E+03 0. -1.
<mgrwt>
<rscale>  0 0.61674453E+03</rscale>
<asrwt>0</asrwt>
<pdfrwt beam="1">  1        2 0.37464727E+00 0.73616482E+03</pdfrwt>
<pdfrwt beam="2">  1       -2 0.32752767E-01 0.73616482E+03</pdfrwt>
<totfact> 0.34406895E+01</totfact>
</mgrwt>
</event>
<event>
 4    1  0.8468429E-007  0.8241388E+03  0.7818608E-02  0.9660846E-01
          2   -1    0    0  501    0  0.00000000000E+00  0.00000000000E+00  0.21884334582E+04  0.21884334582E+04  0.25500000000E-02 0. -1.
         -2   -1    0    0    0  501 -0.00000000000E+00 -0.00000000000E+00 -0.22199142527E+03  0.22199142529E+03  0.25500000000E-02 0.  1.
    8880023    1    1    2    0    0 -0.22026897932E+03  0.44370726139E+03  0.15073071058E+04  0.17178997277E+04  0.65864270000E+03 0. -1.
    8880022    1    1    2    0    0  0.22026897932E+03 -0.44370726139E+03  0.45913492719E+03  0.69252515582E+03  0.15294330000E+03 0.  0.
<mgrwt>
<rscale>  0 0.73396634E+03</rscale>
<asrwt>0</asrwt>
<pdfrwt beam="1">  1        2 0.33668206E+00 0.82413880E+03</pdfrwt>
<pdfrwt beam="2">  1       -2 0.34152528E-01 0.82413880E+03</pdfrwt>
<totfact> 0.43134926E+01</totfact>
</mgrwt>
</event>
<event>
 4    1  0.8468429E-007  0.8515190E+03  0.7818608E-02  0.9608831E-01
          2   -1    0    0  501    0  0.00000000000E+00  0.00000000000E+00  0.66562064336E+03  0.66562064337E+03  0.25500000000E-02 0. -1.
         -2   -1    0    0    0  501 -0.00000000000E+00 -0.00000000000E+00 -0.16996567008E+04  0.16996567008E+04  0.25500000000E-02 0.  1.
    8880023    1    1    2    0    0 -0.18533732782E+03 -0.50687723936E+03  0.31212119608E+03  0.90692023253E+03  0.65864270000E+03 0.  0.
    8880022    1    1    2    0    0  0.18533732782E+03  0.50687723936E+03 -0.13461572535E+04  0.14583571116E+04  0.15294330000E+03 0.  0.
<mgrwt>
<rscale>  0 0.76714422E+03</rscale>
<asrwt>0</asrwt>
<pdfrwt beam="1">  1        2 0.10240318E+00 0.85151904E+03</pdfrwt>
<pdfrwt beam="2">  1       -2 0.26148565E+00 0.85151904E+03</pdfrwt>
<totfact> 0.24287176E+00</totfact>
</mgrwt>
</event>
<event>
 4    1  0.8468429E-007  0.7051264E+03  0.7818608E-02  0.9976565E-01
         -2   -1    0    0    0  501 -0.00000000000E+00  0.00000000000E+00  0.33732162260E+03  0.33732162261E+03  0.25500000000E-02 0.  1.
          2   -1    0    0  501    0  0.00000000000E+00 -0.00000000000E+00 -0.10282905910E+04  0.10282905910E+04  0.25500000000E-02 0. -1.
    8880023    1    1    2    0    0  0.16649995553E+03 -0.18886701359E+03 -0.78612947013E+03  0.10560315971E+04  0.65864270000E+03 0. -1.
    8880022    1    1    2    0    0 -0.16649995553E+03  0.18886701359E+03  0.95160501736E+02  0.30958061651E+03  0.15294330000E+03 0.  0.
<mgrwt>
<rscale>  0 0.56689884E+03</rscale>
<asrwt>0</asrwt>
<pdfrwt beam="1">  1        2 0.15819855E+00 0.70512636E+03</pdfrwt>
<pdfrwt beam="2">  1       -2 0.51895635E-01 0.70512636E+03</pdfrwt>
<totfact> 0.86233443E+01</totfact>
</mgrwt>
</event>
<event>
 4    1  0.8468429E-007  0.9380335E+03  0.7818608E-02  0.9467544E-01
          2   -1    0    0  501    0  0.00000000000E+00  0.00000000000E+00  0.76132307148E+03  0.76132307149E+03  0.25500000000E-02 0. -1.
         -2   -1    0    0    0  501 -0.00000000000E+00 -0.00000000000E+00 -0.96161888738E+03  0.96161888738E+03  0.25500000000E-02 0.  1.
    8880023    1    1    2    0    0  0.50816744027E+03 -0.43343097815E+03  0.15557303716E+03  0.95084685219E+03  0.65864270000E+03 0. -1.
    8880022    1    1    2    0    0 -0.50816744027E+03  0.43343097815E+03 -0.35586885306E+03  0.77209510668E+03  0.15294330000E+03 0.  0.
<mgrwt>
<rscale>  0 0.86719514E+03</rscale>
<asrwt>0</asrwt>
<pdfrwt beam="1">  1        2 0.11712663E+00 0.93803346E+03</pdfrwt>
<pdfrwt beam="2">  1       -2 0.14794137E+00 0.93803346E+03</pdfrwt>
<totfact> 0.11399366E+01</totfact>
</mgrwt>
</event>
<event>
 4    1  0.8468429E-007  0.7407876E+03  0.7818608E-02  0.9857659E-01
         -2   -1    0    0    0  501 -0.00000000000E+00  0.00000000000E+00  0.11362956377E+04  0.11362956377E+04  0.25500000000E-02 0.  1.
          2   -1    0    0  501    0  0.00000000000E+00 -0.00000000000E+00 -0.45705644803E+03  0.45705644803E+03  0.25500000000E-02 0. -1.
    8880023    1    1    2    0    0  0.19902813231E+02  0.33846710581E+03 -0.82782557042E+02  0.74539872666E+03  0.65864270000E+03 0.  0.
    8880022    1    1    2    0    0 -0.19902813231E+02 -0.33846710581E+03  0.76202174672E+03  0.84795335908E+03  0.15294330000E+03 0.  0.
<mgrwt>
<rscale>  0 0.62357947E+03</rscale>
<asrwt>0</asrwt>
<pdfrwt beam="1">  1        2 0.70316378E-01 0.74078763E+03</pdfrwt>
<pdfrwt beam="2">  1       -2 0.17481471E+00 0.74078763E+03</pdfrwt>
<totfact> 0.13685874E+01</totfact>
</mgrwt>
</event>
<event>
 4    1  0.8468429E-007  0.7550716E+03  0.7818608E-02  0.9818038E-01
         -2   -1    0    0    0  501 -0.00000000000E+00  0.00000000000E+00  0.13595041644E+04  0.13595041644E+04  0.25500000000E-02 0.  1.
          2   -1    0    0  501    0  0.00000000000E+00 -0.00000000000E+00 -0.31338740132E+03  0.31338740133E+03  0.25500000000E-02 0. -1.
    8880023    1    1    2    0    0  0.36901463983E+03  0.12293782791E+02  0.27358065565E+03  0.80310617163E+03  0.65864270000E+03 0. -1.
    8880022    1    1    2    0    0 -0.36901463983E+03 -0.12293782791E+02  0.77253610742E+03  0.86978539410E+03  0.15294330000E+03 0.  0.
<mgrwt>
<rscale>  0 0.64403458E+03</rscale>
<asrwt>0</asrwt>
<pdfrwt beam="1">  1        2 0.48213447E-01 0.75507162E+03</pdfrwt>
<pdfrwt beam="2">  1       -2 0.20915448E+00 0.75507162E+03</pdfrwt>
<totfact> 0.12351420E+01</totfact>
</mgrwt>
</event>
<event>
 4    1  0.1111554E-006  0.7841675E+03  0.7818608E-02  0.9746137E-01
         -2   -1    0    0    0  501 -0.00000000000E+00  0.00000000000E+00  0.20954592554E+04  0.20954592554E+04  0.25500000000E-02 0.  1.
          2   -1    0    0  501    0  0.00000000000E+00 -0.00000000000E+00 -0.12854489407E+04  0.12854489407E+04  0.25500000000E-02 0. -1.
    8880023    1    1    2    0    0  0.35586351881E+03 -0.23338711375E+03 -0.11374899404E+04  0.13815939923E+04  0.65864270000E+03 0. -1.
    8880022    1    1    2    0    0 -0.35586351881E+03  0.23338711375E+03  0.19475002551E+04  0.19993142038E+04  0.15294330000E+03 0.  0.
<mgrwt>
<rscale>  0 0.68335014E+03</rscale>
<asrwt>0</asrwt>
<pdfrwt beam="1">  1        2 0.19776138E+00 0.78416745E+03</pdfrwt>
<pdfrwt beam="2">  1       -2 0.32237834E+00 0.78416745E+03</pdfrwt>
<totfact> 0.40926905E-01</totfact>
</mgrwt>
</event>
<event>
 4    1  0.8468429E-007  0.6899778E+03  0.7818608E-02  0.1004163E+00
         -2   -1    0    0    0  501 -0.00000000000E+00  0.00000000000E+00  0.13190006098E+03  0.13190006100E+03  0.25500000000E-02 0.  1.
          2   -1    0    0  501    0  0.00000000000E+00 -0.00000000000E+00 -0.21768764411E+04  0.21768764411E+04  0.25500000000E-02 0. -1.
    8880023    1    1    2    0    0 -0.20553274440E+03 -0.39325150388E+01 -0.18835313122E+04  0.20059311015E+04  0.65864270000E+03 0.  0.
    8880022    1    1    2    0    0  0.20553274440E+03  0.39325150388E+01 -0.16144506792E+03  0.30284540060E+03  0.15294330000E+03 0.  0.
<mgrwt>
<rscale>  0 0.53861863E+03</rscale>
<asrwt>0</asrwt>
<pdfrwt beam="1">  1        2 0.33490404E+00 0.68997781E+03</pdfrwt>
<pdfrwt beam="2">  1       -2 0.20292319E-01 0.68997781E+03</pdfrwt>
<totfact> 0.11472153E+02</totfact>
</mgrwt>
</event>
<event>
 4    1  0.8468429E-007  0.8112687E+03  0.7818608E-02  0.9686940E-01
         -2   -1    0    0    0  501 -0.00000000000E+00  0.00000000000E+00  0.28704325309E+03  0.28704325310E+03  0.25500000000E-02 0.  1.
          2   -1    0    0  501    0  0.00000000000E+00 -0.00000000000E+00 -0.27240077575E+04  0.27240077575E+04  0.25500000000E-02 0. -1.
    8880023    1    1    2    0    0  0.15970875988E+03 -0.44591464472E+03 -0.23746815052E+04  0.25094360354E+04  0.65864270000E+03 0. -1.
    8880022    1    1    2    0    0 -0.15970875988E+03  0.44591464472E+03 -0.62282999233E+02  0.50161497522E+03  0.15294330000E+03 0.  0.
<mgrwt>
<rscale>  0 0.71799716E+03</rscale>
<asrwt>0</asrwt>
<pdfrwt beam="1">  1        2 0.41907810E+00 0.81126874E+03</pdfrwt>
<pdfrwt beam="2">  1       -2 0.44160502E-01 0.81126874E+03</pdfrwt>
<totfact> 0.13037369E+01</totfact>
</mgrwt>
</event>
<event>
 4    1  0.8468429E-007  0.6618932E+03  0.7818608E-02  0.1022296E+00
          2   -1    0    0  501    0  0.00000000000E+00  0.00000000000E+00  0.14178202566E+04  0.14178202566E+04  0.25500000000E-02 0. -1.
         -2   -1    0    0    0  501 -0.00000000000E+00 -0.00000000000E+00 -0.36004360379E+03  0.36004360380E+03  0.25500000000E-02 0.  1.
    8880023    1    1    2    0    0 -0.65327152171E+02 -0.49757195751E+01  0.13146151497E+04  0.14718408856E+04  0.65864270000E+03 0. -1.
    8880022    1    1    2    0    0  0.65327152171E+02  0.49757195751E+01 -0.25683849688E+03  0.30602297477E+03  0.15294330000E+03 0.  0.
<mgrwt>
<rscale>  0 0.46867268E+03</rscale>
<asrwt>0</asrwt>
<pdfrwt beam="1">  1        2 0.21812620E+00 0.66189319E+03</pdfrwt>
<pdfrwt beam="2">  1       -2 0.55391322E-01 0.66189319E+03</pdfrwt>
<totfact> 0.44642519E+01</totfact>
</mgrwt>
</event>
<event>
 4    1  0.8468429E-007  0.7873955E+03  0.7818608E-02  0.9738743E-01
         -2   -1    0    0    0  501 -0.00000000000E+00  0.00000000000E+00  0.15968435546E+04  0.15968435546E+04  0.25500000000E-02 0.  1.
          2   -1    0    0  501    0  0.00000000000E+00 -0.00000000000E+00 -0.24903209518E+03  0.24903209519E+03  0.25500000000E-02 0. -1.
    8880023    1    1    2    0    0 -0.39432738537E+03 -0.17517812669E+03  0.98935650149E+03  0.12644437339E+04  0.65864270000E+03 0.  1.
    8880022    1    1    2    0    0  0.39432738537E+03  0.17517812669E+03  0.35845495791E+03  0.58143191586E+03  0.15294330000E+03 0.  1.
<mgrwt>
<rscale>  0 0.68756164E+03</rscale>
<asrwt>0</asrwt>
<pdfrwt beam="1">  1        2 0.38312632E-01 0.78739550E+03</pdfrwt>
<pdfrwt beam="2">  1       -2 0.24566823E+00 0.78739550E+03</pdfrwt>
<totfact> 0.94369221E+00</totfact>
</mgrwt>
</event>
<event>
 4    1  0.8468429E-007  0.7925173E+03  0.7818608E-02  0.9727215E-01
         -2   -1    0    0    0  501 -0.00000000000E+00  0.00000000000E+00  0.30509117842E+03  0.30509117843E+03  0.25500000000E-02 0.  1.
          2   -1    0    0  501    0  0.00000000000E+00 -0.00000000000E+00 -0.17701802870E+04  0.17701802870E+04  0.25500000000E-02 0. -1.
    8880023    1    1    2    0    0 -0.43419820344E+03 -0.75798705439E+02 -0.13937313244E+04  0.16032999515E+04  0.65864270000E+03 0. -1.
    8880022    1    1    2    0    0  0.43419820344E+03  0.75798705439E+02 -0.71357784230E+02  0.47197151397E+03  0.15294330000E+03 0.  0.
<mgrwt>
<rscale>  0 0.69419295E+03</rscale>
<asrwt>0</asrwt>
<pdfrwt beam="1">  1        2 0.27233542E+00 0.79251734E+03</pdfrwt>
<pdfrwt beam="2">  1       -2 0.46937105E-01 0.79251734E+03</pdfrwt>
<totfact> 0.39419219E+01</totfact>
</mgrwt>
</event>
<event>
 4    1  0.8468429E-007  0.7661606E+03  0.7818608E-02  0.9789412E-01
          2   -1    0    0  501    0  0.00000000000E+00  0.00000000000E+00  0.39408405746E+03  0.39408405747E+03  0.25500000000E-02 0. -1.
         -2   -1    0    0    0  501 -0.00000000000E+00 -0.00000000000E+00 -0.17994699472E+04  0.17994699472E+04  0.25500000000E-02 0.  1.
    8880023    1    1    2    0    0  0.15460645292E+03 -0.35956728382E+03 -0.42480715367E+02  0.76733734714E+03  0.65864270000E+03 0.  0.
    8880022    1    1    2    0    0 -0.15460645292E+03  0.35956728382E+03 -0.13629051743E+04  0.14262166575E+04  0.15294330000E+03 0.  0.
<mgrwt>
<rscale>  0 0.65933873E+03</rscale>
<asrwt>0</asrwt>
<pdfrwt beam="1">  1        2 0.60628318E-01 0.76616055E+03</pdfrwt>
<pdfrwt beam="2">  1       -2 0.27684153E+00 0.76616055E+03</pdfrwt>
<totfact> 0.36757951E+00</totfact>
</mgrwt>
</event>
<event>
 4    1  0.8468429E-007  0.7741987E+03  0.7818608E-02  0.9769645E-01
          2   -1    0    0  501    0  0.00000000000E+00  0.00000000000E+00  0.41431072122E+03  0.41431072123E+03  0.25500000000E-02 0. -1.
         -2   -1    0    0    0  501 -0.00000000000E+00 -0.00000000000E+00 -0.14155532314E+04  0.14155532314E+04  0.25500000000E-02 0.  1.
    8880023    1    1    2    0    0 -0.20685012247E+02 -0.40638105209E+03 -0.11360227303E+04  0.13747477148E+04  0.65864270000E+03 0.  0.
    8880022    1    1    2    0    0  0.20685012247E+02  0.40638105209E+03  0.13478022011E+03  0.45511623788E+03  0.15294330000E+03 0.  0.
<mgrwt>
<rscale>  0 0.67017315E+03</rscale>
<asrwt>0</asrwt>
<pdfrwt beam="1">  1        2 0.63740112E-01 0.77419871E+03</pdfrwt>
<pdfrwt beam="2">  1       -2 0.21777742E+00 0.77419871E+03</pdfrwt>
<totfact> 0.79510066E+00</totfact>
</mgrwt>
</event>
<event>
 4    1  0.8468429E-007  0.6694333E+03  0.7818608E-02  0.1016072E+00
          2   -1    0    0  501    0  0.00000000000E+00  0.00000000000E+00  0.37317208000E+04  0.37317208000E+04  0.25500000000E-02 0. -1.
         -2   -1    0    0    0  501 -0.00000000000E+00 -0.00000000000E+00 -0.52917824912E+02  0.52917824973E+02  0.25500000000E-02 0.  1.
    8880023    1    1    2    0    0 -0.19885854155E+02 -0.11804764725E+03  0.31725259583E+04  0.32423852110E+04  0.65864270000E+03 0. -1.
    8880022    1    1    2    0    0  0.19885854155E+02  0.11804764725E+03  0.50627701684E+03  0.54225341402E+03  0.15294330000E+03 0. -1.
<mgrwt>
<rscale>  0 0.49130966E+03</rscale>
<asrwt>0</asrwt>
<pdfrwt beam="1">  1        2 0.57411113E+00 0.66943327E+03</pdfrwt>
<pdfrwt beam="2">  1       -2 0.81412005E-02 0.66943327E+03</pdfrwt>
<totfact> 0.58272811E+01</totfact>
</mgrwt>
</event>
<event>
 4    1  0.8468429E-007  0.7815113E+03  0.7818608E-02  0.9752299E-01
          2   -1    0    0  501    0  0.00000000000E+00  0.00000000000E+00  0.10948549921E+04  0.10948549921E+04  0.25500000000E-02 0. -1.
         -2   -1    0    0    0  501 -0.00000000000E+00 -0.00000000000E+00 -0.10282181616E+04  0.10282181616E+04  0.25500000000E-02 0.  1.
    8880023    1    1    2    0    0  0.60120242681E+02  0.41633548400E+03  0.89091372779E+03  0.11851106089E+04  0.65864270000E+03 0.  0.
    8880022    1    1    2    0    0 -0.60120242681E+02 -0.41633548400E+03 -0.82427689735E+03  0.93796254474E+03  0.15294330000E+03 0.  0.
<mgrwt>
<rscale>  0 0.67986512E+03</rscale>
<asrwt>0</asrwt>
<pdfrwt beam="1">  1        2 0.16843923E+00 0.78151128E+03</pdfrwt>
<pdfrwt beam="2">  1       -2 0.15818741E+00 0.78151128E+03</pdfrwt>
<totfact> 0.57941183E+00</totfact>
</mgrwt>
</event>
<event>
 4    1  0.8468429E-007  0.7667031E+03  0.7818608E-02  0.9788053E-01
         -2   -1    0    0    0  501 -0.00000000000E+00  0.00000000000E+00  0.81753943943E+03  0.81753943943E+03  0.25500000000E-02 0.  1.
          2   -1    0    0  501    0  0.00000000000E+00 -0.00000000000E+00 -0.85173368027E+03  0.85173368028E+03  0.25500000000E-02 0. -1.
    8880023    1    1    2    0    0 -0.37830804380E+03 -0.10443386576E+03 -0.59316546019E+03  0.96937035118E+03  0.65864270000E+03 0.  0.
    8880022    1    1    2    0    0  0.37830804380E+03  0.10443386576E+03  0.55897121934E+03  0.69990276853E+03  0.15294330000E+03 0.  0.
<mgrwt>
<rscale>  0 0.66007642E+03</rscale>
<asrwt>0</asrwt>
<pdfrwt beam="1">  1        2 0.13103595E+00 0.76670308E+03</pdfrwt>
<pdfrwt beam="2">  1       -2 0.12577530E+00 0.76670308E+03</pdfrwt>
<totfact> 0.15145727E+01</totfact>
</mgrwt>
</event>
<event>
 4    1  0.8468429E-007  0.7228693E+03  0.7818608E-02  0.9912994E-01
         -2   -1    0    0    0  501 -0.00000000000E+00  0.00000000000E+00  0.65849441355E+03  0.65849441355E+03  0.25500000000E-02 0.  1.
          2   -1    0    0  501    0  0.00000000000E+00 -0.00000000000E+00 -0.93081465243E+03  0.93081465244E+03  0.25500000000E-02 0. -1.
    8880023    1    1    2    0    0 -0.20431485594E+03  0.21676068878E+03 -0.72661691591E+03  0.10249449279E+04  0.65864270000E+03 0. -1.
    8880022    1    1    2    0    0  0.20431485594E+03 -0.21676068878E+03  0.45429667702E+03  0.56436413805E+03  0.15294330000E+03 0.  0.
<mgrwt>
<rscale>  0 0.59635640E+03</rscale>
<asrwt>0</asrwt>
<pdfrwt beam="1">  1        2 0.14320225E+00 0.72286926E+03</pdfrwt>
<pdfrwt beam="2">  1       -2 0.10130683E+00 0.72286926E+03</pdfrwt>
<totfact> 0.22802312E+01</totfact>
</mgrwt>
</event>
<event>
 4    1  0.9123497E-007  0.7340622E+03  0.7818608E-02  0.9877593E-01
         -2   -1    0    0    0  501 -0.00000000000E+00  0.00000000000E+00  0.10302162143E+04  0.10302162143E+04  0.25500000000E-02 0.  1.
          2   -1    0    0  501    0  0.00000000000E+00 -0.00000000000E+00 -0.16419066012E+04  0.16419066012E+04  0.25500000000E-02 0. -1.
    8880023    1    1    2    0    0  0.32152883111E+03 -0.40698700026E+02 -0.15242054487E+04  0.16917593297E+04  0.65864270000E+03 0. -1.
    8880022    1    1    2    0    0 -0.32152883111E+03  0.40698700026E+02  0.91251506176E+03  0.98036348584E+03  0.15294330000E+03 0.  0.
<mgrwt>
<rscale>  0 0.61359594E+03</rscale>
<asrwt>0</asrwt>
<pdfrwt beam="1">  1        2 0.25260101E+00 0.73406225E+03</pdfrwt>
<pdfrwt beam="2">  1       -2 0.15849480E+00 0.73406225E+03</pdfrwt>
<totfact> 0.28209370E+00</totfact>
</mgrwt>
</event>
<event>
 4    1  0.8468429E-007  0.1598455E+04  0.7818608E-02  0.8843070E-01
         -2   -1    0    0    0  501 -0.00000000000E+00  0.00000000000E+00  0.14889135988E+04  0.14889135988E+04  0.25500000000E-02 0.  1.
          2   -1    0    0  501    0  0.00000000000E+00 -0.00000000000E+00 -0.20371770158E+04  0.20371770158E+04  0.25500000000E-02 0. -1.
    8880023    1    1    2    0    0  0.14525821898E+04  0.10608484313E+03 -0.11223430332E+04  0.19531290542E+04  0.65864270000E+03 0. -1.
    8880022    1    1    2    0    0 -0.14525821898E+04 -0.10608484313E+03  0.57407961607E+03  0.15729615604E+04  0.15294330000E+03 0.  0.
<mgrwt>
<rscale>  0 0.15638485E+04</rscale>
<asrwt>0</asrwt>
<pdfrwt beam="1">  1        2 0.31341185E+00 0.15984553E+04</pdfrwt>
<pdfrwt beam="2">  1       -2 0.22906363E+00 0.15984553E+04</pdfrwt>
<totfact> 0.51256612E-01</totfact>
</mgrwt>
</event>
<event>
 4    1  0.9219782E-007  0.7250423E+03  0.7818608E-02  0.9905880E-01
         -2   -1    0    0    0  501 -0.00000000000E+00  0.00000000000E+00  0.11991999110E+04  0.11991999110E+04  0.25500000000E-02 0.  1.
          2   -1    0    0  501    0  0.00000000000E+00 -0.00000000000E+00 -0.12601285993E+04  0.12601285993E+04  0.25500000000E-02 0. -1.
    8880023    1    1    2    0    0 -0.27517888835E+03  0.12709348746E+03 -0.11272342673E+04  0.13402773872E+04  0.65864270000E+03 0. -1.
    8880022    1    1    2    0    0  0.27517888835E+03 -0.12709348746E+03  0.10663055790E+04  0.11190511231E+04  0.15294330000E+03 0.  0.
<mgrwt>
<rscale>  0 0.59977179E+03</rscale>
<asrwt>0</asrwt>
<pdfrwt beam="1">  1        2 0.19386594E+00 0.72504233E+03</pdfrwt>
<pdfrwt beam="2">  1       -2 0.18449229E+00 0.72504233E+03</pdfrwt>
<totfact> 0.30344913E+00</totfact>
</mgrwt>
</event>
<event>
 4    1  0.8468429E-007  0.7839266E+03  0.7818608E-02  0.9746693E-01
         -2   -1    0    0    0  501 -0.00000000000E+00  0.00000000000E+00  0.92572802283E+03  0.92572802283E+03  0.25500000000E-02 0.  1.
          2   -1    0    0  501    0  0.00000000000E+00 -0.00000000000E+00 -0.12680008313E+04  0.12680008313E+04  0.25500000000E-02 0. -1.
    8880023    1    1    2    0    0 -0.35700540563E+02  0.42362277498E+03 -0.10764658391E+04  0.13316605022E+04  0.65864270000E+03 0.  0.
    8880022    1    1    2    0    0  0.35700540563E+02 -0.42362277498E+03  0.73419303066E+03  0.86206835191E+03  0.15294330000E+03 0.  0.
<mgrwt>
<rscale>  0 0.68303493E+03</rscale>
<asrwt>0</asrwt>
<pdfrwt beam="1">  1        2 0.19507705E+00 0.78392665E+03</pdfrwt>
<pdfrwt beam="2">  1       -2 0.14241970E+00 0.78392665E+03</pdfrwt>
<totfact> 0.60304484E+00</totfact>
</mgrwt>
</event>
<event>
 4    1  0.8468429E-007  0.1208739E+04  0.7818608E-02  0.9148674E-01
          2   -1    0    0  501    0  0.00000000000E+00  0.00000000000E+00  0.33790414475E+04  0.33790414475E+04  0.25500000000E-02 0. -1.
         -2   -1    0    0    0  501 -0.00000000000E+00 -0.00000000000E+00 -0.66289569467E+03  0.66289569468E+03  0.25500000000E-02 0.  1.
    8880023    1    1    2    0    0 -0.94247048750E+03  0.37281322553E+03  0.77526570968E+02  0.12112228929E+04  0.65864270000E+03 0.  0.
    8880022    1    1    2    0    0  0.94247048750E+03 -0.37281322553E+03  0.26386191819E+04  0.28307142492E+04  0.15294330000E+03 0.  0.
<mgrwt>
<rscale>  0 0.11599274E+04</rscale>
<asrwt>0</asrwt>
<pdfrwt beam="1">  1        2 0.51985254E+00 0.12087392E+04</pdfrwt>
<pdfrwt beam="2">  1       -2 0.10198395E+00 0.12087392E+04</pdfrwt>
<totfact> 0.77376127E-01</totfact>
</mgrwt>
</event>
<event>
 4    1  0.8468429E-007  0.7480084E+03  0.7818608E-02  0.9837205E-01
         -2   -1    0    0    0  501 -0.00000000000E+00  0.00000000000E+00  0.45798280825E+03  0.45798280826E+03  0.25500000000E-02 0.  1.
          2   -1    0    0  501    0  0.00000000000E+00 -0.00000000000E+00 -0.29869070092E+04  0.29869070092E+04  0.25500000000E-02 0. -1.
    8880023    1    1    2    0    0 -0.52166846347E+01 -0.35451255020E+03 -0.28476206335E+04  0.29442248285E+04  0.65864270000E+03 0. -1.
    8880022    1    1    2    0    0  0.52166846347E+01  0.35451255020E+03  0.31869643255E+03  0.50066498898E+03  0.15294330000E+03 0.  1.
<mgrwt>
<rscale>  0 0.63403589E+03</rscale>
<asrwt>0</asrwt>
<pdfrwt beam="1">  1        2 0.45952414E+00 0.74800840E+03</pdfrwt>
<pdfrwt beam="2">  1       -2 0.70458895E-01 0.74800840E+03</pdfrwt>
<totfact> 0.34687378E+00</totfact>
</mgrwt>
</event>
<event>
 4    1  0.8468429E-007  0.7148385E+03  0.7818608E-02  0.9940454E-01
         -2   -1    0    0    0  501 -0.00000000000E+00  0.00000000000E+00  0.27914241667E+03  0.27914241668E+03  0.25500000000E-02 0.  1.
          2   -1    0    0  501    0  0.00000000000E+00 -0.00000000000E+00 -0.13442340954E+04  0.13442340954E+04  0.25500000000E-02 0. -1.
    8880023    1    1    2    0    0 -0.11563538231E+03  0.25261103404E+03 -0.10919290309E+04  0.13051065439E+04  0.65864270000E+03 0. -1.
    8880022    1    1    2    0    0  0.11563538231E+03 -0.25261103404E+03  0.26837352168E+02  0.31826996818E+03  0.15294330000E+03 0.  0.
<mgrwt>
<rscale>  0 0.58340143E+03</rscale>
<asrwt>0</asrwt>
<pdfrwt beam="1">  1        2 0.20680524E+00 0.71483850E+03</pdfrwt>
<pdfrwt beam="2">  1       -2 0.42944988E-01 0.71483850E+03</pdfrwt>
<totfact> 0.81767813E+01</totfact>
</mgrwt>
</event>
<event>
 4    1  0.8468429E-007  0.7413323E+03  0.7818608E-02  0.9856083E-01
          2   -1    0    0  501    0  0.00000000000E+00  0.00000000000E+00  0.11775826673E+04  0.11775826673E+04  0.25500000000E-02 0. -1.
         -2   -1    0    0    0  501 -0.00000000000E+00 -0.00000000000E+00 -0.38639135617E+03  0.38639135617E+03  0.25500000000E-02 0.  1.
    8880023    1    1    2    0    0 -0.10047333595E+03  0.32506681885E+03  0.90882370661E+03  0.11728316435E+04  0.65864270000E+03 0. -1.
    8880022    1    1    2    0    0  0.10047333595E+03 -0.32506681885E+03 -0.11763239549E+03  0.39114238000E+03  0.15294330000E+03 0.  0.
<mgrwt>
<rscale>  0 0.62437718E+03</rscale>
<asrwt>0</asrwt>
<pdfrwt beam="1">  1        2 0.18116656E+00 0.74133227E+03</pdfrwt>
<pdfrwt beam="2">  1       -2 0.59444825E-01 0.74133227E+03</pdfrwt>
<totfact> 0.52540581E+01</totfact>
</mgrwt>
</event>
<event>
 4    1  0.8468429E-007  0.8425046E+03  0.7818608E-02  0.9625475E-01
         -2   -1    0    0    0  501 -0.00000000000E+00  0.00000000000E+00  0.11450610432E+04  0.11450610432E+04  0.25500000000E-02 0.  1.
          2   -1    0    0  501    0  0.00000000000E+00 -0.00000000000E+00 -0.74633190994E+03  0.74633190994E+03  0.25500000000E-02 0. -1.
    8880023    1    1    2    0    0  0.49338330859E+03 -0.18049040349E+03  0.83906067723E+03  0.11890487380E+04  0.65864270000E+03 0.  0.
    8880022    1    1    2    0    0 -0.49338330859E+03  0.18049040349E+03 -0.44033154397E+03  0.70234421517E+03  0.15294330000E+03 0.  0.
<mgrwt>
<rscale>  0 0.75632750E+03</rscale>
<asrwt>0</asrwt>
<pdfrwt beam="1">  1        2 0.11482029E+00 0.84250465E+03</pdfrwt>
<pdfrwt beam="2">  1       -2 0.17616324E+00 0.84250465E+03</pdfrwt>
<totfact> 0.73319933E+00</totfact>
</mgrwt>
</event>
<event>
 4    1  0.8468429E-007  0.7829455E+03  0.7818608E-02  0.9748963E-01
         -2   -1    0    0    0  501 -0.00000000000E+00  0.00000000000E+00  0.36560637687E+03  0.36560637688E+03  0.25500000000E-02 0.  1.
          2   -1    0    0  501    0  0.00000000000E+00 -0.00000000000E+00 -0.10906288535E+04  0.10906288535E+04  0.25500000000E-02 0. -1.
    8880023    1    1    2    0    0  0.40546354119E+03  0.12162556588E+03 -0.30391633082E+03  0.83986237201E+03  0.65864270000E+03 0.  0.
    8880022    1    1    2    0    0 -0.40546354119E+03 -0.12162556588E+03 -0.42110614585E+03  0.61637285842E+03  0.15294330000E+03 0.  0.
<mgrwt>
<rscale>  0 0.68174913E+03</rscale>
<asrwt>0</asrwt>
<pdfrwt beam="1">  1        2 0.16778905E+00 0.78294551E+03</pdfrwt>
<pdfrwt beam="2">  1       -2 0.56247135E-01 0.78294551E+03</pdfrwt>
<totfact> 0.66354182E+01</totfact>
</mgrwt>
</event>
<event>
 4    1  0.8468429E-007  0.8606817E+03  0.7818608E-02  0.9592352E-01
          2   -1    0    0  501    0  0.00000000000E+00  0.00000000000E+00  0.20609679433E+04  0.20609679433E+04  0.25500000000E-02 0. -1.
         -2   -1    0    0    0  501 -0.00000000000E+00 -0.00000000000E+00 -0.35571972713E+03  0.35571972714E+03  0.25500000000E-02 0.  1.
    8880023    1    1    2    0    0  0.21549647815E+03  0.51041559074E+03  0.16216190667E+04  0.18358707501E+04  0.65864270000E+03 0. -1.
    8880022    1    1    2    0    0 -0.21549647815E+03 -0.51041559074E+03  0.83629149559E+02  0.58081692041E+03  0.15294330000E+03 0.  1.
<mgrwt>
<rscale>  0 0.77804453E+03</rscale>
<asrwt>0</asrwt>
<pdfrwt beam="1">  1        2 0.31707199E+00 0.86068171E+03</pdfrwt>
<pdfrwt beam="2">  1       -2 0.54726112E-01 0.86068171E+03</pdfrwt>
<totfact> 0.19807080E+01</totfact>
</mgrwt>
</event>
<event>
 4    1  0.8468429E-007  0.6596342E+03  0.7818608E-02  0.1024534E+00
         -2   -1    0    0    0  501 -0.00000000000E+00  0.00000000000E+00  0.44608742090E+03  0.44608742090E+03  0.25500000000E-02 0.  1.
          2   -1    0    0  501    0  0.00000000000E+00 -0.00000000000E+00 -0.74947440023E+03  0.74947440023E+03  0.25500000000E-02 0. -1.
    8880023    1    1    2    0    0 -0.85947970803E+01  0.35117823451E+02 -0.57938566010E+03  0.87795505663E+03  0.65864270000E+03 0. -1.
    8880022    1    1    2    0    0  0.85947970803E+01 -0.35117823451E+02  0.27599868077E+03  0.31760676451E+03  0.15294330000E+03 0.  0.
<mgrwt>
<rscale>  0 0.46085239E+03</rscale>
<asrwt>0</asrwt>
<pdfrwt beam="1">  1        2 0.11530375E+00 0.65963425E+03</pdfrwt>
<pdfrwt beam="2">  1       -2 0.68628834E-01 0.65963425E+03</pdfrwt>
<totfact> 0.74274108E+01</totfact>
</mgrwt>
</event>
<event>
 4    1  0.8468429E-007  0.7959583E+03  0.7818608E-02  0.9719604E-01
         -2   -1    0    0    0  501 -0.00000000000E+00  0.00000000000E+00  0.10100305346E+04  0.10100305346E+04  0.25500000000E-02 0.  1.
          2   -1    0    0  501    0  0.00000000000E+00 -0.00000000000E+00 -0.11424624785E+04  0.11424624785E+04  0.25500000000E-02 0. -1.
    8880023    1    1    2    0    0 -0.44635728867E+03 -0.22463547302E+02 -0.93088005161E+03  0.12247805178E+04  0.65864270000E+03 0. -1.
    8880022    1    1    2    0    0  0.44635728867E+03  0.22463547302E+02  0.79844810778E+03  0.92771249530E+03  0.15294330000E+03 0.  0.
<mgrwt>
<rscale>  0 0.69861476E+03</rscale>
<asrwt>0</asrwt>
<pdfrwt beam="1">  1        2 0.17576346E+00 0.79595832E+03</pdfrwt>
<pdfrwt beam="2">  1       -2 0.15538931E+00 0.79595832E+03</pdfrwt>
<totfact> 0.56765148E+00</totfact>
</mgrwt>
</event>
<event>
 4    1  0.8468429E-007  0.8939316E+03  0.7818608E-02  0.9535844E-01
          2   -1    0    0  501    0  0.00000000000E+00  0.00000000000E+00  0.24325158129E+04  0.24325158129E+04  0.25500000000E-02 0. -1.
         -2   -1    0    0    0  501 -0.00000000000E+00 -0.00000000000E+00 -0.36349509989E+03  0.36349509990E+03  0.25500000000E-02 0.  1.
    8880023    1    1    2    0    0 -0.85645779431E+02 -0.59830454032E+03  0.33724821666E+03  0.95543188580E+03  0.65864270000E+03 0.  1.
    8880022    1    1    2    0    0  0.85645779431E+02  0.59830454032E+03  0.17317724964E+04  0.18405790270E+04  0.15294330000E+03 0.  0.
<mgrwt>
<rscale>  0 0.81691969E+03</rscale>
<asrwt>0</asrwt>
<pdfrwt beam="1">  1        2 0.37423319E+00 0.89393161E+03</pdfrwt>
<pdfrwt beam="2">  1       -2 0.55922325E-01 0.89393161E+03</pdfrwt>
<totfact> 0.11713681E+01</totfact>
</mgrwt>
</event>
<event>
 4    1  0.8468429E-007  0.8753088E+03  0.7818608E-02  0.9566892E-01
         -2   -1    0    0    0  501 -0.00000000000E+00  0.00000000000E+00  0.23488833152E+03  0.23488833154E+03  0.25500000000E-02 0.  1.
          2   -1    0    0  501    0  0.00000000000E+00 -0.00000000000E+00 -0.23840110107E+04  0.23840110107E+04  0.25500000000E-02 0. -1.
    8880023    1    1    2    0    0  0.57471505905E+03 -0.45363552008E+02 -0.15050485132E+04  0.17410733713E+04  0.65864270000E+03 0.  0.
    8880022    1    1    2    0    0 -0.57471505905E+03  0.45363552008E+02 -0.64407416600E+03  0.87782597095E+03  0.15294330000E+03 0.  0.
<mgrwt>
<rscale>  0 0.79526818E+03</rscale>
<asrwt>0</asrwt>
<pdfrwt beam="1">  1        2 0.36677091E+00 0.87530878E+03</pdfrwt>
<pdfrwt beam="2">  1       -2 0.36136668E-01 0.87530878E+03</pdfrwt>
<totfact> 0.29949328E+01</totfact>
</mgrwt>
</event>
<event>
 4    1  0.8468429E-007  0.8074626E+03  0.7818608E-02  0.9694887E-01
         -2   -1    0    0    0  501 -0.00000000000E+00  0.00000000000E+00  0.13179766521E+04  0.13179766521E+04  0.25500000000E-02 0.  1.
          2   -1    0    0  501    0  0.00000000000E+00 -0.00000000000E+00 -0.73551499702E+03  0.73551499703E+03  0.25500000000E-02 0. -1.
    8880023    1    1    2    0    0  0.13175391125E+03  0.44813675347E+03 -0.43961314377E+03  0.91937781428E+03  0.65864270000E+03 0. -1.
    8880022    1    1    2    0    0 -0.13175391125E+03 -0.44813675347E+03  0.10220747989E+04  0.11341138349E+04  0.15294330000E+03 0.  0.
<mgrwt>
<rscale>  0 0.71322051E+03</rscale>
<asrwt>0</asrwt>
<pdfrwt beam="1">  1        2 0.11315615E+00 0.80746260E+03</pdfrwt>
<pdfrwt beam="2">  1       -2 0.20276564E+00 0.80746260E+03</pdfrwt>
<totfact> 0.49765744E+00</totfact>
</mgrwt>
</event>
<event>
 4    1  0.8468429E-007  0.6996772E+03  0.7818608E-02  0.9998543E-01
          2   -1    0    0  501    0  0.00000000000E+00  0.00000000000E+00  0.37219074871E+03  0.37219074871E+03  0.25500000000E-02 0. -1.
         -2   -1    0    0    0  501 -0.00000000000E+00 -0.00000000000E+00 -0.82363155276E+03  0.82363155277E+03  0.25500000000E-02 0.  1.
    8880023    1    1    2    0    0 -0.16557923002E+03 -0.16828990542E+03 -0.44461752799E+02  0.70108845904E+03  0.65864270000E+03 0. -1.
    8880022    1    1    2    0    0  0.16557923002E+03  0.16828990542E+03 -0.40697905126E+03  0.49473384244E+03  0.15294330000E+03 0.  0.
<mgrwt>
<rscale>  0 0.55714172E+03</rscale>
<asrwt>0</asrwt>
<pdfrwt beam="1">  1        2 0.57260115E-01 0.69967720E+03</pdfrwt>
<pdfrwt beam="2">  1       -2 0.12671255E+00 0.69967720E+03</pdfrwt>
<totfact> 0.40553608E+01</totfact>
</mgrwt>
</event>
<event>
 4    1  0.8468429E-007  0.6800001E+03  0.7818608E-02  0.1009324E+00
          2   -1    0    0  501    0  0.00000000000E+00  0.00000000000E+00  0.37171800960E+03  0.37171800961E+03  0.25500000000E-02 0. -1.
         -2   -1    0    0    0  501 -0.00000000000E+00 -0.00000000000E+00 -0.18986332822E+04  0.18986332822E+04  0.25500000000E-02 0.  1.
    8880023    1    1    2    0    0 -0.12016172642E+03  0.11895848101E+03  0.45473593774E+02  0.68151890267E+03  0.65864270000E+03 0. -1.
    8880022    1    1    2    0    0  0.12016172642E+03 -0.11895848101E+03 -0.15723888664E+04  0.15888323892E+04  0.15294330000E+03 0.  0.
<mgrwt>
<rscale>  0 0.51744353E+03</rscale>
<asrwt>0</asrwt>
<pdfrwt beam="1">  1        2 0.57187387E-01 0.68000012E+03</pdfrwt>
<pdfrwt beam="2">  1       -2 0.29209742E+00 0.68000012E+03</pdfrwt>
<totfact> 0.32193177E+00</totfact>
</mgrwt>
</event>
<event>
 4    1  0.8468429E-007  0.1173637E+04  0.7818608E-02  0.9183185E-01
          2   -1    0    0  501    0  0.00000000000E+00  0.00000000000E+00  0.12694585039E+04  0.12694585039E+04  0.25500000000E-02 0. -1.
         -2   -1    0    0    0  501 -0.00000000000E+00 -0.00000000000E+00 -0.11610498040E+04  0.11610498040E+04  0.25500000000E-02 0.  1.
    8880023    1    1    2    0    0  0.74149875403E+03 -0.62752965345E+03  0.61425835228E+03  0.13246650134E+04  0.65864270000E+03 0.  0.
    8880022    1    1    2    0    0 -0.74149875403E+03  0.62752965345E+03 -0.50584965243E+03  0.11058432945E+04  0.15294330000E+03 0.  0.
<mgrwt>
<rscale>  0 0.11228687E+04</rscale>
<asrwt>0</asrwt>
<pdfrwt beam="1">  1        2 0.19530131E+00 0.11736371E+04</pdfrwt>
<pdfrwt beam="2">  1       -2 0.17862305E+00 0.11736371E+04</pdfrwt>
<totfact> 0.31086680E+00</totfact>
</mgrwt>
</event>
<event>
 4    1  0.8468429E-007  0.1216956E+04  0.7818608E-02  0.9140813E-01
          2   -1    0    0  501    0  0.00000000000E+00  0.00000000000E+00  0.23295624735E+04  0.23295624735E+04  0.25500000000E-02 0. -1.
         -2   -1    0    0    0  501 -0.00000000000E+00 -0.00000000000E+00 -0.14008196981E+04  0.14008196981E+04  0.25500000000E-02 0.  1.
    8880023    1    1    2    0    0 -0.10059271517E+04  0.18783649522E+03  0.19357838333E+04  0.22865347666E+04  0.65864270000E+03 0.  0.
    8880022    1    1    2    0    0  0.10059271517E+04 -0.18783649522E+03 -0.10070410579E+04  0.14438474050E+04  0.15294330000E+03 0.  0.
<mgrwt>
<rscale>  0 0.11685781E+04</rscale>
<asrwt>0</asrwt>
<pdfrwt beam="1">  1        2 0.35839422E+00 0.12169561E+04</pdfrwt>
<pdfrwt beam="2">  1       -2 0.21551072E+00 0.12169561E+04</pdfrwt>
<totfact> 0.44739703E-01</totfact>
</mgrwt>
</event>
<event>
 4    1  0.8468429E-007  0.7033586E+03  0.7818608E-02  0.9983544E-01
         -2   -1    0    0    0  501 -0.00000000000E+00  0.00000000000E+00  0.22278365703E+03  0.22278365705E+03  0.25500000000E-02 0.  1.
          2   -1    0    0  501    0  0.00000000000E+00 -0.00000000000E+00 -0.20880693027E+04  0.20880693027E+04  0.25500000000E-02 0. -1.
    8880023    1    1    2    0    0 -0.22449319421E+03 -0.10249809590E+03 -0.18927593676E+04  0.20192204644E+04  0.65864270000E+03 0. -1.
    8880022    1    1    2    0    0  0.22449319421E+03  0.10249809590E+03  0.27473721972E+02  0.29163249532E+03  0.15294330000E+03 0.  0.
<mgrwt>
<rscale>  0 0.56377734E+03</rscale>
<asrwt>0</asrwt>
<pdfrwt beam="1">  1        2 0.32124142E+00 0.70335856E+03</pdfrwt>
<pdfrwt beam="2">  1       -2 0.34274410E-01 0.70335856E+03</pdfrwt>
<totfact> 0.49373119E+01</totfact>
</mgrwt>
</event>
<event>
 4    1  0.8468429E-007  0.6830470E+03  0.7818608E-02  0.1007650E+00
          2   -1    0    0  501    0  0.00000000000E+00  0.00000000000E+00  0.53106858751E+03  0.53106858751E+03  0.25500000000E-02 0. -1.
         -2   -1    0    0    0  501 -0.00000000000E+00 -0.00000000000E+00 -0.99301289432E+03  0.99301289432E+03  0.25500000000E-02 0.  1.
    8880023    1    1    2    0    0  0.96116594139E+02 -0.15331208322E+03  0.28525477293E+03  0.74021853953E+03  0.65864270000E+03 0. -1.
    8880022    1    1    2    0    0 -0.96116594139E+02  0.15331208322E+03 -0.74719907974E+03  0.78386294230E+03  0.15294330000E+03 0.  0.
<mgrwt>
<rscale>  0 0.52419372E+03</rscale>
<asrwt>0</asrwt>
<pdfrwt beam="1">  1        2 0.81702860E-01 0.68304700E+03</pdfrwt>
<pdfrwt beam="2">  1       -2 0.15277121E+00 0.68304700E+03</pdfrwt>
<totfact> 0.16713477E+01</totfact>
</mgrwt>
</event>
<event>
 4    1  0.8468429E-007  0.7633422E+03  0.7818608E-02  0.9796531E-01
          2   -1    0    0  501    0  0.00000000000E+00  0.00000000000E+00  0.98019522879E+03  0.98019522879E+03  0.25500000000E-02 0. -1.
         -2   -1    0    0    0  501 -0.00000000000E+00 -0.00000000000E+00 -0.47486096092E+03  0.47486096093E+03  0.25500000000E-02 0.  1.
    8880023    1    1    2    0    0  0.36764241896E+03  0.11713281969E+03  0.66299282738E+03  0.10110641627E+04  0.65864270000E+03 0.  0.
    8880022    1    1    2    0    0 -0.36764241896E+03 -0.11713281969E+03 -0.15765855951E+03  0.44399202703E+03  0.15294330000E+03 0.  0.
<mgrwt>
<rscale>  0 0.65549064E+03</rscale>
<asrwt>0</asrwt>
<pdfrwt beam="1">  1        2 0.15079927E+00 0.76334216E+03</pdfrwt>
<pdfrwt beam="2">  1       -2 0.73055532E-01 0.76334216E+03</pdfrwt>
<totfact> 0.44530940E+01</totfact>
</mgrwt>
</event>
<event>
 4    1  0.8468429E-007  0.7015788E+03  0.7818608E-02  0.9990714E-01
          2   -1    0    0  501    0  0.00000000000E+00  0.00000000000E+00  0.15649337375E+04  0.15649337375E+04  0.25500000000E-02 0. -1.
         -2   -1    0    0    0  501 -0.00000000000E+00 -0.00000000000E+00 -0.60904235813E+03  0.60904235813E+03  0.25500000000E-02 0.  1.
    8880023    1    1    2    0    0 -0.16018624624E+03 -0.18095010208E+03  0.14456107049E+04  0.16068612539E+04  0.65864270000E+03 0. -1.
    8880022    1    1    2    0    0  0.16018624624E+03  0.18095010208E+03 -0.48971932551E+03  0.56711484174E+03  0.15294330000E+03 0.  0.
<mgrwt>
<rscale>  0 0.56059299E+03</rscale>
<asrwt>0</asrwt>
<pdfrwt beam="1">  1        2 0.24075903E+00 0.70157878E+03</pdfrwt>
<pdfrwt beam="2">  1       -2 0.93698825E-01 0.70157878E+03</pdfrwt>
<totfact> 0.11598575E+01</totfact>
</mgrwt>
</event>
<event>
 4    1  0.8468429E-007  0.6939525E+03  0.7818608E-02  0.1002328E+00
         -2   -1    0    0    0  501 -0.00000000000E+00  0.00000000000E+00  0.85148628519E+02  0.85148628557E+02  0.25500000000E-02 0.  1.
          2   -1    0    0  501    0  0.00000000000E+00 -0.00000000000E+00 -0.33390235307E+04  0.33390235307E+04  0.25500000000E-02 0. -1.
    8880023    1    1    2    0    0  0.11717342704E+03 -0.18447286174E+03 -0.28950679279E+04  0.29770771509E+04  0.65864270000E+03 0.  0.
    8880022    1    1    2    0    0 -0.11717342704E+03  0.18447286174E+03 -0.35880697423E+03  0.44709500836E+03  0.15294330000E+03 0.  1.
<mgrwt>
<rscale>  0 0.54641210E+03</rscale>
<asrwt>0</asrwt>
<pdfrwt beam="1">  1        2 0.51369583E+00 0.69395249E+03</pdfrwt>
<pdfrwt beam="2">  1       -2 0.13099792E-01 0.69395249E+03</pdfrwt>
<totfact> 0.49742783E+01</totfact>
</mgrwt>
</event>
<event>
 4    1  0.8468429E-007  0.7023760E+03  0.7818608E-02  0.9987484E-01
         -2   -1    0    0    0  501 -0.00000000000E+00  0.00000000000E+00  0.14415800439E+04  0.14415800440E+04  0.25500000000E-02 0.  1.
          2   -1    0    0  501    0  0.00000000000E+00 -0.00000000000E+00 -0.27164338879E+03  0.27164338881E+03  0.25500000000E-02 0. -1.
    8880023    1    1    2    0    0 -0.83037497728E+02  0.22940487922E+03  0.24400614060E+03  0.74355297562E+03  0.65864270000E+03 0. -1.
    8880022    1    1    2    0    0  0.83037497728E+02 -0.22940487922E+03  0.92593051456E+03  0.96967045714E+03  0.15294330000E+03 0.  0.
<mgrwt>
<rscale>  0 0.56202468E+03</rscale>
<asrwt>0</asrwt>
<pdfrwt beam="1">  1        2 0.41791291E-01 0.70237599E+03</pdfrwt>
<pdfrwt beam="2">  1       -2 0.22178154E+00 0.70237599E+03</pdfrwt>
<totfact> 0.12116409E+01</totfact>
</mgrwt>
</event>
<event>
 4    1  0.8468429E-007  0.7891175E+03  0.7818608E-02  0.9734840E-01
          2   -1    0    0  501    0  0.00000000000E+00  0.00000000000E+00  0.86470405469E+03  0.86470405469E+03  0.25500000000E-02 0. -1.
         -2   -1    0    0    0  501 -0.00000000000E+00 -0.00000000000E+00 -0.53608085332E+03  0.53608085332E+03  0.25500000000E-02 0.  1.
    8880023    1    1    2    0    0  0.40506543490E+03 -0.15753802801E+03  0.47044055321E+03  0.91870602327E+03  0.65864270000E+03 0.  1.
    8880022    1    1    2    0    0 -0.40506543490E+03  0.15753802801E+03 -0.14181735184E+03  0.48207888475E+03  0.15294330000E+03 0.  0.
<mgrwt>
<rscale>  0 0.68979797E+03</rscale>
<asrwt>0</asrwt>
<pdfrwt beam="1">  1        2 0.13303139E+00 0.78911751E+03</pdfrwt>
<pdfrwt beam="2">  1       -2 0.82473977E-01 0.78911751E+03</pdfrwt>
<totfact> 0.40447913E+01</totfact>
</mgrwt>
</event>
<event>
 4    1  0.8468429E-007  0.6814839E+03  0.7818608E-02  0.1008496E+00
          2   -1    0    0  501    0  0.00000000000E+00  0.00000000000E+00  0.25541678689E+03  0.25541678690E+03  0.25500000000E-02 0. -1.
         -2   -1    0    0    0  501 -0.00000000000E+00 -0.00000000000E+00 -0.11664134497E+04  0.11664134497E+04  0.25500000000E-02 0.  1.
    8880023    1    1    2    0    0  0.25709018957E+02 -0.17305809196E+03 -0.25794890845E+03  0.72866858206E+03  0.65864270000E+03 0. -1.
    8880022    1    1    2    0    0 -0.25709018957E+02  0.17305809196E+03 -0.65304775433E+03  0.69316165452E+03  0.15294330000E+03 0.  0.
<mgrwt>
<rscale>  0 0.52076600E+03</rscale>
<asrwt>0</asrwt>
<pdfrwt beam="1">  1        2 0.39294891E-01 0.68148387E+03</pdfrwt>
<pdfrwt beam="2">  1       -2 0.17944822E+00 0.68148387E+03</pdfrwt>
<totfact> 0.24504031E+01</totfact>
</mgrwt>
</event>
<event>
 4    1  0.8468429E-007  0.1053112E+04  0.7818608E-02  0.9315150E-01
          2   -1    0    0  501    0  0.00000000000E+00  0.00000000000E+00  0.28156129193E+04  0.28156129193E+04  0.25500000000E-02 0. -1.
         -2   -1    0    0    0  501 -0.00000000000E+00 -0.00000000000E+00 -0.50799115676E+03  0.50799115677E+03  0.25500000000E-02 0.  1.
    8880023    1    1    2    0    0  0.73699491755E+03  0.36341810883E+03  0.22518166411E+04  0.24859047894E+04  0.65864270000E+03 0.  0.
    8880022    1    1    2    0    0 -0.73699491755E+03 -0.36341810883E+03  0.55805121399E+02  0.83769928668E+03  0.15294330000E+03 0.  0.
<mgrwt>
<rscale>  0 0.99400013E+03</rscale>
<asrwt>0</asrwt>
<pdfrwt beam="1">  1        2 0.43317122E+00 0.10531118E+04</pdfrwt>
<pdfrwt beam="2">  1       -2 0.78152486E-01 0.10531118E+04</pdfrwt>
<totfact> 0.33269943E+00</totfact>
</mgrwt>
</event>
<event>
 4    1  0.8468429E-007  0.7209994E+03  0.7818608E-02  0.9919219E-01
         -2   -1    0    0    0  501 -0.00000000000E+00  0.00000000000E+00  0.29098158181E+03  0.29098158182E+03  0.25500000000E-02 0.  1.
          2   -1    0    0  501    0  0.00000000000E+00 -0.00000000000E+00 -0.12491168697E+04  0.12491168697E+04  0.25500000000E-02 0. -1.
    8880023    1    1    2    0    0 -0.26439097579E+03  0.12699360883E+03 -0.97057841673E+03  0.12090751151E+04  0.65864270000E+03 0.  0.
    8880022    1    1    2    0    0  0.26439097579E+03 -0.12699360883E+03  0.12443128837E+02  0.33102333639E+03  0.15294330000E+03 0.  0.
<mgrwt>
<rscale>  0 0.59338844E+03</rscale>
<asrwt>0</asrwt>
<pdfrwt beam="1">  1        2 0.19217182E+00 0.72099943E+03</pdfrwt>
<pdfrwt beam="2">  1       -2 0.44766398E-01 0.72099943E+03</pdfrwt>
<totfact> 0.85388065E+01</totfact>
</mgrwt>
</event>
<event>
 4    1  0.8468429E-007  0.1433683E+04  0.7818608E-02  0.8957943E-01
         -2   -1    0    0    0  501 -0.00000000000E+00  0.00000000000E+00  0.14680916795E+04  0.14680916795E+04  0.25500000000E-02 0.  1.
          2   -1    0    0  501    0  0.00000000000E+00 -0.00000000000E+00 -0.30050270746E+04  0.30050270746E+04  0.25500000000E-02 0. -1.
    8880023    1    1    2    0    0 -0.83326955361E+03  0.96296319577E+03 -0.24913314409E+04  0.28744006018E+04  0.65864270000E+03 0.  0.
    8880022    1    1    2    0    0  0.83326955361E+03 -0.96296319577E+03  0.95439604573E+03  0.15987181523E+04  0.15294330000E+03 0.  0.
<mgrwt>
<rscale>  0 0.13943168E+04</rscale>
<asrwt>0</asrwt>
<pdfrwt beam="1">  1        2 0.46231185E+00 0.14336828E+04</pdfrwt>
<pdfrwt beam="2">  1       -2 0.22586026E+00 0.14336828E+04</pdfrwt>
<totfact> 0.14899776E-01</totfact>
</mgrwt>
</event>
<event>
 4    1  0.8468429E-007  0.7271587E+03  0.7818608E-02  0.9899068E-01
          2   -1    0    0  501    0  0.00000000000E+00  0.00000000000E+00  0.11443025781E+04  0.11443025781E+04  0.25500000000E-02 0. -1.
         -2   -1    0    0    0  501 -0.00000000000E+00 -0.00000000000E+00 -0.33666316762E+03  0.33666316763E+03  0.25500000000E-02 0.  1.
    8880023    1    1    2    0    0  0.15703547488E+03 -0.26512157052E+03  0.86732560345E+03  0.11318186675E+04  0.65864270000E+03 0.  0.
    8880022    1    1    2    0    0 -0.15703547488E+03  0.26512157052E+03 -0.59686193017E+02  0.34914707815E+03  0.15294330000E+03 0.  0.
<mgrwt>
<rscale>  0 0.60306472E+03</rscale>
<asrwt>0</asrwt>
<pdfrwt beam="1">  1        2 0.17604655E+00 0.72715871E+03</pdfrwt>
<pdfrwt beam="2">  1       -2 0.51794333E-01 0.72715871E+03</pdfrwt>
<totfact> 0.73335552E+01</totfact>
</mgrwt>
</event>
<event>
 4    1  0.8468429E-007  0.1206042E+04  0.7818608E-02  0.9151271E-01
          2   -1    0    0  501    0  0.00000000000E+00  0.00000000000E+00  0.25532769316E+04  0.25532769316E+04  0.25500000000E-02 0. -1.
         -2   -1    0    0    0  501 -0.00000000000E+00 -0.00000000000E+00 -0.71305873305E+03  0.71305873306E+03  0.25500000000E-02 0.  1.
    8880023    1    1    2    0    0  0.10099295913E+04  0.27750199470E+02  0.18914404825E+04  0.22432309640E+04  0.65864270000E+03 0.  0.
    8880022    1    1    2    0    0 -0.10099295913E+04 -0.27750199470E+02 -0.51222283951E+02  0.10231047006E+04  0.15294330000E+03 0.  0.
<mgrwt>
<rscale>  0 0.11570861E+04</rscale>
<asrwt>0</asrwt>
<pdfrwt beam="1">  1        2 0.39281184E+00 0.12060423E+04</pdfrwt>
<pdfrwt beam="2">  1       -2 0.10970134E+00 0.12060423E+04</pdfrwt>
<totfact> 0.21050104E+00</totfact>
</mgrwt>
</event>
<event>
 4    1  0.8468429E-007  0.1178429E+04  0.7818608E-02  0.9178382E-01
          2   -1    0    0  501    0  0.00000000000E+00  0.00000000000E+00  0.20507272927E+04  0.20507272927E+04  0.25500000000E-02 0. -1.
         -2   -1    0    0    0  501 -0.00000000000E+00 -0.00000000000E+00 -0.72382693091E+03  0.72382693091E+03  0.25500000000E-02 0.  1.
    8880023    1    1    2    0    0  0.97624340479E+03  0.42812599528E+02  0.13412159676E+04  0.17853723931E+04  0.65864270000E+03 0. -1.
    8880022    1    1    2    0    0 -0.97624340479E+03 -0.42812599528E+02 -0.14315605892E+02  0.98918183043E+03  0.15294330000E+03 0.  0.
<mgrwt>
<rscale>  0 0.11279378E+04</rscale>
<asrwt>0</asrwt>
<pdfrwt beam="1">  1        2 0.31549650E+00 0.11784287E+04</pdfrwt>
<pdfrwt beam="2">  1       -2 0.11135799E+00 0.11784287E+04</pdfrwt>
<totfact> 0.39123905E+00</totfact>
</mgrwt>
</event>
<event>
 4    1  0.8468429E-007  0.9506650E+03  0.7818608E-02  0.9449158E-01
         -2   -1    0    0    0  501 -0.00000000000E+00  0.00000000000E+00  0.10088076872E+04  0.10088076872E+04  0.25500000000E-02 0.  1.
          2   -1    0    0  501    0  0.00000000000E+00 -0.00000000000E+00 -0.15367903165E+04  0.15367903165E+04  0.25500000000E-02 0. -1.
    8880023    1    1    2    0    0 -0.62430628446E+03  0.28318792580E+03 -0.12286464515E+04  0.15534915665E+04  0.65864270000E+03 0.  0.
    8880022    1    1    2    0    0  0.62430628446E+03 -0.28318792580E+03  0.70066382215E+03  0.99210643725E+03  0.15294330000E+03 0.  0.
<mgrwt>
<rscale>  0 0.88138268E+03</rscale>
<asrwt>0</asrwt>
<pdfrwt beam="1">  1        2 0.23642928E+00 0.95066500E+03</pdfrwt>
<pdfrwt beam="2">  1       -2 0.15520118E+00 0.95066500E+03</pdfrwt>
<totfact> 0.33069123E+00</totfact>
</mgrwt>
</event>
<event>
 4    1  0.8468429E-007  0.6831982E+03  0.7818608E-02  0.1007569E+00
         -2   -1    0    0    0  501 -0.00000000000E+00  0.00000000000E+00  0.36724301579E+03  0.36724301580E+03  0.25500000000E-02 0.  1.
          2   -1    0    0  501    0  0.00000000000E+00 -0.00000000000E+00 -0.12099461816E+04  0.12099461816E+04  0.25500000000E-02 0. -1.
    8880023    1    1    2    0    0 -0.67428986421E+02  0.16853145638E+03 -0.10562229025E+04  0.12579215182E+04  0.65864270000E+03 0. -1.
    8880022    1    1    2    0    0  0.67428986421E+02 -0.16853145638E+03  0.21351973668E+03  0.31926767917E+03  0.15294330000E+03 0.  0.
<mgrwt>
<rscale>  0 0.52452145E+03</rscale>
<asrwt>0</asrwt>
<pdfrwt beam="1">  1        2 0.18614556E+00 0.68319816E+03</pdfrwt>
<pdfrwt beam="2">  1       -2 0.56498926E-01 0.68319816E+03</pdfrwt>
<totfact> 0.56240681E+01</totfact>
</mgrwt>
</event>
<event>
 4    1  0.8468429E-007  0.7856647E+03  0.7818608E-02  0.9742695E-01
          2   -1    0    0  501    0  0.00000000000E+00  0.00000000000E+00  0.15966687462E+04  0.15966687462E+04  0.25500000000E-02 0. -1.
         -2   -1    0    0    0  501 -0.00000000000E+00 -0.00000000000E+00 -0.29231922086E+03  0.29231922088E+03  0.25500000000E-02 0.  1.
    8880023    1    1    2    0    0 -0.26945174239E+03 -0.33294831201E+03  0.11797517828E+04  0.14174213542E+04  0.65864270000E+03 0.  0.
    8880022    1    1    2    0    0  0.26945174239E+03  0.33294831201E+03  0.12459774251E+03  0.47156661289E+03  0.15294330000E+03 0.  0.
<mgrwt>
<rscale>  0 0.68530673E+03</rscale>
<asrwt>0</asrwt>
<pdfrwt beam="1">  1        2 0.24564134E+00 0.78566470E+03</pdfrwt>
<pdfrwt beam="2">  1       -2 0.44972188E-01 0.78566470E+03</pdfrwt>
<totfact> 0.53517308E+01</totfact>
</mgrwt>
</event>
<event>
 4    1  0.8468429E-007  0.6703752E+03  0.7818608E-02  0.1015395E+00
          2   -1    0    0  501    0  0.00000000000E+00  0.00000000000E+00  0.20832244494E+04  0.20832244495E+04  0.25500000000E-02 0. -1.
         -2   -1    0    0    0  501 -0.00000000000E+00 -0.00000000000E+00 -0.11601508750E+03  0.11601508753E+03  0.25500000000E-02 0.  1.
    8880023    1    1    2    0    0  0.82175033770E+02  0.94020977532E+02  0.18543731920E+04  0.19718272799E+04  0.65864270000E+03 0. -1.
    8880022    1    1    2    0    0 -0.82175033770E+02 -0.94020977532E+02  0.11283616993E+03  0.22741225704E+03  0.15294330000E+03 0.  0.
<mgrwt>
<rscale>  0 0.49385529E+03</rscale>
<asrwt>0</asrwt>
<pdfrwt beam="1">  1        2 0.32049610E+00 0.67037518E+03</pdfrwt>
<pdfrwt beam="2">  1       -2 0.17848473E-01 0.67037518E+03</pdfrwt>
<totfact> 0.16166024E+02</totfact>
</mgrwt>
</event>
<event>
 4    1  0.8468429E-007  0.7838813E+03  0.7818608E-02  0.9746798E-01
         -2   -1    0    0    0  501 -0.00000000000E+00  0.00000000000E+00  0.49522166303E+03  0.49522166303E+03  0.25500000000E-02 0.  1.
          2   -1    0    0  501    0  0.00000000000E+00 -0.00000000000E+00 -0.25642558012E+04  0.25642558012E+04  0.25500000000E-02 0. -1.
    8880023    1    1    2    0    0  0.28999668895E+03 -0.31074352017E+03 -0.23834905907E+04  0.25090829434E+04  0.65864270000E+03 0. -1.
    8880022    1    1    2    0    0 -0.28999668895E+03  0.31074352017E+03  0.31445645254E+03  0.55039452076E+03  0.15294330000E+03 0.  0.
<mgrwt>
<rscale>  0 0.68297549E+03</rscale>
<asrwt>0</asrwt>
<pdfrwt beam="1">  1        2 0.39450089E+00 0.78388125E+03</pdfrwt>
<pdfrwt beam="2">  1       -2 0.76187950E-01 0.78388125E+03</pdfrwt>
<totfact> 0.51487175E+00</totfact>
</mgrwt>
</event>
<event>
 4    1  0.8468429E-007  0.7351557E+03  0.7818608E-02  0.9874290E-01
         -2   -1    0    0    0  501 -0.00000000000E+00  0.00000000000E+00  0.14782334876E+04  0.14782334876E+04  0.25500000000E-02 0.  1.
          2   -1    0    0  501    0  0.00000000000E+00 -0.00000000000E+00 -0.55100478442E+03  0.55100478443E+03  0.25500000000E-02 0. -1.
    8880023    1    1    2    0    0 -0.32462969866E+03 -0.35485013320E+02 -0.26670266225E+03  0.78203845413E+03  0.65864270000E+03 0.  0.
    8880022    1    1    2    0    0  0.32462969866E+03  0.35485013320E+02  0.11939313654E+04  0.12471998179E+04  0.15294330000E+03 0.  0.
<mgrwt>
<rscale>  0 0.61523655E+03</rscale>
<asrwt>0</asrwt>
<pdfrwt beam="1">  1        2 0.84769967E-01 0.73515565E+03</pdfrwt>
<pdfrwt beam="2">  1       -2 0.22742053E+00 0.73515565E+03</pdfrwt>
<totfact> 0.50047220E+00</totfact>
</mgrwt>
</event>
<event>
 4    1  0.8468429E-007  0.7690578E+03  0.7818608E-02  0.9782198E-01
          2   -1    0    0  501    0  0.00000000000E+00  0.00000000000E+00  0.97698590773E+03  0.97698590773E+03  0.25500000000E-02 0. -1.
         -2   -1    0    0    0  501 -0.00000000000E+00 -0.00000000000E+00 -0.11751291967E+04  0.11751291967E+04  0.25500000000E-02 0.  1.
    8880023    1    1    2    0    0 -0.17183631499E+03 -0.35792727819E+03  0.77389367981E+03  0.10910367957E+04  0.65864270000E+03 0. -1.
    8880022    1    1    2    0    0  0.17183631499E+03  0.35792727819E+03 -0.97203696883E+03  0.10610783088E+04  0.15294330000E+03 0.  0.
<mgrwt>
<rscale>  0 0.66326707E+03</rscale>
<asrwt>0</asrwt>
<pdfrwt beam="1">  1        2 0.15030552E+00 0.76905778E+03</pdfrwt>
<pdfrwt beam="2">  1       -2 0.18078911E+00 0.76905778E+03</pdfrwt>
<totfact> 0.47543027E+00</totfact>
</mgrwt>
</event>
<event>
 4    1  0.8468429E-007  0.1455853E+04  0.7818608E-02  0.8941456E-01
         -2   -1    0    0    0  501 -0.00000000000E+00  0.00000000000E+00  0.76267200834E+03  0.76267200834E+03  0.25500000000E-02 0.  1.
          2   -1    0    0  501    0  0.00000000000E+00 -0.00000000000E+00 -0.26922158783E+04  0.26922158783E+04  0.25500000000E-02 0. -1.
    8880023    1    1    2    0    0  0.11161983266E+04 -0.66317239051E+03 -0.55534295889E+03  0.15581759631E+04  0.65864270000E+03 0.  0.
    8880022    1    1    2    0    0 -0.11161983266E+04  0.66317239051E+03 -0.13742009110E+04  0.18967119235E+04  0.15294330000E+03 0.  0.
<mgrwt>
<rscale>  0 0.14172080E+04</rscale>
<asrwt>0</asrwt>
<pdfrwt beam="1">  1        2 0.41418705E+00 0.14558525E+04</pdfrwt>
<pdfrwt beam="2">  1       -2 0.11733416E+00 0.14558525E+04</pdfrwt>
<totfact> 0.14393618E+00</totfact>
</mgrwt>
</event>
<event>
 4    1  0.8468429E-007  0.7218498E+03  0.7818608E-02  0.9916376E-01
          2   -1    0    0  501    0  0.00000000000E+00  0.00000000000E+00  0.15562172496E+04  0.15562172496E+04  0.25500000000E-02 0. -1.
         -2   -1    0    0    0  501 -0.00000000000E+00 -0.00000000000E+00 -0.37718884054E+03  0.37718884054E+03  0.25500000000E-02 0.  1.
    8880023    1    1    2    0    0  0.28929983665E+03  0.59686489967E+02  0.13709457216E+04  0.15493738253E+04  0.65864270000E+03 0. -1.
    8880022    1    1    2    0    0 -0.28929983665E+03 -0.59686489967E+02 -0.19191731257E+03  0.38403226485E+03  0.15294330000E+03 0.  0.
<mgrwt>
<rscale>  0 0.59474160E+03</rscale>
<asrwt>0</asrwt>
<pdfrwt beam="1">  1        2 0.23941804E+00 0.72184976E+03</pdfrwt>
<pdfrwt beam="2">  1       -2 0.58029053E-01 0.72184976E+03</pdfrwt>
<totfact> 0.33689093E+01</totfact>
</mgrwt>
</event>
<event>
 4    1  0.8468429E-007  0.7770970E+03  0.7818608E-02  0.9762701E-01
          2   -1    0    0  501    0  0.00000000000E+00  0.00000000000E+00  0.36521001926E+04  0.36521001926E+04  0.25500000000E-02 0. -1.
         -2   -1    0    0    0  501 -0.00000000000E+00 -0.00000000000E+00 -0.10301371283E+03  0.10301371287E+03  0.25500000000E-02 0.  1.
    8880023    1    1    2    0    0 -0.27332276714E+03  0.30881104433E+03  0.20308970387E+04  0.21744936385E+04  0.65864270000E+03 0.  1.
    8880022    1    1    2    0    0  0.27332276714E+03 -0.30881104433E+03  0.15181894411E+04  0.15806202670E+04  0.15294330000E+03 0. -1.
<mgrwt>
<rscale>  0 0.67403227E+03</rscale>
<asrwt>0</asrwt>
<pdfrwt beam="1">  1        2 0.56186157E+00 0.77709704E+03</pdfrwt>
<pdfrwt beam="2">  1       -2 0.15848264E-01 0.77709704E+03</pdfrwt>
<totfact> 0.21774562E+01</totfact>
</mgrwt>
</event>
<event>
 4    1  0.8468429E-007  0.9763675E+03  0.7818608E-02  0.9413151E-01
         -2   -1    0    0    0  501 -0.00000000000E+00  0.00000000000E+00  0.14760582795E+04  0.14760582795E+04  0.25500000000E-02 0.  1.
          2   -1    0    0  501    0  0.00000000000E+00 -0.00000000000E+00 -0.13856525943E+04  0.13856525943E+04  0.25500000000E-02 0. -1.
    8880023    1    1    2    0    0 -0.51556777170E+03  0.50365983314E+03 -0.10943123514E+04  0.14665650628E+04  0.65864270000E+03 0.  0.
    8880022    1    1    2    0    0  0.51556777170E+03 -0.50365983314E+03  0.11847180366E+04  0.13951458110E+04  0.15294330000E+03 0.  0.
<mgrwt>
<rscale>  0 0.91001275E+03</rscale>
<asrwt>0</asrwt>
<pdfrwt beam="1">  1        2 0.21317732E+00 0.97636753E+03</pdfrwt>
<pdfrwt beam="2">  1       -2 0.22708589E+00 0.97636753E+03</pdfrwt>
<totfact> 0.13128499E+00</totfact>
</mgrwt>
</event>
<event>
 4    1  0.8468429E-007  0.7153411E+03  0.7818608E-02  0.9938677E-01
          2   -1    0    0  501    0  0.00000000000E+00  0.00000000000E+00  0.83834058638E+03  0.83834058638E+03  0.25500000000E-02 0. -1.
         -2   -1    0    0    0  501 -0.00000000000E+00 -0.00000000000E+00 -0.47311524413E+03  0.47311524414E+03  0.25500000000E-02 0.  1.
    8880023    1    1    2    0    0  0.83909898835E+01 -0.27898426557E+03  0.58549331172E+03  0.92439994238E+03  0.65864270000E+03 0. -1.
    8880022    1    1    2    0    0 -0.83909898835E+01  0.27898426557E+03 -0.22026796947E+03  0.38705588813E+03  0.15294330000E+03 0.  0.
<mgrwt>
<rscale>  0 0.58422883E+03</rscale>
<asrwt>0</asrwt>
<pdfrwt beam="1">  1        2 0.12897548E+00 0.71534106E+03</pdfrwt>
<pdfrwt beam="2">  1       -2 0.72786960E-01 0.71534106E+03</pdfrwt>
<totfact> 0.56100634E+01</totfact>
</mgrwt>
</event>
<event>
 4    1  0.8468429E-007  0.9906220E+03  0.7818608E-02  0.9393931E-01
         -2   -1    0    0    0  501 -0.00000000000E+00  0.00000000000E+00  0.81056427209E+03  0.81056427209E+03  0.25500000000E-02 0.  1.
          2   -1    0    0  501    0  0.00000000000E+00 -0.00000000000E+00 -0.13583442966E+04  0.13583442966E+04  0.25500000000E-02 0. -1.
    8880023    1    1    2    0    0  0.49783191844E+03  0.54743496351E+03 -0.89711982835E+03  0.13364714179E+04  0.65864270000E+03 0.  1.
    8880022    1    1    2    0    0 -0.49783191844E+03 -0.54743496351E+03  0.34933980387E+03  0.83243715071E+03  0.15294330000E+03 0.  0.
<mgrwt>
<rscale>  0 0.92576815E+03</rscale>
<asrwt>0</asrwt>
<pdfrwt beam="1">  1        2 0.20897605E+00 0.99062196E+03</pdfrwt>
<pdfrwt beam="2">  1       -2 0.12470220E+00 0.99062196E+03</pdfrwt>
<totfact> 0.73309119E+00</totfact>
</mgrwt>
</event>
<event>
 4    1  0.9260221E-007  0.1092920E+04  0.7818608E-02  0.9268980E-01
          2   -1    0    0  501    0  0.00000000000E+00  0.00000000000E+00  0.23487473910E+04  0.23487473910E+04  0.25500000000E-02 0. -1.
         -2   -1    0    0    0  501 -0.00000000000E+00 -0.00000000000E+00 -0.10768054682E+04  0.10768054682E+04  0.25500000000E-02 0.  1.
    8880023    1    1    2    0    0 -0.59034121971E+03  0.64199775381E+03  0.20000406274E+04  0.22791745411E+04  0.65864270000E+03 0.  0.
    8880022    1    1    2    0    0  0.59034121971E+03 -0.64199775381E+03 -0.72809870455E+03  0.11463783181E+04  0.15294330000E+03 0.  0.
<mgrwt>
<rscale>  0 0.10368946E+04</rscale>
<asrwt>0</asrwt>
<pdfrwt beam="1">  1        2 0.36134575E+00 0.10929200E+04</pdfrwt>
<pdfrwt beam="2">  1       -2 0.16566238E+00 0.10929200E+04</pdfrwt>
<totfact> 0.96333306E-01</totfact>
</mgrwt>
</event>
<event>
 4    1  0.8468429E-007  0.6622071E+03  0.7818608E-02  0.1022001E+00
         -2   -1    0    0    0  501 -0.00000000000E+00  0.00000000000E+00  0.59135350449E+03  0.59135350449E+03  0.25500000000E-02 0.  1.
          2   -1    0    0  501    0  0.00000000000E+00 -0.00000000000E+00 -0.45526518433E+03  0.45526518434E+03  0.25500000000E-02 0. -1.
    8880023    1    1    2    0    0  0.26376655681E+02  0.63342960405E+02 -0.18226209986E+03  0.68683166635E+03  0.65864270000E+03 0. -1.
    8880022    1    1    2    0    0 -0.26376655681E+02 -0.63342960405E+02  0.31835042002E+03  0.35978702247E+03  0.15294330000E+03 0.  0.
<mgrwt>
<rscale>  0 0.46971358E+03</rscale>
<asrwt>0</asrwt>
<pdfrwt beam="1">  1        2 0.70040798E-01 0.66220712E+03</pdfrwt>
<pdfrwt beam="2">  1       -2 0.90977462E-01 0.66220712E+03</pdfrwt>
<totfact> 0.71910465E+01</totfact>
</mgrwt>
</event>
<event>
 4    1  0.8468429E-007  0.8601985E+03  0.7818608E-02  0.9593211E-01
          2   -1    0    0  501    0  0.00000000000E+00  0.00000000000E+00  0.31846783974E+03  0.31846783975E+03  0.25500000000E-02 0. -1.
         -2   -1    0    0    0  501 -0.00000000000E+00 -0.00000000000E+00 -0.19931892259E+04  0.19931892259E+04  0.25500000000E-02 0.  1.
    8880023    1    1    2    0    0 -0.39215285683E+03  0.39031693986E+03 -0.47729426543E+03  0.98374346186E+03  0.65864270000E+03 0.  0.
    8880022    1    1    2    0    0  0.39215285683E+03 -0.39031693986E+03 -0.11974271207E+04  0.13279136038E+04  0.15294330000E+03 0.  1.
<mgrwt>
<rscale>  0 0.77747187E+03</rscale>
<asrwt>0</asrwt>
<pdfrwt beam="1">  1        2 0.48995054E-01 0.86019846E+03</pdfrwt>
<pdfrwt beam="2">  1       -2 0.30664449E+00 0.86019846E+03</pdfrwt>
<totfact> 0.30506919E+00</totfact>
</mgrwt>
</event>
<event>
 4    1  0.8468429E-007  0.1485492E+04  0.7818608E-02  0.8919949E-01
          2   -1    0    0  501    0  0.00000000000E+00  0.00000000000E+00  0.31119438464E+04  0.31119438464E+04  0.25500000000E-02 0. -1.
         -2   -1    0    0    0  501 -0.00000000000E+00 -0.00000000000E+00 -0.81462829143E+03  0.81462829144E+03  0.25500000000E-02 0.  1.
    8880023    1    1    2    0    0 -0.10744781745E+04 -0.78636685305E+03  0.20993796761E+04  0.25717856454E+04  0.65864270000E+03 0.  0.
    8880022    1    1    2    0    0  0.10744781745E+04  0.78636685305E+03  0.19793587885E+03  0.13547864925E+04  0.15294330000E+03 0.  0.
<mgrwt>
<rscale>  0 0.14477685E+04</rscale>
<asrwt>0</asrwt>
<pdfrwt beam="1">  1        2 0.47876060E+00 0.14854920E+04</pdfrwt>
<pdfrwt beam="2">  1       -2 0.12532743E+00 0.14854920E+04</pdfrwt>
<totfact> 0.67207853E-01</totfact>
</mgrwt>
</event>
<event>
 4    1  0.8468429E-007  0.7375910E+03  0.7818608E-02  0.9867021E-01
          2   -1    0    0  501    0  0.00000000000E+00  0.00000000000E+00  0.81800658778E+03  0.81800658778E+03  0.25500000000E-02 0. -1.
         -2   -1    0    0    0  501 -0.00000000000E+00 -0.00000000000E+00 -0.71749015746E+03  0.71749015747E+03  0.25500000000E-02 0.  1.
    8880023    1    1    2    0    0  0.32055058291E+03 -0.86472971912E+02 -0.45783354156E+03  0.86813133172E+03  0.65864270000E+03 0.  1.
    8880022    1    1    2    0    0 -0.32055058291E+03  0.86472971912E+02  0.55834997187E+03  0.66736541353E+03  0.15294330000E+03 0.  0.
<mgrwt>
<rscale>  0 0.61886569E+03</rscale>
<asrwt>0</asrwt>
<pdfrwt beam="1">  1        2 0.12584717E+00 0.73759098E+03</pdfrwt>
<pdfrwt beam="2">  1       -2 0.11038310E+00 0.73759098E+03</pdfrwt>
<totfact> 0.22127770E+01</totfact>
</mgrwt>
</event>
<event>
 4    1  0.8468429E-007  0.7365635E+03  0.7818608E-02  0.9870073E-01
         -2   -1    0    0    0  501 -0.00000000000E+00  0.00000000000E+00  0.29773348771E+03  0.29773348773E+03  0.25500000000E-02 0.  1.
          2   -1    0    0  501    0  0.00000000000E+00 -0.00000000000E+00 -0.21256344922E+04  0.21256344922E+04  0.25500000000E-02 0. -1.
    8880023    1    1    2    0    0 -0.29874464102E+03 -0.13952512695E+03 -0.19131479822E+04  0.20500392751E+04  0.65864270000E+03 0. -1.
    8880022    1    1    2    0    0  0.29874464102E+03  0.13952512695E+03  0.85246977709E+02  0.37332870478E+03  0.15294330000E+03 0.  0.
<mgrwt>
<rscale>  0 0.61733869E+03</rscale>
<asrwt>0</asrwt>
<pdfrwt beam="1">  1        2 0.32702068E+00 0.73656353E+03</pdfrwt>
<pdfrwt beam="2">  1       -2 0.45805153E-01 0.73656353E+03</pdfrwt>
<totfact> 0.26658671E+01</totfact>
</mgrwt>
</event>
<event>
 4    1  0.8468429E-007  0.9052124E+03  0.7818608E-02  0.9517715E-01
         -2   -1    0    0    0  501 -0.00000000000E+00  0.00000000000E+00  0.46763771648E+03  0.46763771649E+03  0.25500000000E-02 0.  1.
          2   -1    0    0  501    0  0.00000000000E+00 -0.00000000000E+00 -0.18264107918E+04  0.18264107918E+04  0.25500000000E-02 0. -1.
    8880023    1    1    2    0    0  0.17885815888E+02 -0.62070870442E+03 -0.13843244095E+04  0.16540143515E+04  0.65864270000E+03 0. -1.
    8880022    1    1    2    0    0 -0.17885815888E+02  0.62070870442E+03  0.25551334139E+02  0.64003415678E+03  0.15294330000E+03 0.  0.
<mgrwt>
<rscale>  0 0.82990246E+03</rscale>
<asrwt>0</asrwt>
<pdfrwt beam="1">  1        2 0.28098627E+00 0.90521235E+03</pdfrwt>
<pdfrwt beam="2">  1       -2 0.71944265E-01 0.90521235E+03</pdfrwt>
<totfact> 0.14763933E+01</totfact>
</mgrwt>
</event>
<event>
 4    1  0.8468429E-007  0.8617556E+03  0.7818608E-02  0.9590448E-01
          2   -1    0    0  501    0  0.00000000000E+00  0.00000000000E+00  0.39745580606E+04  0.39745580606E+04  0.25500000000E-02 0. -1.
         -2   -1    0    0    0  501 -0.00000000000E+00 -0.00000000000E+00 -0.23932671433E+03  0.23932671435E+03  0.25500000000E-02 0.  1.
    8880023    1    1    2    0    0  0.54932350238E+03 -0.84001216220E+02  0.34771957705E+04  0.35823893071E+04  0.65864270000E+03 0.  0.
    8880022    1    1    2    0    0 -0.54932350238E+03  0.84001216220E+02  0.25803557575E+03  0.63149546789E+03  0.15294330000E+03 0.  0.
<mgrwt>
<rscale>  0 0.77931623E+03</rscale>
<asrwt>0</asrwt>
<pdfrwt beam="1">  1        2 0.61147047E+00 0.86175560E+03</pdfrwt>
<pdfrwt beam="2">  1       -2 0.36819495E-01 0.86175560E+03</pdfrwt>
<totfact> 0.26930270E+00</totfact>
</mgrwt>
</event>
<event>
 4    1  0.8468429E-007  0.6594068E+03  0.7818608E-02  0.1024772E+00
          2   -1    0    0  501    0  0.00000000000E+00  0.00000000000E+00  0.50959882788E+04  0.50959882788E+04  0.25500000000E-02 0. -1.
         -2   -1    0    0    0  501 -0.00000000000E+00 -0.00000000000E+00 -0.41209488747E+02  0.41209488826E+02  0.25500000000E-02 0.  1.
    8880023    1    1    2    0    0  0.14637203393E+02 -0.28159077485E+02  0.47415464265E+04  0.47871786996E+04  0.65864270000E+03 0. -1.
    8880022    1    1    2    0    0 -0.14637203393E+02  0.28159077485E+02  0.31323236363E+03  0.35001906806E+03  0.15294330000E+03 0.  0.
<mgrwt>
<rscale>  0 0.46003007E+03</rscale>
<asrwt>0</asrwt>
<pdfrwt beam="1">  1        2 0.78399822E+00 0.65940685E+03</pdfrwt>
<pdfrwt beam="2">  1       -2 0.63399212E-02 0.65940685E+03</pdfrwt>
<totfact> 0.44324785E+00</totfact>
</mgrwt>
</event>
<event>
 4    1  0.8468429E-007  0.8810720E+03  0.7818608E-02  0.9557127E-01
         -2   -1    0    0    0  501 -0.00000000000E+00  0.00000000000E+00  0.91143337808E+03  0.91143337808E+03  0.25500000000E-02 0.  1.
          2   -1    0    0  501    0  0.00000000000E+00 -0.00000000000E+00 -0.79223592614E+03  0.79223592615E+03  0.25500000000E-02 0. -1.
    8880023    1    1    2    0    0 -0.48245151110E+03 -0.33123742969E+03 -0.33983684813E+03  0.94433944374E+03  0.65864270000E+03 0.  0.
    8880022    1    1    2    0    0  0.48245151110E+03  0.33123742969E+03  0.45903430007E+03  0.75932986050E+03  0.15294330000E+03 0.  0.
<mgrwt>
<rscale>  0 0.80199989E+03</rscale>
<asrwt>0</asrwt>
<pdfrwt beam="1">  1        2 0.12188245E+00 0.88107202E+03</pdfrwt>
<pdfrwt beam="2">  1       -2 0.14022052E+00 0.88107202E+03</pdfrwt>
<totfact> 0.12512080E+01</totfact>
</mgrwt>
</event>
<event>
 4    1  0.8468429E-007  0.7193832E+03  0.7818608E-02  0.9924678E-01
          2   -1    0    0  501    0  0.00000000000E+00  0.00000000000E+00  0.17435776826E+04  0.17435776826E+04  0.25500000000E-02 0. -1.
         -2   -1    0    0    0  501 -0.00000000000E+00 -0.00000000000E+00 -0.18122925490E+03  0.18122925492E+03  0.25500000000E-02 0.  1.
    8880023    1    1    2    0    0  0.27680810229E+03  0.84138487803E+02  0.13641596576E+04  0.15422204084E+04  0.65864270000E+03 0.  0.
    8880022    1    1    2    0    0 -0.27680810229E+03 -0.84138487803E+02  0.19818877017E+03  0.38258652911E+03  0.15294330000E+03 0.  0.
<mgrwt>
<rscale>  0 0.59080029E+03</rscale>
<asrwt>0</asrwt>
<pdfrwt beam="1">  1        2 0.26824272E+00 0.71938322E+03</pdfrwt>
<pdfrwt beam="2">  1       -2 0.27881424E-01 0.71938322E+03</pdfrwt>
<totfact> 0.11154336E+02</totfact>
</mgrwt>
</event>
<event>
 4    1  0.8468429E-007  0.8069238E+03  0.7818608E-02  0.9696021E-01
         -2   -1    0    0    0  501 -0.00000000000E+00  0.00000000000E+00  0.77324956065E+03  0.77324956065E+03  0.25500000000E-02 0.  1.
          2   -1    0    0  501    0  0.00000000000E+00 -0.00000000000E+00 -0.62631149544E+03  0.62631149544E+03  0.25500000000E-02 0. -1.
    8880023    1    1    2    0    0 -0.43733472166E+03  0.16141311716E+03 -0.15751481843E+03  0.82215386482E+03  0.65864270000E+03 0. -1.
    8880022    1    1    2    0    0  0.43733472166E+03 -0.16141311716E+03  0.30445288364E+03  0.57740719127E+03  0.15294330000E+03 0.  0.
<mgrwt>
<rscale>  0 0.71254223E+03</rscale>
<asrwt>0</asrwt>
<pdfrwt beam="1">  1        2 0.96355614E-01 0.80692383E+03</pdfrwt>
<pdfrwt beam="2">  1       -2 0.11896147E+00 0.80692383E+03</pdfrwt>
<totfact> 0.25752514E+01</totfact>
</mgrwt>
</event>
<event>
 4    1  0.8468429E-007  0.8060421E+03  0.7818608E-02  0.9697881E-01
         -2   -1    0    0    0  501 -0.00000000000E+00  0.00000000000E+00  0.13561054063E+04  0.13561054063E+04  0.25500000000E-02 0.  1.
          2   -1    0    0  501    0  0.00000000000E+00 -0.00000000000E+00 -0.38383185462E+03  0.38383185463E+03  0.25500000000E-02 0. -1.
    8880023    1    1    2    0    0 -0.32201162544E+03 -0.33496582288E+03  0.20787026806E+03  0.83241446649E+03  0.65864270000E+03 0. -1.
    8880022    1    1    2    0    0  0.32201162544E+03  0.33496582288E+03  0.76440328366E+03  0.90752279448E+03  0.15294330000E+03 0.  1.
<mgrwt>
<rscale>  0 0.71143097E+03</rscale>
<asrwt>0</asrwt>
<pdfrwt beam="1">  1        2 0.59051055E-01 0.80604206E+03</pdfrwt>
<pdfrwt beam="2">  1       -2 0.20863160E+00 0.80604206E+03</pdfrwt>
<totfact> 0.98730158E+00</totfact>
</mgrwt>
</event>
<event>
 4    1  0.8468429E-007  0.7816270E+03  0.7818608E-02  0.9752029E-01
          2   -1    0    0  501    0  0.00000000000E+00  0.00000000000E+00  0.28899075249E+04  0.28899075249E+04  0.25500000000E-02 0. -1.
         -2   -1    0    0    0  501 -0.00000000000E+00 -0.00000000000E+00 -0.16364036396E+03  0.16364036398E+03  0.25500000000E-02 0.  1.
    8880023    1    1    2    0    0 -0.30236175920E+03  0.29275922493E+03  0.99492597578E+03  0.12652345635E+04  0.65864270000E+03 0.  1.
    8880022    1    1    2    0    0  0.30236175920E+03 -0.29275922493E+03  0.17313411851E+04  0.17883133253E+04  0.15294330000E+03 0.  0.
<mgrwt>
<rscale>  0 0.68001735E+03</rscale>
<asrwt>0</asrwt>
<pdfrwt beam="1">  1        2 0.44460116E+00 0.78162702E+03</pdfrwt>
<pdfrwt beam="2">  1       -2 0.25175440E-01 0.78162702E+03</pdfrwt>
<totfact> 0.30255075E+01</totfact>
</mgrwt>
</event>
<event>
 4    1  0.8468429E-007  0.6634828E+03  0.7818608E-02  0.1020842E+00
          2   -1    0    0  501    0  0.00000000000E+00  0.00000000000E+00  0.62919513349E+03  0.62919513349E+03  0.25500000000E-02 0. -1.
         -2   -1    0    0    0  501 -0.00000000000E+00 -0.00000000000E+00 -0.79548445658E+03  0.79548445658E+03  0.25500000000E-02 0.  1.
    8880023    1    1    2    0    0 -0.10198533987E+02 -0.79342149228E+02  0.43879725409E+03  0.79545736730E+03  0.65864270000E+03 0. -1.
    8880022    1    1    2    0    0  0.10198533987E+02  0.79342149228E+02 -0.60508657718E+03  0.62922222277E+03  0.15294330000E+03 0.  0.
<mgrwt>
<rscale>  0 0.47384094E+03</rscale>
<asrwt>0</asrwt>
<pdfrwt beam="1">  1        2 0.96799251E-01 0.66348278E+03</pdfrwt>
<pdfrwt beam="2">  1       -2 0.12238222E+00 0.66348278E+03</pdfrwt>
<totfact> 0.24169999E+01</totfact>
</mgrwt>
</event>
<event>
 4    1  0.8468429E-007  0.6845884E+03  0.7818608E-02  0.1006839E+00
         -2   -1    0    0    0  501 -0.00000000000E+00  0.00000000000E+00  0.60913770881E+03  0.60913770882E+03  0.25500000000E-02 0.  1.
          2   -1    0    0  501    0  0.00000000000E+00 -0.00000000000E+00 -0.57428453419E+03  0.57428453420E+03  0.25500000000E-02 0. -1.
    8880023    1    1    2    0    0  0.12436807068E+03 -0.13922496319E+03 -0.31887430136E+03  0.75520992691E+03  0.65864270000E+03 0.  0.
    8880022    1    1    2    0    0 -0.12436807068E+03  0.13922496319E+03  0.35372747598E+03  0.42821231610E+03  0.15294330000E+03 0.  1.
<mgrwt>
<rscale>  0 0.52750585E+03</rscale>
<asrwt>0</asrwt>
<pdfrwt beam="1">  1        2 0.88351467E-01 0.68458835E+03</pdfrwt>
<pdfrwt beam="2">  1       -2 0.93713494E-01 0.68458835E+03</pdfrwt>
<totfact> 0.51159486E+01</totfact>
</mgrwt>
</event>
<event>
 4    1  0.8468429E-007  0.6719755E+03  0.7818608E-02  0.1014285E+00
          2   -1    0    0  501    0  0.00000000000E+00  0.00000000000E+00  0.19857088025E+04  0.19857088025E+04  0.25500000000E-02 0. -1.
         -2   -1    0    0    0  501 -0.00000000000E+00 -0.00000000000E+00 -0.47987149529E+03  0.47987149529E+03  0.25500000000E-02 0.  1.
    8880023    1    1    2    0    0 -0.12416569211E+03 -0.48205525850E+02  0.19038035075E+04  0.20189152764E+04  0.65864270000E+03 0. -1.
    8880022    1    1    2    0    0  0.12416569211E+03  0.48205525850E+02 -0.39796620025E+03  0.44666502144E+03  0.15294330000E+03 0.  0.
<mgrwt>
<rscale>  0 0.49806759E+03</rscale>
<asrwt>0</asrwt>
<pdfrwt beam="1">  1        2 0.30549367E+00 0.67197552E+03</pdfrwt>
<pdfrwt beam="2">  1       -2 0.73826383E-01 0.67197552E+03</pdfrwt>
<totfact> 0.11788109E+01</totfact>
</mgrwt>
</event>
<event>
 4    1  0.8468429E-007  0.7751578E+03  0.7818608E-02  0.9767337E-01
         -2   -1    0    0    0  501 -0.00000000000E+00  0.00000000000E+00  0.54179802593E+03  0.54179802594E+03  0.25500000000E-02 0.  1.
          2   -1    0    0  501    0  0.00000000000E+00 -0.00000000000E+00 -0.11218075847E+04  0.11218075847E+04  0.25500000000E-02 0. -1.
    8880023    1    1    2    0    0  0.40501098174E+03 -0.55004663856E+02 -0.85004362803E+03  0.11504102678E+04  0.65864270000E+03 0.  0.
    8880022    1    1    2    0    0 -0.40501098174E+03  0.55004663856E+02  0.27003406925E+03  0.51319534288E+03  0.15294330000E+03 0.  0.
<mgrwt>
<rscale>  0 0.67145284E+03</rscale>
<asrwt>0</asrwt>
<pdfrwt beam="1">  1        2 0.17258578E+00 0.77515780E+03</pdfrwt>
<pdfrwt beam="2">  1       -2 0.83353542E-01 0.77515780E+03</pdfrwt>
<totfact> 0.27012137E+01</totfact>
</mgrwt>
</event>
<event>
 4    1  0.8468429E-007  0.1435272E+04  0.7818608E-02  0.8956749E-01
          2   -1    0    0  501    0  0.00000000000E+00  0.00000000000E+00  0.41022697236E+04  0.41022697236E+04  0.25500000000E-02 0. -1.
         -2   -1    0    0    0  501 -0.00000000000E+00 -0.00000000000E+00 -0.61246060366E+03  0.61246060366E+03  0.25500000000E-02 0.  1.
    8880023    1    1    2    0    0  0.86800851287E+03 -0.93421471751E+03  0.30260997066E+04  0.33492216346E+04  0.65864270000E+03 0.  0.
    8880022    1    1    2    0    0 -0.86800851287E+03  0.93421471751E+03  0.46370941335E+03  0.13655086927E+04  0.15294330000E+03 0.  0.
<mgrwt>
<rscale>  0 0.13959588E+04</rscale>
<asrwt>0</asrwt>
<pdfrwt beam="1">  1        2 0.63111844E+00 0.14352721E+04</pdfrwt>
<pdfrwt beam="2">  1       -2 0.94224705E-01 0.14352721E+04</pdfrwt>
<totfact> 0.26281523E-01</totfact>
</mgrwt>
</event>
<event>
 4    1  0.8468429E-007  0.7556107E+03  0.7818608E-02  0.9816606E-01
         -2   -1    0    0    0  501 -0.00000000000E+00  0.00000000000E+00  0.47464932615E+03  0.47464932616E+03  0.25500000000E-02 0.  1.
          2   -1    0    0  501    0  0.00000000000E+00 -0.00000000000E+00 -0.30567496852E+04  0.30567496852E+04  0.25500000000E-02 0. -1.
    8880023    1    1    2    0    0 -0.13362135062E+03 -0.34537315409E+03 -0.29144676544E+04  0.30108253346E+04  0.65864270000E+03 0. -1.
    8880022    1    1    2    0    0  0.13362135062E+03  0.34537315409E+03  0.33236729532E+03  0.52057367675E+03  0.15294330000E+03 0.  0.
<mgrwt>
<rscale>  0 0.64478916E+03</rscale>
<asrwt>0</asrwt>
<pdfrwt beam="1">  1        2 0.47026917E+00 0.75561067E+03</pdfrwt>
<pdfrwt beam="2">  1       -2 0.73022975E-01 0.75561067E+03</pdfrwt>
<totfact> 0.29008674E+00</totfact>
</mgrwt>
</event>
<event>
 4    1  0.8468429E-007  0.8028593E+03  0.7818608E-02  0.9704647E-01
         -2   -1    0    0    0  501 -0.00000000000E+00  0.00000000000E+00  0.46967390637E+03  0.46967390637E+03  0.25500000000E-02 0.  1.
          2   -1    0    0  501    0  0.00000000000E+00 -0.00000000000E+00 -0.14885748479E+04  0.14885748479E+04  0.25500000000E-02 0. -1.
    8880023    1    1    2    0    0 -0.43229901159E+03 -0.15456514968E+03 -0.11980990471E+04  0.14422289533E+04  0.65864270000E+03 0.  0.
    8880022    1    1    2    0    0  0.43229901159E+03  0.15456514968E+03  0.17919810556E+03  0.51601980094E+03  0.15294330000E+03 0.  0.
<mgrwt>
<rscale>  0 0.70740757E+03</rscale>
<asrwt>0</asrwt>
<pdfrwt beam="1">  1        2 0.22901151E+00 0.80285928E+03</pdfrwt>
<pdfrwt beam="2">  1       -2 0.72257524E-01 0.80285928E+03</pdfrwt>
<totfact> 0.22727423E+01</totfact>
</mgrwt>
</event>
<event>
 4    1  0.8468429E-007  0.1088437E+04  0.7818608E-02  0.9274040E-01
          2   -1    0    0  501    0  0.00000000000E+00  0.00000000000E+00  0.11162935046E+04  0.11162935046E+04  0.25500000000E-02 0. -1.
         -2   -1    0    0    0  501 -0.00000000000E+00 -0.00000000000E+00 -0.18657160164E+04  0.18657160164E+04  0.25500000000E-02 0.  1.
    8880023    1    1    2    0    0 -0.61506134228E+03  0.61039742404E+03  0.69447282641E+03  0.12911189654E+04  0.65864270000E+03 0.  0.
    8880022    1    1    2    0    0  0.61506134228E+03 -0.61039742404E+03 -0.14438953382E+04  0.16908905556E+04  0.15294330000E+03 0.  0.
<mgrwt>
<rscale>  0 0.10320830E+04</rscale>
<asrwt>0</asrwt>
<pdfrwt beam="1">  1        2 0.17173746E+00 0.10884373E+04</pdfrwt>
<pdfrwt beam="2">  1       -2 0.28703323E+00 0.10884373E+04</pdfrwt>
<totfact> 0.80379062E-01</totfact>
</mgrwt>
</event>
<event>
 4    1  0.8468429E-007  0.6614456E+03  0.7818608E-02  0.1022722E+00
          2   -1    0    0  501    0  0.00000000000E+00  0.00000000000E+00  0.31606130215E+04  0.31606130215E+04  0.25500000000E-02 0. -1.
         -2   -1    0    0    0  501 -0.00000000000E+00 -0.00000000000E+00 -0.53891489252E+03  0.53891489253E+03  0.25500000000E-02 0.  1.
    8880023    1    1    2    0    0 -0.20630056380E+02 -0.57222762266E+02  0.31124248038E+04  0.31819331245E+04  0.65864270000E+03 0. -1.
    8880022    1    1    2    0    0  0.20630056380E+02  0.57222762266E+02 -0.49072667478E+03  0.51759478949E+03  0.15294330000E+03 0.  0.
<mgrwt>
<rscale>  0 0.46717018E+03</rscale>
<asrwt>0</asrwt>
<pdfrwt beam="1">  1        2 0.48624815E+00 0.66144558E+03</pdfrwt>
<pdfrwt beam="2">  1       -2 0.82909984E-01 0.66144558E+03</pdfrwt>
<totfact> 0.19222184E+00</totfact>
</mgrwt>
</event>
<event>
 4    1  0.8468429E-007  0.1274836E+04  0.7818608E-02  0.9087601E-01
          2   -1    0    0  501    0  0.00000000000E+00  0.00000000000E+00  0.25679804680E+04  0.25679804680E+04  0.25500000000E-02 0. -1.
         -2   -1    0    0    0  501 -0.00000000000E+00 -0.00000000000E+00 -0.16753858006E+04  0.16753858006E+04  0.25500000000E-02 0.  1.
    8880023    1    1    2    0    0  0.98542673590E+03 -0.46939290235E+03 -0.12804028652E+04  0.18068307203E+04  0.65864270000E+03 0.  1.
    8880022    1    1    2    0    0 -0.98542673590E+03  0.46939290235E+03  0.21729975326E+04  0.24365355483E+04  0.15294330000E+03 0.  0.
<mgrwt>
<rscale>  0 0.12292866E+04</rscale>
<asrwt>0</asrwt>
<pdfrwt beam="1">  1        2 0.39507392E+00 0.12748356E+04</pdfrwt>
<pdfrwt beam="2">  1       -2 0.25775166E+00 0.12748356E+04</pdfrwt>
<totfact> 0.17703462E-01</totfact>
</mgrwt>
</event>
<event>
 4    1  0.8468429E-007  0.6869255E+03  0.7818608E-02  0.1005649E+00
         -2   -1    0    0    0  501 -0.00000000000E+00  0.00000000000E+00  0.83824311669E+02  0.83824311708E+02  0.25500000000E-02 0.  1.
          2   -1    0    0  501    0  0.00000000000E+00 -0.00000000000E+00 -0.32968398821E+04  0.32968398821E+04  0.25500000000E-02 0. -1.
    8880023    1    1    2    0    0  0.31067410796E+02  0.19259079019E+03 -0.29059107908E+04  0.29859980119E+04  0.65864270000E+03 0. -1.
    8880022    1    1    2    0    0 -0.31067410796E+02 -0.19259079019E+03 -0.30710477958E+03  0.39466618190E+03  0.15294330000E+03 0.  0.
<mgrwt>
<rscale>  0 0.53240942E+03</rscale>
<asrwt>0</asrwt>
<pdfrwt beam="1">  1        2 0.50720604E+00 0.68692547E+03</pdfrwt>
<pdfrwt beam="2">  1       -2 0.12896050E-01 0.68692547E+03</pdfrwt>
<totfact> 0.54457899E+01</totfact>
</mgrwt>
</event>
<event>
 4    1  0.8468429E-007  0.7640611E+03  0.7818608E-02  0.9794705E-01
         -2   -1    0    0    0  501 -0.00000000000E+00  0.00000000000E+00  0.42525005210E+03  0.42525005210E+03  0.25500000000E-02 0.  1.
          2   -1    0    0  501    0  0.00000000000E+00 -0.00000000000E+00 -0.12356780021E+04  0.12356780021E+04  0.25500000000E-02 0. -1.
    8880023    1    1    2    0    0 -0.23549126806E+03 -0.30744603207E+03 -0.95240481626E+03  0.12210095578E+04  0.65864270000E+03 0. -1.
    8880022    1    1    2    0    0  0.23549126806E+03  0.30744603207E+03  0.14197686620E+03  0.43991849645E+03  0.15294330000E+03 0.  0.
<mgrwt>
<rscale>  0 0.65647485E+03</rscale>
<asrwt>0</asrwt>
<pdfrwt beam="1">  1        2 0.19010431E+00 0.76406113E+03</pdfrwt>
<pdfrwt beam="2">  1       -2 0.65423086E-01 0.76406113E+03</pdfrwt>
<totfact> 0.39500718E+01</totfact>
</mgrwt>
</event>
<event>
 4    1  0.8468429E-007  0.9059876E+03  0.7818608E-02  0.9516487E-01
          2   -1    0    0  501    0  0.00000000000E+00  0.00000000000E+00  0.90588342144E+03  0.90588342145E+03  0.25500000000E-02 0. -1.
         -2   -1    0    0    0  501 -0.00000000000E+00 -0.00000000000E+00 -0.19435664750E+04  0.19435664750E+04  0.25500000000E-02 0.  1.
    8880023    1    1    2    0    0 -0.41065460935E+03 -0.46729663578E+03  0.60287989598E+03  0.10882452523E+04  0.65864270000E+03 0. -1.
    8880022    1    1    2    0    0  0.41065460935E+03  0.46729663578E+03 -0.16405629495E+04  0.17612046441E+04  0.15294330000E+03 0.  0.
<mgrwt>
<rscale>  0 0.83079133E+03</rscale>
<asrwt>0</asrwt>
<pdfrwt beam="1">  1        2 0.13936668E+00 0.90598762E+03</pdfrwt>
<pdfrwt beam="2">  1       -2 0.29901023E+00 0.90598762E+03</pdfrwt>
<totfact> 0.95305289E-01</totfact>
</mgrwt>
</event>
<event>
 4    1  0.8468429E-007  0.7629079E+03  0.7818608E-02  0.9797637E-01
         -2   -1    0    0    0  501 -0.00000000000E+00  0.00000000000E+00  0.47751700743E+03  0.47751700744E+03  0.25500000000E-02 0.  1.
          2   -1    0    0  501    0  0.00000000000E+00 -0.00000000000E+00 -0.95422061597E+03  0.95422061597E+03  0.25500000000E-02 0. -1.
    8880023    1    1    2    0    0  0.35293715386E+03 -0.15379711850E+03 -0.63062702039E+03  0.98980747286E+03  0.65864270000E+03 0.  0.
    8880022    1    1    2    0    0 -0.35293715386E+03  0.15379711850E+03  0.15392341185E+03  0.44193015055E+03  0.15294330000E+03 0.  0.
<mgrwt>
<rscale>  0 0.65489525E+03</rscale>
<asrwt>0</asrwt>
<pdfrwt beam="1">  1        2 0.14680317E+00 0.76290785E+03</pdfrwt>
<pdfrwt beam="2">  1       -2 0.73464155E-01 0.76290785E+03</pdfrwt>
<totfact> 0.45728775E+01</totfact>
</mgrwt>
</event>
<event>
 4    1  0.8468429E-007  0.1034419E+04  0.7818608E-02  0.9337851E-01
         -2   -1    0    0    0  501 -0.00000000000E+00  0.00000000000E+00  0.53280102102E+03  0.53280102102E+03  0.25500000000E-02 0.  1.
          2   -1    0    0  501    0  0.00000000000E+00 -0.00000000000E+00 -0.18956837404E+04  0.18956837404E+04  0.25500000000E-02 0. -1.
    8880023    1    1    2    0    0  0.63517587715E+03  0.48245642456E+03 -0.27402790825E+03  0.10701000408E+04  0.65864270000E+03 0.  1.
    8880022    1    1    2    0    0 -0.63517587715E+03 -0.48245642456E+03 -0.10888548111E+04  0.13583847206E+04  0.15294330000E+03 0.  0.
<mgrwt>
<rscale>  0 0.97371715E+03</rscale>
<asrwt>0</asrwt>
<pdfrwt beam="1">  1        2 0.29164365E+00 0.10344191E+04</pdfrwt>
<pdfrwt beam="2">  1       -2 0.81969389E-01 0.10344191E+04</pdfrwt>
<totfact> 0.99602944E+00</totfact>
</mgrwt>
</event>
<event>
 4    1  0.8468429E-007  0.1196792E+04  0.7818608E-02  0.9160247E-01
          2   -1    0    0  501    0  0.00000000000E+00  0.00000000000E+00  0.99078307166E+03  0.99078307167E+03  0.25500000000E-02 0. -1.
         -2   -1    0    0    0  501 -0.00000000000E+00 -0.00000000000E+00 -0.13875226123E+04  0.13875226123E+04  0.25500000000E-02 0.  1.
    8880023    1    1    2    0    0  0.26624324914E+03 -0.96312837905E+03  0.18649239507E+03  0.12112354692E+04  0.65864270000E+03 0. -1.
    8880022    1    1    2    0    0 -0.26624324914E+03  0.96312837905E+03 -0.58323193566E+03  0.11670702147E+04  0.15294330000E+03 0.  0.
<mgrwt>
<rscale>  0 0.11473338E+04</rscale>
<asrwt>0</asrwt>
<pdfrwt beam="1">  1        2 0.15242816E+00 0.11967924E+04</pdfrwt>
<pdfrwt beam="2">  1       -2 0.21346502E+00 0.11967924E+04</pdfrwt>
<totfact> 0.27032229E+00</totfact>
</mgrwt>
</event>
<event>
 4    1  0.8468429E-007  0.7566521E+03  0.7818608E-02  0.9813853E-01
          2   -1    0    0  501    0  0.00000000000E+00  0.00000000000E+00  0.13535109983E+04  0.13535109983E+04  0.25500000000E-02 0. -1.
         -2   -1    0    0    0  501 -0.00000000000E+00 -0.00000000000E+00 -0.25891894338E+03  0.25891894340E+03  0.25500000000E-02 0.  1.
    8880023    1    1    2    0    0  0.11748033014E+03  0.35342689625E+03  0.55120135785E+03  0.93613318610E+03  0.65864270000E+03 0.  1.
    8880022    1    1    2    0    0 -0.11748033014E+03 -0.35342689625E+03  0.54339069707E+03  0.67629675560E+03  0.15294330000E+03 0. -1.
<mgrwt>
<rscale>  0 0.64624374E+03</rscale>
<asrwt>0</asrwt>
<pdfrwt beam="1">  1        2 0.20823247E+00 0.75665210E+03</pdfrwt>
<pdfrwt beam="2">  1       -2 0.39833683E-01 0.75665210E+03</pdfrwt>
<totfact> 0.93269737E+01</totfact>
</mgrwt>
</event>
<event>
 4    1  0.8468429E-007  0.6700605E+03  0.7818608E-02  0.1015620E+00
          2   -1    0    0  501    0  0.00000000000E+00  0.00000000000E+00  0.23960756328E+04  0.23960756328E+04  0.25500000000E-02 0. -1.
         -2   -1    0    0    0  501 -0.00000000000E+00 -0.00000000000E+00 -0.13575131506E+03  0.13575131509E+03  0.25500000000E-02 0.  1.
    8880023    1    1    2    0    0  0.56900059075E+02  0.10923938567E+03  0.22356554873E+04  0.23339101363E+04  0.65864270000E+03 0. -1.
    8880022    1    1    2    0    0 -0.56900059075E+02 -0.10923938567E+03  0.24668830429E+02  0.19791681160E+03  0.15294330000E+03 0.  0.
<mgrwt>
<rscale>  0 0.49301051E+03</rscale>
<asrwt>0</asrwt>
<pdfrwt beam="1">  1        2 0.36862700E+00 0.67006049E+03</pdfrwt>
<pdfrwt beam="2">  1       -2 0.20884819E-01 0.67006049E+03</pdfrwt>
<totfact> 0.82702278E+01</totfact>
</mgrwt>
</event>
<event>
 4    1  0.8468429E-007  0.7165056E+03  0.7818608E-02  0.9934592E-01
          2   -1    0    0  501    0  0.00000000000E+00  0.00000000000E+00  0.34386404865E+04  0.34386404865E+04  0.25500000000E-02 0. -1.
         -2   -1    0    0    0  501 -0.00000000000E+00 -0.00000000000E+00 -0.11622957634E+03  0.11622957637E+03  0.25500000000E-02 0.  1.
    8880023    1    1    2    0    0  0.11462784230E+02  0.28184858991E+03  0.30528164756E+04  0.31357724189E+04  0.65864270000E+03 0. -1.
    8880022    1    1    2    0    0 -0.11462784230E+02 -0.28184858991E+03  0.26959443463E+03  0.41909764405E+03  0.15294330000E+03 0.  0.
<mgrwt>
<rscale>  0 0.58613699E+03</rscale>
<asrwt>0</asrwt>
<pdfrwt beam="1">  1        2 0.52902156E+00 0.71650557E+03</pdfrwt>
<pdfrwt beam="2">  1       -2 0.17881475E-01 0.71650557E+03</pdfrwt>
<totfact> 0.25121554E+01</totfact>
</mgrwt>
</event>
<event>
 4    1  0.8468429E-007  0.7211294E+03  0.7818608E-02  0.9918783E-01
         -2   -1    0    0    0  501 -0.00000000000E+00  0.00000000000E+00  0.35161867483E+03  0.35161867484E+03  0.25500000000E-02 0.  1.
          2   -1    0    0  501    0  0.00000000000E+00 -0.00000000000E+00 -0.89935271393E+03  0.89935271394E+03  0.25500000000E-02 0. -1.
    8880023    1    1    2    0    0  0.27560635127E+03  0.10128413010E+03 -0.56992957134E+03  0.91915573132E+03  0.65864270000E+03 0. -1.
    8880022    1    1    2    0    0 -0.27560635127E+03 -0.10128413010E+03  0.22195532245E+02  0.33181565746E+03  0.15294330000E+03 0.  0.
<mgrwt>
<rscale>  0 0.59359557E+03</rscale>
<asrwt>0</asrwt>
<pdfrwt beam="1">  1        2 0.13836196E+00 0.72112935E+03</pdfrwt>
<pdfrwt beam="2">  1       -2 0.54095181E-01 0.72112935E+03</pdfrwt>
<totfact> 0.95881813E+01</totfact>
</mgrwt>
</event>
<event>
 4    1  0.8468429E-007  0.1010622E+04  0.7818608E-02  0.9367791E-01
         -2   -1    0    0    0  501 -0.00000000000E+00  0.00000000000E+00  0.89160619654E+03  0.89160619654E+03  0.25500000000E-02 0.  1.
          2   -1    0    0  501    0  0.00000000000E+00 -0.00000000000E+00 -0.19489165876E+04  0.19489165876E+04  0.25500000000E-02 0. -1.
    8880023    1    1    2    0    0  0.72945346437E+03 -0.23546420276E+03 -0.15975434511E+04  0.18903706070E+04  0.65864270000E+03 0. -1.
    8880022    1    1    2    0    0 -0.72945346437E+03  0.23546420276E+03  0.54023306006E+03  0.95015217711E+03  0.15294330000E+03 0.  0.
<mgrwt>
<rscale>  0 0.94774393E+03</rscale>
<asrwt>0</asrwt>
<pdfrwt beam="1">  1        2 0.29983332E+00 0.10106216E+04</pdfrwt>
<pdfrwt beam="2">  1       -2 0.13717018E+00 0.10106216E+04</pdfrwt>
<totfact> 0.26906070E+00</totfact>
</mgrwt>
</event>
<event>
 4    1  0.8468429E-007  0.9889012E+03  0.7818608E-02  0.9396224E-01
         -2   -1    0    0    0  501 -0.00000000000E+00  0.00000000000E+00  0.15154877792E+04  0.15154877792E+04  0.25500000000E-02 0.  1.
          2   -1    0    0  501    0  0.00000000000E+00 -0.00000000000E+00 -0.11934202572E+04  0.11934202572E+04  0.25500000000E-02 0. -1.
    8880023    1    1    2    0    0 -0.54364911784E+03 -0.49855897046E+03 -0.85776762324E+03  0.13090801779E+04  0.65864270000E+03 0. -1.
    8880022    1    1    2    0    0  0.54364911784E+03  0.49855897046E+03  0.11798351453E+04  0.13998278585E+04  0.15294330000E+03 0.  1.
<mgrwt>
<rscale>  0 0.92387048E+03</rscale>
<asrwt>0</asrwt>
<pdfrwt beam="1">  1        2 0.18360312E+00 0.98890122E+03</pdfrwt>
<pdfrwt beam="2">  1       -2 0.23315196E+00 0.98890122E+03</pdfrwt>
<totfact> 0.15561251E+00</totfact>
</mgrwt>
</event>
<event>
 4    1  0.8468429E-007  0.7288912E+03  0.7818608E-02  0.9893575E-01
          2   -1    0    0  501    0  0.00000000000E+00  0.00000000000E+00  0.17275278523E+04  0.17275278523E+04  0.25500000000E-02 0. -1.
         -2   -1    0    0    0  501 -0.00000000000E+00 -0.00000000000E+00 -0.20092868201E+03  0.20092868203E+03  0.25500000000E-02 0.  1.
    8880023    1    1    2    0    0  0.30978788890E+03  0.38776808280E+02  0.61800375875E+03  0.95562075587E+03  0.65864270000E+03 0.  0.
    8880022    1    1    2    0    0 -0.30978788890E+03 -0.38776808280E+02  0.90859541156E+03  0.97283577848E+03  0.15294330000E+03 0.  0.
<mgrwt>
<rscale>  0 0.60573696E+03</rscale>
<asrwt>0</asrwt>
<pdfrwt beam="1">  1        2 0.26577352E+00 0.72889120E+03</pdfrwt>
<pdfrwt beam="2">  1       -2 0.30912104E-01 0.72889120E+03</pdfrwt>
<totfact> 0.93958889E+01</totfact>
</mgrwt>
</event>
<event>
 4    1  0.8468429E-007  0.1097539E+04  0.7818608E-02  0.9263801E-01
          2   -1    0    0  501    0  0.00000000000E+00  0.00000000000E+00  0.25637714846E+04  0.25637714846E+04  0.25500000000E-02 0. -1.
         -2   -1    0    0    0  501 -0.00000000000E+00 -0.00000000000E+00 -0.46674946536E+03  0.46674946536E+03  0.25500000000E-02 0.  1.
    8880023    1    1    2    0    0 -0.35963282901E+03 -0.80090333751E+03  0.50963837160E+03  0.12100923121E+04  0.65864270000E+03 0.  1.
    8880022    1    1    2    0    0  0.35963282901E+03  0.80090333751E+03  0.15873836476E+04  0.18204286379E+04  0.15294330000E+03 0.  0.
<mgrwt>
<rscale>  0 0.10418482E+04</rscale>
<asrwt>0</asrwt>
<pdfrwt beam="1">  1        2 0.39442637E+00 0.10975391E+04</pdfrwt>
<pdfrwt beam="2">  1       -2 0.71807612E-01 0.10975391E+04</pdfrwt>
<totfact> 0.56171186E+00</totfact>
</mgrwt>
</event>
<event>
 4    1  0.8468429E-007  0.6742791E+03  0.7818608E-02  0.1012765E+00
          2   -1    0    0  501    0  0.00000000000E+00  0.00000000000E+00  0.12955279740E+04  0.12955279740E+04  0.25500000000E-02 0. -1.
         -2   -1    0    0    0  501 -0.00000000000E+00 -0.00000000000E+00 -0.33192299914E+03  0.33192299915E+03  0.25500000000E-02 0.  1.
    8880023    1    1    2    0    0 -0.14163856537E+03  0.27938648842E+02  0.11586789811E+04  0.13405928684E+04  0.65864270000E+03 0.  0.
    8880022    1    1    2    0    0  0.14163856537E+03 -0.27938648842E+02 -0.19507400628E+03  0.28685810471E+03  0.15294330000E+03 0.  0.
<mgrwt>
<rscale>  0 0.50390529E+03</rscale>
<asrwt>0</asrwt>
<pdfrwt beam="1">  1        2 0.19931200E+00 0.67427907E+03</pdfrwt>
<pdfrwt beam="2">  1       -2 0.51065077E-01 0.67427907E+03</pdfrwt>
<totfact> 0.61837295E+01</totfact>
</mgrwt>
</event>
<event>
 4    1  0.8468429E-007  0.7587051E+03  0.7818608E-02  0.9808471E-01
         -2   -1    0    0    0  501 -0.00000000000E+00  0.00000000000E+00  0.32986252428E+03  0.32986252429E+03  0.25500000000E-02 0.  1.
          2   -1    0    0  501    0  0.00000000000E+00 -0.00000000000E+00 -0.15582205432E+04  0.15582205433E+04  0.25500000000E-02 0. -1.
    8880023    1    1    2    0    0  0.10490940456E+03  0.36168670705E+03 -0.20343860784E+03  0.78550667129E+03  0.65864270000E+03 0.  0.
    8880022    1    1    2    0    0 -0.10490940456E+03 -0.36168670705E+03 -0.10249194111E+04  0.11025763962E+04  0.15294330000E+03 0.  0.
<mgrwt>
<rscale>  0 0.64909897E+03</rscale>
<asrwt>0</asrwt>
<pdfrwt beam="1">  1        2 0.23972623E+00 0.75870512E+03</pdfrwt>
<pdfrwt beam="2">  1       -2 0.50748082E-01 0.75870512E+03</pdfrwt>
<totfact> 0.44163110E+01</totfact>
</mgrwt>
</event>
<event>
 4    1  0.8468429E-007  0.6953359E+03  0.7818608E-02  0.1001713E+00
          2   -1    0    0  501    0  0.00000000000E+00  0.00000000000E+00  0.30488452920E+04  0.30488452920E+04  0.25500000000E-02 0. -1.
         -2   -1    0    0    0  501 -0.00000000000E+00 -0.00000000000E+00 -0.14002518104E+03  0.14002518106E+03  0.25500000000E-02 0.  1.
    8880023    1    1    2    0    0 -0.17383069769E+03 -0.13951578067E+03  0.28198037725E+04  0.29042701814E+04  0.65864270000E+03 0. -1.
    8880022    1    1    2    0    0  0.17383069769E+03  0.13951578067E+03  0.89016338438E+02  0.28460029170E+03  0.15294330000E+03 0.  0.
<mgrwt>
<rscale>  0 0.54905506E+03</rscale>
<asrwt>0</asrwt>
<pdfrwt beam="1">  1        2 0.46905314E+00 0.69533587E+03</pdfrwt>
<pdfrwt beam="2">  1       -2 0.21542334E-01 0.69533587E+03</pdfrwt>
<totfact> 0.32425548E+01</totfact>
</mgrwt>
</event>
<event>
 4    1  0.8468429E-007  0.6783721E+03  0.7818608E-02  0.1010260E+00
          2   -1    0    0  501    0  0.00000000000E+00  0.00000000000E+00  0.28493403653E+03  0.28493403654E+03  0.25500000000E-02 0. -1.
         -2   -1    0    0    0  501 -0.00000000000E+00 -0.00000000000E+00 -0.13658363269E+04  0.13658363269E+04  0.25500000000E-02 0.  1.
    8880023    1    1    2    0    0 -0.52622229723E+02  0.15365343077E+03 -0.15165339467E+03  0.69511684933E+03  0.65864270000E+03 0. -1.
    8880022    1    1    2    0    0  0.52622229723E+02 -0.15365343077E+03 -0.92924889572E+03  0.95565351412E+03  0.15294330000E+03 0.  0.
<mgrwt>
<rscale>  0 0.51371479E+03</rscale>
<asrwt>0</asrwt>
<pdfrwt beam="1">  1        2 0.43836006E-01 0.67837208E+03</pdfrwt>
<pdfrwt beam="2">  1       -2 0.21012866E+00 0.67837208E+03</pdfrwt>
<totfact> 0.13637896E+01</totfact>
</mgrwt>
</event>
<event>
 4    1  0.8468429E-007  0.1110582E+04  0.7818608E-02  0.9249365E-01
          2   -1    0    0  501    0  0.00000000000E+00  0.00000000000E+00  0.32536584818E+04  0.32536584818E+04  0.25500000000E-02 0. -1.
         -2   -1    0    0    0  501 -0.00000000000E+00 -0.00000000000E+00 -0.54357872469E+03  0.54357872469E+03  0.25500000000E-02 0.  1.
    8880023    1    1    2    0    0  0.49825315227E+03 -0.74251379787E+03  0.26670481373E+04  0.28890377146E+04  0.65864270000E+03 0.  0.
    8880022    1    1    2    0    0 -0.49825315227E+03  0.74251379787E+03  0.43031619887E+02  0.90819949191E+03  0.15294330000E+03 0.  0.
<mgrwt>
<rscale>  0 0.10558115E+04</rscale>
<asrwt>0</asrwt>
<pdfrwt beam="1">  1        2 0.50056286E+00 0.11105823E+04</pdfrwt>
<pdfrwt beam="2">  1       -2 0.83627494E-01 0.11105823E+04</pdfrwt>
<totfact> 0.15103226E+00</totfact>
</mgrwt>
</event>
<event>
 4    1  0.8468429E-007  0.1577165E+04  0.7818608E-02  0.8856985E-01
          2   -1    0    0  501    0  0.00000000000E+00  0.00000000000E+00  0.23016265603E+04  0.23016265603E+04  0.25500000000E-02 0. -1.
         -2   -1    0    0    0  501 -0.00000000000E+00 -0.00000000000E+00 -0.12807192950E+04  0.12807192950E+04  0.25500000000E-02 0.  1.
    8880023    1    1    2    0    0  0.89466385546E+03 -0.11194717641E+04  0.13815732846E+04  0.20967106123E+04  0.65864270000E+03 0.  0.
    8880022    1    1    2    0    0 -0.89466385546E+03  0.11194717641E+04 -0.36066601932E+03  0.14856352430E+04  0.15294330000E+03 0.  0.
<mgrwt>
<rscale>  0 0.15420140E+04</rscale>
<asrwt>0</asrwt>
<pdfrwt beam="1">  1        2 0.35409639E+00 0.15771654E+04</pdfrwt>
<pdfrwt beam="2">  1       -2 0.19703374E+00 0.15771654E+04</pdfrwt>
<totfact> 0.58659982E-01</totfact>
</mgrwt>
</event>
<event>
 4    1  0.8468429E-007  0.8027543E+03  0.7818608E-02  0.9704872E-01
          2   -1    0    0  501    0  0.00000000000E+00  0.00000000000E+00  0.27360413211E+04  0.27360413211E+04  0.25500000000E-02 0. -1.
         -2   -1    0    0    0  501 -0.00000000000E+00 -0.00000000000E+00 -0.21968946421E+03  0.21968946422E+03  0.25500000000E-02 0.  1.
    8880023    1    1    2    0    0  0.45203870438E+03 -0.79152954578E+02  0.22803066687E+04  0.24174806907E+04  0.65864270000E+03 0. -1.
    8880022    1    1    2    0    0 -0.45203870438E+03  0.79152954578E+02  0.23604518823E+03  0.53825009464E+03  0.15294330000E+03 0.  0.
<mgrwt>
<rscale>  0 0.70727446E+03</rscale>
<asrwt>0</asrwt>
<pdfrwt beam="1">  1        2 0.42092943E+00 0.80275425E+03</pdfrwt>
<pdfrwt beam="2">  1       -2 0.33798379E-01 0.80275425E+03</pdfrwt>
<totfact> 0.21582188E+01</totfact>
</mgrwt>
</event>
<event>
 4    1  0.8468429E-007  0.7100457E+03  0.7818608E-02  0.9957831E-01
          2   -1    0    0  501    0  0.00000000000E+00  0.00000000000E+00  0.42223457497E+03  0.42223457498E+03  0.25500000000E-02 0. -1.
         -2   -1    0    0    0  501 -0.00000000000E+00 -0.00000000000E+00 -0.94555785850E+03  0.94555785850E+03  0.25500000000E-02 0.  1.
    8880023    1    1    2    0    0 -0.26426794305E+03  0.22739661277E+02  0.56295814553E+02  0.71227386792E+03  0.65864270000E+03 0. -1.
    8880022    1    1    2    0    0  0.26426794305E+03 -0.22739661277E+02 -0.57961909808E+03  0.65551856556E+03  0.15294330000E+03 0.  0.
<mgrwt>
<rscale>  0 0.57538558E+03</rscale>
<asrwt>0</asrwt>
<pdfrwt beam="1">  1        2 0.64959166E-01 0.71004566E+03</pdfrwt>
<pdfrwt beam="2">  1       -2 0.14547044E+00 0.71004566E+03</pdfrwt>
<totfact> 0.24689341E+01</totfact>
</mgrwt>
</event>
<event>
 4    1  0.8468429E-007  0.6859075E+03  0.7818608E-02  0.1006162E+00
         -2   -1    0    0    0  501 -0.00000000000E+00  0.00000000000E+00  0.20101199395E+04  0.20101199395E+04  0.25500000000E-02 0.  1.
          2   -1    0    0  501    0  0.00000000000E+00 -0.00000000000E+00 -0.21190811122E+03  0.21190811123E+03  0.25500000000E-02 0. -1.
    8880023    1    1    2    0    0  0.12489927502E+03  0.14511758517E+03  0.38267335473E+03  0.78543494008E+03  0.65864270000E+03 0. -1.
    8880022    1    1    2    0    0 -0.12489927502E+03 -0.14511758517E+03  0.14155384736E+04  0.14365931107E+04  0.15294330000E+03 0.  0.
<mgrwt>
<rscale>  0 0.53029050E+03</rscale>
<asrwt>0</asrwt>
<pdfrwt beam="1">  1        2 0.32601248E-01 0.68590754E+03</pdfrwt>
<pdfrwt beam="2">  1       -2 0.30924922E+00 0.68590754E+03</pdfrwt>
<totfact> 0.47444709E+00</totfact>
</mgrwt>
</event>
<event>
 4    1  0.8468429E-007  0.1010652E+04  0.7818608E-02  0.9367753E-01
         -2   -1    0    0    0  501 -0.00000000000E+00  0.00000000000E+00  0.10697637424E+04  0.10697637424E+04  0.25500000000E-02 0.  1.
          2   -1    0    0  501    0  0.00000000000E+00 -0.00000000000E+00 -0.14266313943E+04  0.14266313943E+04  0.25500000000E-02 0. -1.
    8880023    1    1    2    0    0  0.30032795024E+03  0.70527276032E+03  0.66502544941E+03  0.12098246149E+04  0.65864270000E+03 0.  1.
    8880022    1    1    2    0    0 -0.30032795024E+03 -0.70527276032E+03 -0.10218931013E+04  0.12865705218E+04  0.15294330000E+03 0.  0.
<mgrwt>
<rscale>  0 0.94777687E+03</rscale>
<asrwt>0</asrwt>
<pdfrwt beam="1">  1        2 0.21948175E+00 0.10106516E+04</pdfrwt>
<pdfrwt beam="2">  1       -2 0.16457904E+00 0.10106516E+04</pdfrwt>
<totfact> 0.32278767E+00</totfact>
</mgrwt>
</event>
<event>
 4    1  0.8468429E-007  0.1220708E+04  0.7818608E-02  0.9137251E-01
          2   -1    0    0  501    0  0.00000000000E+00  0.00000000000E+00  0.19315033085E+04  0.19315033085E+04  0.25500000000E-02 0. -1.
         -2   -1    0    0    0  501 -0.00000000000E+00 -0.00000000000E+00 -0.11996607649E+04  0.11996607649E+04  0.25500000000E-02 0.  1.
    8880023    1    1    2    0    0 -0.96370322577E+03 -0.35720360862E+03  0.14293511211E+04  0.18796736842E+04  0.65864270000E+03 0. -1.
    8880022    1    1    2    0    0  0.96370322577E+03  0.35720360862E+03 -0.69750857760E+03  0.12514903892E+04  0.15294330000E+03 0.  0.
<mgrwt>
<rscale>  0 0.11725255E+04</rscale>
<asrwt>0</asrwt>
<pdfrwt beam="1">  1        2 0.29715435E+00 0.12207082E+04</pdfrwt>
<pdfrwt beam="2">  1       -2 0.18456320E+00 0.12207082E+04</pdfrwt>
<totfact> 0.11921027E+00</totfact>
</mgrwt>
</event>
<event>
 4    1  0.8468429E-007  0.7322156E+03  0.7818608E-02  0.9883231E-01
          2   -1    0    0  501    0  0.00000000000E+00  0.00000000000E+00  0.18518539604E+04  0.18518539604E+04  0.25500000000E-02 0. -1.
         -2   -1    0    0    0  501 -0.00000000000E+00 -0.00000000000E+00 -0.21514472878E+03  0.21514472879E+03  0.25500000000E-02 0.  1.
    8880023    1    1    2    0    0 -0.31296111169E+03  0.66218456764E+02  0.15308679591E+04  0.16969668400E+04  0.65864270000E+03 0. -1.
    8880022    1    1    2    0    0  0.31296111169E+03 -0.66218456764E+02  0.10584127249E+03  0.37003184920E+03  0.15294330000E+03 0.  1.
<mgrwt>
<rscale>  0 0.61080884E+03</rscale>
<asrwt>0</asrwt>
<pdfrwt beam="1">  1        2 0.28490060E+00 0.73221564E+03</pdfrwt>
<pdfrwt beam="2">  1       -2 0.33099190E-01 0.73221564E+03</pdfrwt>
<totfact> 0.70688045E+01</totfact>
</mgrwt>
</event>
<event>
 4    1  0.8468429E-007  0.6837219E+03  0.7818608E-02  0.1007292E+00
         -2   -1    0    0    0  501 -0.00000000000E+00  0.00000000000E+00  0.20798452626E+03  0.20798452627E+03  0.25500000000E-02 0.  1.
          2   -1    0    0  501    0  0.00000000000E+00 -0.00000000000E+00 -0.30869349148E+04  0.30869349148E+04  0.25500000000E-02 0. -1.
    8880023    1    1    2    0    0 -0.10181794424E+03  0.15263847489E+03 -0.29636386142E+04  0.30414847426E+04  0.65864270000E+03 0. -1.
    8880022    1    1    2    0    0  0.10181794424E+03 -0.15263847489E+03  0.84688225675E+02  0.25343469843E+03  0.15294330000E+03 0.  0.
<mgrwt>
<rscale>  0 0.52565194E+03</rscale>
<asrwt>0</asrwt>
<pdfrwt beam="1">  1        2 0.47491303E+00 0.68372188E+03</pdfrwt>
<pdfrwt beam="2">  1       -2 0.31997622E-01 0.68372188E+03</pdfrwt>
<totfact> 0.15001807E+01</totfact>
</mgrwt>
</event>
<event>
 4    1  0.8468429E-007  0.1028491E+04  0.7818608E-02  0.9345197E-01
          2   -1    0    0  501    0  0.00000000000E+00  0.00000000000E+00  0.16788747070E+04  0.16788747070E+04  0.25500000000E-02 0. -1.
         -2   -1    0    0    0  501 -0.00000000000E+00 -0.00000000000E+00 -0.68446724516E+03  0.68446724517E+03  0.25500000000E-02 0.  1.
    8880023    1    1    2    0    0 -0.41267551273E+03 -0.67355891658E+03  0.11510899561E+04  0.15436324000E+04  0.65864270000E+03 0.  0.
    8880022    1    1    2    0    0  0.41267551273E+03  0.67355891658E+03 -0.15668249429E+03  0.81970955219E+03  0.15294330000E+03 0.  0.
<mgrwt>
<rscale>  0 0.96726323E+03</rscale>
<asrwt>0</asrwt>
<pdfrwt beam="1">  1        2 0.25828841E+00 0.10284906E+04</pdfrwt>
<pdfrwt beam="2">  1       -2 0.10530265E+00 0.10284906E+04</pdfrwt>
<totfact> 0.73075161E+00</totfact>
</mgrwt>
</event>
<event>
 4    1  0.8468429E-007  0.7549428E+03  0.7818608E-02  0.9818380E-01
         -2   -1    0    0    0  501 -0.00000000000E+00  0.00000000000E+00  0.10657644435E+04  0.10657644435E+04  0.25500000000E-02 0.  1.
          2   -1    0    0  501    0  0.00000000000E+00 -0.00000000000E+00 -0.66780188983E+03  0.66780188984E+03  0.25500000000E-02 0. -1.
    8880023    1    1    2    0    0 -0.33356225478E+03 -0.15768520497E+03 -0.39032004487E+03  0.84987548816E+03  0.65864270000E+03 0. -1.
    8880022    1    1    2    0    0  0.33356225478E+03  0.15768520497E+03  0.78828259852E+03  0.88369084516E+03  0.15294330000E+03 0.  0.
<mgrwt>
<rscale>  0 0.64385406E+03</rscale>
<asrwt>0</asrwt>
<pdfrwt beam="1">  1        2 0.10273875E+00 0.75494278E+03</pdfrwt>
<pdfrwt beam="2">  1       -2 0.16396376E+00 0.75494278E+03</pdfrwt>
<totfact> 0.10401318E+01</totfact>
</mgrwt>
</event>
<event>
 4    1  0.8468429E-007  0.9826414E+03  0.7818608E-02  0.9404629E-01
         -2   -1    0    0    0  501 -0.00000000000E+00  0.00000000000E+00  0.50248265637E+03  0.50248265638E+03  0.25500000000E-02 0.  1.
          2   -1    0    0  501    0  0.00000000000E+00 -0.00000000000E+00 -0.24292073246E+04  0.24292073246E+04  0.25500000000E-02 0. -1.
    8880023    1    1    2    0    0 -0.65483362443E+03 -0.32088458419E+03 -0.19528477328E+04  0.21861377966E+04  0.65864270000E+03 0.  0.
    8880022    1    1    2    0    0  0.65483362443E+03  0.32088458419E+03  0.26123064587E+02  0.74555218434E+03  0.15294330000E+03 0.  0.
<mgrwt>
<rscale>  0 0.91695734E+03</rscale>
<asrwt>0</asrwt>
<pdfrwt beam="1">  1        2 0.37372420E+00 0.98264144E+03</pdfrwt>
<pdfrwt beam="2">  1       -2 0.77305026E-01 0.98264144E+03</pdfrwt>
<totfact> 0.57748489E+00</totfact>
</mgrwt>
</event>
<event>
 4    1  0.8468429E-007  0.1057088E+04  0.7818608E-02  0.9310409E-01
         -2   -1    0    0    0  501 -0.00000000000E+00  0.00000000000E+00  0.13418611258E+04  0.13418611258E+04  0.25500000000E-02 0.  1.
          2   -1    0    0  501    0  0.00000000000E+00 -0.00000000000E+00 -0.11393211783E+04  0.11393211783E+04  0.25500000000E-02 0. -1.
    8880023    1    1    2    0    0 -0.40162212993E+03  0.72271985452E+03 -0.68417965656E+03  0.12591808179E+04  0.65864270000E+03 0.  0.
    8880022    1    1    2    0    0  0.40162212993E+03 -0.72271985452E+03  0.88671960405E+03  0.12220014863E+04  0.15294330000E+03 0.  0.
<mgrwt>
<rscale>  0 0.99830199E+03</rscale>
<asrwt>0</asrwt>
<pdfrwt beam="1">  1        2 0.17528018E+00 0.10570878E+04</pdfrwt>
<pdfrwt beam="2">  1       -2 0.20644017E+00 0.10570878E+04</pdfrwt>
<totfact> 0.24534485E+00</totfact>
</mgrwt>
</event>
<event>
 4    1  0.8468429E-007  0.7577486E+03  0.7818608E-02  0.9810971E-01
         -2   -1    0    0    0  501 -0.00000000000E+00  0.00000000000E+00  0.16436401109E+04  0.16436401109E+04  0.25500000000E-02 0.  1.
          2   -1    0    0  501    0  0.00000000000E+00 -0.00000000000E+00 -0.41490373563E+03  0.41490373564E+03  0.25500000000E-02 0. -1.
    8880023    1    1    2    0    0  0.72786579218E+02 -0.36752530097E+03 -0.74707607818E+01  0.75778542576E+03  0.65864270000E+03 0.  0.
    8880022    1    1    2    0    0 -0.72786579218E+02  0.36752530097E+03  0.12362071361E+04  0.13007584208E+04  0.15294330000E+03 0.  0.
<mgrwt>
<rscale>  0 0.64777068E+03</rscale>
<asrwt>0</asrwt>
<pdfrwt beam="1">  1        2 0.63831345E-01 0.75774860E+03</pdfrwt>
<pdfrwt beam="2">  1       -2 0.25286771E+00 0.75774860E+03</pdfrwt>
<totfact> 0.48401075E+00</totfact>
</mgrwt>
</event>
<event>
 4    1  0.8468429E-007  0.8955131E+03  0.7818608E-02  0.9533273E-01
          2   -1    0    0  501    0  0.00000000000E+00  0.00000000000E+00  0.11438983016E+04  0.11438983016E+04  0.25500000000E-02 0. -1.
         -2   -1    0    0    0  501 -0.00000000000E+00 -0.00000000000E+00 -0.62997886071E+03  0.62997886072E+03  0.25500000000E-02 0.  1.
    8880023    1    1    2    0    0 -0.60419560390E+03  0.55507754280E+02  0.68238676134E+03  0.11258753647E+04  0.65864270000E+03 0. -1.
    8880022    1    1    2    0    0  0.60419560390E+03 -0.55507754280E+02 -0.16846732049E+03  0.64800179756E+03  0.15294330000E+03 0.  1.
<mgrwt>
<rscale>  0 0.81874544E+03</rscale>
<asrwt>0</asrwt>
<pdfrwt beam="1">  1        2 0.17598435E+00 0.89551306E+03</pdfrwt>
<pdfrwt beam="2">  1       -2 0.96919825E-01 0.89551306E+03</pdfrwt>
<totfact> 0.18272532E+01</totfact>
</mgrwt>
</event>
<event>
 4    1  0.8468429E-007  0.7897642E+03  0.7818608E-02  0.9733381E-01
         -2   -1    0    0    0  501 -0.00000000000E+00  0.00000000000E+00  0.98953875058E+03  0.98953875058E+03  0.25500000000E-02 0.  1.
          2   -1    0    0  501    0  0.00000000000E+00 -0.00000000000E+00 -0.11045606289E+04  0.11045606289E+04  0.25500000000E-02 0. -1.
    8880023    1    1    2    0    0 -0.27449222139E+03  0.33848386823E+03 -0.89127520504E+03  0.11908396223E+04  0.65864270000E+03 0.  0.
    8880022    1    1    2    0    0  0.27449222139E+03 -0.33848386823E+03  0.77625332673E+03  0.90325975717E+03  0.15294330000E+03 0.  0.
<mgrwt>
<rscale>  0 0.69063602E+03</rscale>
<asrwt>0</asrwt>
<pdfrwt beam="1">  1        2 0.16993240E+00 0.78976421E+03</pdfrwt>
<pdfrwt beam="2">  1       -2 0.15223673E+00 0.78976421E+03</pdfrwt>
<totfact> 0.63271696E+00</totfact>
</mgrwt>
</event>
<event>
 4    1  0.8468429E-007  0.1057244E+04  0.7818608E-02  0.9310223E-01
         -2   -1    0    0    0  501 -0.00000000000E+00  0.00000000000E+00  0.41986592158E+03  0.41986592159E+03  0.25500000000E-02 0.  1.
          2   -1    0    0  501    0  0.00000000000E+00 -0.00000000000E+00 -0.36202018228E+04  0.36202018228E+04  0.25500000000E-02 0. -1.
    8880023    1    1    2    0    0 -0.62305183991E+03 -0.54384008924E+03 -0.42392830892E+03  0.11390702591E+04  0.65864270000E+03 0.  1.
    8880022    1    1    2    0    0  0.62305183991E+03  0.54384008924E+03 -0.27764075923E+04  0.29009974853E+04  0.15294330000E+03 0.  0.
<mgrwt>
<rscale>  0 0.99847145E+03</rscale>
<asrwt>0</asrwt>
<pdfrwt beam="1">  1        2 0.55695411E+00 0.10572445E+04</pdfrwt>
<pdfrwt beam="2">  1       -2 0.64594760E-01 0.10572445E+04</pdfrwt>
<totfact> 0.15222166E+00</totfact>
</mgrwt>
</event>
<event>
 4    1  0.1159161E-006  0.6988680E+03  0.7818608E-02  0.1000193E+00
         -2   -1    0    0    0  501 -0.00000000000E+00  0.00000000000E+00  0.56991802920E+03  0.56991802921E+03  0.25500000000E-02 0.  1.
          2   -1    0    0  501    0  0.00000000000E+00 -0.00000000000E+00 -0.27438296707E+04  0.27438296707E+04  0.25500000000E-02 0. -1.
    8880023    1    1    2    0    0 -0.20753288709E+03 -0.10740781835E+03 -0.26615617819E+04  0.27517862678E+04  0.65864270000E+03 0. -1.
    8880022    1    1    2    0    0  0.20753288709E+03  0.10740781835E+03  0.48765014042E+03  0.56196143207E+03  0.15294330000E+03 0.  0.
<mgrwt>
<rscale>  0 0.55565703E+03</rscale>
<asrwt>0</asrwt>
<pdfrwt beam="1">  1        2 0.42212763E+00 0.69886805E+03</pdfrwt>
<pdfrwt beam="2">  1       -2 0.87679698E-01 0.69886805E+03</pdfrwt>
<totfact> 0.30000257E+00</totfact>
</mgrwt>
</event>
<event>
 4    1  0.8468429E-007  0.7323665E+03  0.7818608E-02  0.9882768E-01
         -2   -1    0    0    0  501 -0.00000000000E+00  0.00000000000E+00  0.22623323294E+03  0.22623323296E+03  0.25500000000E-02 0.  1.
          2   -1    0    0  501    0  0.00000000000E+00 -0.00000000000E+00 -0.32909969763E+04  0.32909969763E+04  0.25500000000E-02 0. -1.
    8880023    1    1    2    0    0  0.17678244753E+03 -0.26701767449E+03 -0.30761852150E+04  0.31621632082E+04  0.65864270000E+03 0. -1.
    8880022    1    1    2    0    0 -0.17678244753E+03  0.26701767449E+03  0.11421471574E+02  0.35506700110E+03  0.15294330000E+03 0.  0.
<mgrwt>
<rscale>  0 0.61103731E+03</rscale>
<asrwt>0</asrwt>
<pdfrwt beam="1">  1        2 0.50630719E+00 0.73236649E+03</pdfrwt>
<pdfrwt beam="2">  1       -2 0.34805115E-01 0.73236649E+03</pdfrwt>
<totfact> 0.94124299E+00</totfact>
</mgrwt>
</event>
<event>
 4    1  0.8468429E-007  0.8395924E+03  0.7818608E-02  0.9630949E-01
          2   -1    0    0  501    0  0.00000000000E+00  0.00000000000E+00  0.12213959759E+04  0.12213959759E+04  0.25500000000E-02 0. -1.
         -2   -1    0    0    0  501 -0.00000000000E+00 -0.00000000000E+00 -0.87039019490E+03  0.87039019491E+03  0.25500000000E-02 0.  1.
    8880023    1    1    2    0    0  0.47671674693E+03 -0.20939532100E+03  0.96048970567E+03  0.12757178129E+04  0.65864270000E+03 0.  0.
    8880022    1    1    2    0    0 -0.47671674693E+03  0.20939532100E+03 -0.60948392468E+03  0.81606835787E+03  0.15294330000E+03 0.  0.
<mgrwt>
<rscale>  0 0.75281191E+03</rscale>
<asrwt>0</asrwt>
<pdfrwt beam="1">  1        2 0.18790707E+00 0.83959244E+03</pdfrwt>
<pdfrwt beam="2">  1       -2 0.13390618E+00 0.83959244E+03</pdfrwt>
<totfact> 0.74770881E+00</totfact>
</mgrwt>
</event>
<event>
 4    1  0.8468429E-007  0.9627383E+03  0.7818608E-02  0.9432019E-01
         -2   -1    0    0    0  501 -0.00000000000E+00  0.00000000000E+00  0.13214774713E+04  0.13214774713E+04  0.25500000000E-02 0.  1.
          2   -1    0    0  501    0  0.00000000000E+00 -0.00000000000E+00 -0.14764905490E+04  0.14764905490E+04  0.25500000000E-02 0. -1.
    8880023    1    1    2    0    0 -0.50192575171E+03 -0.49104521886E+03 -0.11945472564E+04  0.15342125737E+04  0.65864270000E+03 0.  0.
    8880022    1    1    2    0    0  0.50192575171E+03  0.49104521886E+03  0.10395341787E+04  0.12637554466E+04  0.15294330000E+03 0.  0.
<mgrwt>
<rscale>  0 0.89486879E+03</rscale>
<asrwt>0</asrwt>
<pdfrwt beam="1">  1        2 0.22715239E+00 0.96273832E+03</pdfrwt>
<pdfrwt beam="2">  1       -2 0.20330423E+00 0.96273832E+03</pdfrwt>
<totfact> 0.16540228E+00</totfact>
</mgrwt>
</event>
<event>
 4    1  0.8468429E-007  0.1050088E+04  0.7818608E-02  0.9318776E-01
         -2   -1    0    0    0  501 -0.00000000000E+00  0.00000000000E+00  0.42778024234E+03  0.42778024234E+03  0.25500000000E-02 0.  1.
          2   -1    0    0  501    0  0.00000000000E+00 -0.00000000000E+00 -0.34185847118E+04  0.34185847118E+04  0.25500000000E-02 0. -1.
    8880023    1    1    2    0    0 -0.81015376016E+03 -0.11191463109E+03 -0.39741204919E+03  0.11227735938E+04  0.65864270000E+03 0.  0.
    8880022    1    1    2    0    0  0.81015376016E+03  0.11191463109E+03 -0.25933924203E+04  0.27235913604E+04  0.15294330000E+03 0.  0.
<mgrwt>
<rscale>  0 0.99072536E+03</rscale>
<asrwt>0</asrwt>
<pdfrwt beam="1">  1        2 0.52593609E+00 0.10500877E+04</pdfrwt>
<pdfrwt beam="2">  1       -2 0.65812347E-01 0.10500877E+04</pdfrwt>
<totfact> 0.20182432E+00</totfact>
</mgrwt>
</event>
<event>
 4    1  0.8468429E-007  0.6657782E+03  0.7818608E-02  0.1018889E+00
          2   -1    0    0  501    0  0.00000000000E+00  0.00000000000E+00  0.81349655267E+03  0.81349655267E+03  0.25500000000E-02 0. -1.
         -2   -1    0    0    0  501 -0.00000000000E+00 -0.00000000000E+00 -0.24899873357E+03  0.24899873358E+03  0.25500000000E-02 0.  1.
    8880023    1    1    2    0    0  0.63275694371E+02  0.73801193608E+02  0.57675719728E+03  0.88085725322E+03  0.65864270000E+03 0.  0.
    8880022    1    1    2    0    0 -0.63275694371E+02 -0.73801193608E+02 -0.12259378171E+02  0.18163803303E+03  0.15294330000E+03 0.  0.
<mgrwt>
<rscale>  0 0.48089584E+03</rscale>
<asrwt>0</asrwt>
<pdfrwt beam="1">  1        2 0.12515331E+00 0.66577822E+03</pdfrwt>
<pdfrwt beam="2">  1       -2 0.38307498E-01 0.66577822E+03</pdfrwt>
<totfact> 0.21971353E+02</totfact>
</mgrwt>
</event>
<event>
 4    1  0.8468429E-007  0.7960941E+03  0.7818608E-02  0.9719306E-01
         -2   -1    0    0    0  501 -0.00000000000E+00  0.00000000000E+00  0.61670418377E+03  0.61670418377E+03  0.25500000000E-02 0.  1.
          2   -1    0    0  501    0  0.00000000000E+00 -0.00000000000E+00 -0.12600318854E+04  0.12600318854E+04  0.25500000000E-02 0. -1.
    8880023    1    1    2    0    0 -0.27467138716E+03  0.35286149401E+03 -0.10046575532E+04  0.12818356410E+04  0.65864270000E+03 0.  0.
    8880022    1    1    2    0    0  0.27467138716E+03 -0.35286149401E+03  0.36132985157E+03  0.59490042825E+03  0.15294330000E+03 0.  0.
<mgrwt>
<rscale>  0 0.69878871E+03</rscale>
<asrwt>0</asrwt>
<pdfrwt beam="1">  1        2 0.19385106E+00 0.79609410E+03</pdfrwt>
<pdfrwt beam="2">  1       -2 0.94877567E-01 0.79609410E+03</pdfrwt>
<totfact> 0.16552922E+01</totfact>
</mgrwt>
</event>
<event>
 4    1  0.8468429E-007  0.6708461E+03  0.7818608E-02  0.1015063E+00
         -2   -1    0    0    0  501 -0.00000000000E+00  0.00000000000E+00  0.25956792074E+04  0.25956792074E+04  0.25500000000E-02 0.  1.
          2   -1    0    0  501    0  0.00000000000E+00 -0.00000000000E+00 -0.37030462923E+03  0.37030462924E+03  0.25500000000E-02 0. -1.
    8880023    1    1    2    0    0  0.12350004863E+03 -0.31177380968E+02 -0.58556062968E+02  0.67339684427E+03  0.65864270000E+03 0. -1.
    8880022    1    1    2    0    0 -0.12350004863E+03  0.31177380968E+02  0.22839306411E+04  0.22925869924E+04  0.15294330000E+03 0.  0.
<mgrwt>
<rscale>  0 0.49510912E+03</rscale>
<asrwt>0</asrwt>
<pdfrwt beam="1">  1        2 0.56969944E-01 0.67084611E+03</pdfrwt>
<pdfrwt beam="2">  1       -2 0.39933526E+00 0.67084611E+03</pdfrwt>
<totfact> 0.70170352E-01</totfact>
</mgrwt>
</event>
<event>
 4    1  0.8468429E-007  0.6657676E+03  0.7818608E-02  0.1018898E+00
          2   -1    0    0  501    0  0.00000000000E+00  0.00000000000E+00  0.83653881313E+03  0.83653881313E+03  0.25500000000E-02 0. -1.
         -2   -1    0    0    0  501 -0.00000000000E+00 -0.00000000000E+00 -0.93467429829E+03  0.93467429830E+03  0.25500000000E-02 0.  1.
    8880023    1    1    2    0    0 -0.86240624535E+02 -0.44707811299E+02  0.69217952064E+03  0.96039519406E+03  0.65864270000E+03 0. -1.
    8880022    1    1    2    0    0  0.86240624535E+02  0.44707811299E+02 -0.79031500580E+03  0.81081791737E+03  0.15294330000E+03 0.  0.
<mgrwt>
<rscale>  0 0.48086408E+03</rscale>
<asrwt>0</asrwt>
<pdfrwt beam="1">  1        2 0.12869828E+00 0.66576756E+03</pdfrwt>
<pdfrwt beam="2">  1       -2 0.14379605E+00 0.66576756E+03</pdfrwt>
<totfact> 0.11150483E+01</totfact>
</mgrwt>
</event>
<event>
 4    1  0.8468429E-007  0.8526793E+03  0.7818608E-02  0.9606721E-01
          2   -1    0    0  501    0  0.00000000000E+00  0.00000000000E+00  0.26037635702E+04  0.26037635702E+04  0.25500000000E-02 0. -1.
         -2   -1    0    0    0  501 -0.00000000000E+00 -0.00000000000E+00 -0.33266535521E+03  0.33266535522E+03  0.25500000000E-02 0.  1.
    8880023    1    1    2    0    0  0.68517559450E+02  0.53717517910E+03  0.22119614314E+04  0.23706192037E+04  0.65864270000E+03 0.  0.
    8880022    1    1    2    0    0 -0.68517559450E+02 -0.53717517910E+03  0.59136783650E+02  0.56580972172E+03  0.15294330000E+03 0.  0.
<mgrwt>
<rscale>  0 0.76852964E+03</rscale>
<asrwt>0</asrwt>
<pdfrwt beam="1">  1        2 0.40057899E+00 0.85267933E+03</pdfrwt>
<pdfrwt beam="2">  1       -2 0.51179287E-01 0.85267933E+03</pdfrwt>
<totfact> 0.11298530E+01</totfact>
</mgrwt>
</event>
<event>
 4    1  0.8468429E-007  0.8034603E+03  0.7818608E-02  0.9703364E-01
         -2   -1    0    0    0  501 -0.00000000000E+00  0.00000000000E+00  0.38190990639E+03  0.38190990640E+03  0.25500000000E-02 0.  1.
          2   -1    0    0  501    0  0.00000000000E+00 -0.00000000000E+00 -0.11617061549E+04  0.11617061549E+04  0.25500000000E-02 0. -1.
    8880023    1    1    2    0    0  0.42456540574E+03  0.17743276799E+03 -0.28946948888E+03  0.85401461473E+03  0.65864270000E+03 0.  1.
    8880022    1    1    2    0    0 -0.42456540574E+03 -0.17743276799E+03 -0.49032675968E+03  0.68960144662E+03  0.15294330000E+03 0. -1.
<mgrwt>
<rscale>  0 0.70816876E+03</rscale>
<asrwt>0</asrwt>
<pdfrwt beam="1">  1        2 0.17872402E+00 0.80346025E+03</pdfrwt>
<pdfrwt beam="2">  1       -2 0.58755371E-01 0.80346025E+03</pdfrwt>
<totfact> 0.54733981E+01</totfact>
</mgrwt>
</event>
<event>
 4    1  0.8468429E-007  0.6602608E+03  0.7818608E-02  0.1023891E+00
          2   -1    0    0  501    0  0.00000000000E+00  0.00000000000E+00  0.10879030596E+04  0.10879030596E+04  0.25500000000E-02 0. -1.
         -2   -1    0    0    0  501 -0.00000000000E+00 -0.00000000000E+00 -0.45164255741E+03  0.45164255742E+03  0.25500000000E-02 0.  1.
    8880023    1    1    2    0    0 -0.28635796442E+02  0.36251547417E+02  0.96776870215E+03  0.11715462648E+04  0.65864270000E+03 0. -1.
    8880022    1    1    2    0    0  0.28635796442E+02 -0.36251547417E+02 -0.33150819998E+03  0.36799935217E+03  0.15294330000E+03 0.  0.
<mgrwt>
<rscale>  0 0.46308334E+03</rscale>
<asrwt>0</asrwt>
<pdfrwt beam="1">  1        2 0.16736970E+00 0.66026085E+03</pdfrwt>
<pdfrwt beam="2">  1       -2 0.69483470E-01 0.66026085E+03</pdfrwt>
<totfact> 0.42957044E+01</totfact>
</mgrwt>
</event>
<event>
 4    1  0.8468429E-007  0.9065337E+03  0.7818608E-02  0.9515623E-01
         -2   -1    0    0    0  501 -0.00000000000E+00  0.00000000000E+00  0.37631840790E+03  0.37631840790E+03  0.25500000000E-02 0.  1.
          2   -1    0    0  501    0  0.00000000000E+00 -0.00000000000E+00 -0.19054311746E+04  0.19054311746E+04  0.25500000000E-02 0. -1.
    8880023    1    1    2    0    0 -0.62235835587E+03 -0.25752166264E+02 -0.13311216228E+04  0.16104931164E+04  0.65864270000E+03 0.  0.
    8880022    1    1    2    0    0  0.62235835587E+03  0.25752166264E+02 -0.19799114396E+03  0.67125646610E+03  0.15294330000E+03 0.  0.
<mgrwt>
<rscale>  0 0.83141715E+03</rscale>
<asrwt>0</asrwt>
<pdfrwt beam="1">  1        2 0.29314325E+00 0.90653367E+03</pdfrwt>
<pdfrwt beam="2">  1       -2 0.57895140E-01 0.90653367E+03</pdfrwt>
<totfact> 0.21319246E+01</totfact>
</mgrwt>
</event>
<event>
 4    1  0.8468429E-007  0.6742836E+03  0.7818608E-02  0.1012762E+00
          2   -1    0    0  501    0  0.00000000000E+00  0.00000000000E+00  0.18793258352E+04  0.18793258352E+04  0.25500000000E-02 0. -1.
         -2   -1    0    0    0  501 -0.00000000000E+00 -0.00000000000E+00 -0.14656505134E+03  0.14656505136E+03  0.25500000000E-02 0.  1.
    8880023    1    1    2    0    0 -0.77180933019E+02  0.12202956302E+03  0.16782038685E+04  0.18085979490E+04  0.65864270000E+03 0. -1.
    8880022    1    1    2    0    0  0.77180933019E+02 -0.12202956302E+03  0.54556915342E+02  0.21729293753E+03  0.15294330000E+03 0.  0.
<mgrwt>
<rscale>  0 0.50391644E+03</rscale>
<asrwt>0</asrwt>
<pdfrwt beam="1">  1        2 0.28912702E+00 0.67428356E+03</pdfrwt>
<pdfrwt beam="2">  1       -2 0.22548472E-01 0.67428356E+03</pdfrwt>
<totfact> 0.13863353E+02</totfact>
</mgrwt>
</event>
<event>
 4    1  0.8468429E-007  0.9249087E+03  0.7818608E-02  0.9487173E-01
         -2   -1    0    0    0  501 -0.00000000000E+00  0.00000000000E+00  0.52961721726E+03  0.52961721726E+03  0.25500000000E-02 0.  1.
          2   -1    0    0  501    0  0.00000000000E+00 -0.00000000000E+00 -0.37855670445E+04  0.37855670445E+04  0.25500000000E-02 0. -1.
    8880023    1    1    2    0    0  0.24984657733E+03 -0.59935186863E+03 -0.34882477979E+04  0.36087849591E+04  0.65864270000E+03 0.  0.
    8880022    1    1    2    0    0 -0.24984657733E+03  0.59935186863E+03  0.23229797071E+03  0.70639930269E+03  0.15294330000E+03 0.  0.
<mgrwt>
<rscale>  0 0.85236136E+03</rscale>
<asrwt>0</asrwt>
<pdfrwt beam="1">  1        2 0.58239491E+00 0.92490874E+03</pdfrwt>
<pdfrwt beam="2">  1       -2 0.81479575E-01 0.92490874E+03</pdfrwt>
<totfact> 0.70804373E-01</totfact>
</mgrwt>
</event>
<event>
 4    1  0.8468429E-007  0.9517442E+03  0.7818608E-02  0.9447609E-01
         -2   -1    0    0    0  501 -0.00000000000E+00  0.00000000000E+00  0.49291198050E+03  0.49291198051E+03  0.25500000000E-02 0.  1.
          2   -1    0    0  501    0  0.00000000000E+00 -0.00000000000E+00 -0.15960292548E+04  0.15960292548E+04  0.25500000000E-02 0. -1.
    8880023    1    1    2    0    0  0.68415392171E+03  0.62771063788E+02 -0.99490272016E+03  0.13768254878E+04  0.65864270000E+03 0. -1.
    8880022    1    1    2    0    0 -0.68415392171E+03 -0.62771063788E+02 -0.10821455409E+03  0.71211574745E+03  0.15294330000E+03 0.  0.
<mgrwt>
<rscale>  0 0.88259102E+03</rscale>
<asrwt>0</asrwt>
<pdfrwt beam="1">  1        2 0.24554296E+00 0.95174419E+03</pdfrwt>
<pdfrwt beam="2">  1       -2 0.75832613E-01 0.95174419E+03</pdfrwt>
<totfact> 0.17515294E+01</totfact>
</mgrwt>
</event>
<event>
 4    1  0.8468429E-007  0.6622520E+03  0.7818608E-02  0.1021959E+00
         -2   -1    0    0    0  501 -0.00000000000E+00  0.00000000000E+00  0.15978339417E+03  0.15978339419E+03  0.25500000000E-02 0.  1.
          2   -1    0    0  501    0  0.00000000000E+00 -0.00000000000E+00 -0.23233400311E+04  0.23233400311E+04  0.25500000000E-02 0. -1.
    8880023    1    1    2    0    0 -0.52298121834E+02 -0.45082351834E+02 -0.22115585336E+04  0.23085859018E+04  0.65864270000E+03 0. -1.
    8880022    1    1    2    0    0  0.52298121834E+02  0.45082351834E+02  0.48001896734E+02  0.17453752347E+03  0.15294330000E+03 0.  0.
<mgrwt>
<rscale>  0 0.46986158E+03</rscale>
<asrwt>0</asrwt>
<pdfrwt beam="1">  1        2 0.35743690E+00 0.66225201E+03</pdfrwt>
<pdfrwt beam="2">  1       -2 0.24582062E-01 0.66225201E+03</pdfrwt>
<totfact> 0.68034946E+01</totfact>
</mgrwt>
</event>
<event>
 4    1  0.8468429E-007  0.7855942E+03  0.7818608E-02  0.9742856E-01
          2   -1    0    0  501    0  0.00000000000E+00  0.00000000000E+00  0.12302490953E+04  0.12302490953E+04  0.25500000000E-02 0. -1.
         -2   -1    0    0    0  501 -0.00000000000E+00 -0.00000000000E+00 -0.40012276893E+03  0.40012276894E+03  0.25500000000E-02 0.  1.
    8880023    1    1    2    0    0 -0.21443539599E+03 -0.37062859086E+03  0.87208850909E+03  0.11737532387E+04  0.65864270000E+03 0. -1.
    8880022    1    1    2    0    0  0.21443539599E+03  0.37062859086E+03 -0.41962182702E+02  0.45661862556E+03  0.15294330000E+03 0.  0.
<mgrwt>
<rscale>  0 0.68521476E+03</rscale>
<asrwt>0</asrwt>
<pdfrwt beam="1">  1        2 0.18926909E+00 0.78559423E+03</pdfrwt>
<pdfrwt beam="2">  1       -2 0.61557350E-01 0.78559423E+03</pdfrwt>
<totfact> 0.45233164E+01</totfact>
</mgrwt>
</event>
<event>
 4    1  0.8468429E-007  0.9517962E+03  0.7818608E-02  0.9447534E-01
         -2   -1    0    0    0  501 -0.00000000000E+00  0.00000000000E+00  0.25240494208E+03  0.25240494209E+03  0.25500000000E-02 0.  1.
          2   -1    0    0  501    0  0.00000000000E+00 -0.00000000000E+00 -0.47864321054E+04  0.47864321054E+04  0.25500000000E-02 0. -1.
    8880023    1    1    2    0    0  0.63638544640E+03  0.25907387540E+03 -0.41062837536E+04  0.42151491291E+04  0.65864270000E+03 0.  0.
    8880022    1    1    2    0    0 -0.63638544640E+03 -0.25907387540E+03 -0.42774340971E+03  0.82368791837E+03  0.15294330000E+03 0.  1.
<mgrwt>
<rscale>  0 0.88264919E+03</rscale>
<asrwt>0</asrwt>
<pdfrwt beam="1">  1        2 0.73637410E+00 0.95179615E+03</pdfrwt>
<pdfrwt beam="2">  1       -2 0.38831533E-01 0.95179615E+03</pdfrwt>
<totfact> 0.42631015E-01</totfact>
</mgrwt>
</event>
<event>
 4    1  0.8468429E-007  0.9427891E+03  0.7818608E-02  0.9460566E-01
          2   -1    0    0  501    0  0.00000000000E+00  0.00000000000E+00  0.31419118557E+04  0.31419118557E+04  0.25500000000E-02 0. -1.
         -2   -1    0    0    0  501 -0.00000000000E+00 -0.00000000000E+00 -0.32163603765E+03  0.32163603766E+03  0.25500000000E-02 0.  1.
    8880023    1    1    2    0    0 -0.46212669417E+03 -0.49140622268E+03  0.25538617374E+04  0.27223264200E+04  0.65864270000E+03 0.  0.
    8880022    1    1    2    0    0  0.46212669417E+03  0.49140622268E+03  0.26641408064E+03  0.74122147333E+03  0.15294330000E+03 0.  0.
<mgrwt>
<rscale>  0 0.87254643E+03</rscale>
<asrwt>0</asrwt>
<pdfrwt beam="1">  1        2 0.48337106E+00 0.94278914E+03</pdfrwt>
<pdfrwt beam="2">  1       -2 0.49482467E-01 0.94278914E+03</pdfrwt>
<totfact> 0.56615504E+00</totfact>
</mgrwt>
</event>
<event>
 4    1  0.8468429E-007  0.6596309E+03  0.7818608E-02  0.1024538E+00
          2   -1    0    0  501    0  0.00000000000E+00  0.00000000000E+00  0.85978838447E+03  0.85978838447E+03  0.25500000000E-02 0. -1.
         -2   -1    0    0    0  501 -0.00000000000E+00 -0.00000000000E+00 -0.21774637900E+03  0.21774637902E+03  0.25500000000E-02 0.  1.
    8880023    1    1    2    0    0  0.33354648962E+02 -0.13788712356E+02  0.64187668303E+03  0.92039043002E+03  0.65864270000E+03 0. -1.
    8880022    1    1    2    0    0 -0.33354648962E+02  0.13788712356E+02  0.16532243799E+00  0.15714433347E+03  0.15294330000E+03 0.  0.
<mgrwt>
<rscale>  0 0.46084019E+03</rscale>
<asrwt>0</asrwt>
<pdfrwt beam="1">  1        2 0.13227513E+00 0.65963086E+03</pdfrwt>
<pdfrwt beam="2">  1       -2 0.33499444E-01 0.65963086E+03</pdfrwt>
<totfact> 0.26354435E+02</totfact>
</mgrwt>
</event>
<event>
 4    1  0.8468429E-007  0.9353894E+03  0.7818608E-02  0.9471455E-01
          2   -1    0    0  501    0  0.00000000000E+00  0.00000000000E+00  0.25928329520E+04  0.25928329520E+04  0.25500000000E-02 0. -1.
         -2   -1    0    0    0  501 -0.00000000000E+00 -0.00000000000E+00 -0.43010282594E+03  0.43010282595E+03  0.25500000000E-02 0.  1.
    8880023    1    1    2    0    0  0.52848036878E+02 -0.66208021988E+03  0.21461850021E+04  0.23411671026E+04  0.65864270000E+03 0. -1.
    8880022    1    1    2    0    0 -0.52848036878E+02  0.66208021988E+03  0.16545123908E+02  0.68176867535E+03  0.15294330000E+03 0.  0.
<mgrwt>
<rscale>  0 0.86421463E+03</rscale>
<asrwt>0</asrwt>
<pdfrwt beam="1">  1        2 0.39889738E+00 0.93538940E+03</pdfrwt>
<pdfrwt beam="2">  1       -2 0.66169665E-01 0.93538940E+03</pdfrwt>
<totfact> 0.65979428E+00</totfact>
</mgrwt>
</event>
<event>
 4    1  0.8468429E-007  0.8768128E+03  0.7818608E-02  0.9564329E-01
         -2   -1    0    0    0  501 -0.00000000000E+00  0.00000000000E+00  0.10785652422E+04  0.10785652422E+04  0.25500000000E-02 0.  1.
          2   -1    0    0  501    0  0.00000000000E+00 -0.00000000000E+00 -0.12463964384E+04  0.12463964384E+04  0.25500000000E-02 0. -1.
    8880023    1    1    2    0    0  0.30605923057E+03 -0.49124145364E+03 -0.98065205714E+03  0.13154767508E+04  0.65864270000E+03 0.  0.
    8880022    1    1    2    0    0 -0.30605923057E+03  0.49124145364E+03  0.81282086102E+03  0.10094849298E+04  0.15294330000E+03 0.  0.
<mgrwt>
<rscale>  0 0.79702773E+03</rscale>
<asrwt>0</asrwt>
<pdfrwt beam="1">  1        2 0.19175330E+00 0.87681276E+03</pdfrwt>
<pdfrwt beam="2">  1       -2 0.16593311E+00 0.87681276E+03</pdfrwt>
<totfact> 0.40751326E+00</totfact>
</mgrwt>
</event>
<event>
 4    1  0.8468429E-007  0.7197981E+03  0.7818608E-02  0.9923270E-01
          2   -1    0    0  501    0  0.00000000000E+00  0.00000000000E+00  0.54511603180E+03  0.54511603181E+03  0.25500000000E-02 0. -1.
         -2   -1    0    0    0  501 -0.00000000000E+00 -0.00000000000E+00 -0.59237350528E+03  0.59237350529E+03  0.25500000000E-02 0.  1.
    8880023    1    1    2    0    0  0.27897661205E+03 -0.80443557851E+02 -0.23774822677E+03  0.75804587042E+03  0.65864270000E+03 0.  1.
    8880022    1    1    2    0    0 -0.27897661205E+03  0.80443557851E+02  0.19049075330E+03  0.37944366667E+03  0.15294330000E+03 0.  0.
<mgrwt>
<rscale>  0 0.59146675E+03</rscale>
<asrwt>0</asrwt>
<pdfrwt beam="1">  1        2 0.83864005E-01 0.71979811E+03</pdfrwt>
<pdfrwt beam="2">  1       -2 0.91134385E-01 0.71979811E+03</pdfrwt>
<totfact> 0.57912103E+01</totfact>
</mgrwt>
</event>
<event>
 4    1  0.8468429E-007  0.6596636E+03  0.7818608E-02  0.1024504E+00
          2   -1    0    0  501    0  0.00000000000E+00  0.00000000000E+00  0.27788655649E+04  0.27788655649E+04  0.25500000000E-02 0. -1.
         -2   -1    0    0    0  501 -0.00000000000E+00 -0.00000000000E+00 -0.67084911135E+02  0.67084911184E+02  0.25500000000E-02 0.  1.
    8880023    1    1    2    0    0 -0.19845786422E+02 -0.30853879557E+02  0.24771595027E+04  0.25634888775E+04  0.65864270000E+03 0. -1.
    8880022    1    1    2    0    0  0.19845786422E+02  0.30853879557E+02  0.23462115111E+03  0.28246159861E+03  0.15294330000E+03 0.  0.
<mgrwt>
<rscale>  0 0.46095792E+03</rscale>
<asrwt>0</asrwt>
<pdfrwt beam="1">  1        2 0.42751778E+00 0.65966357E+03</pdfrwt>
<pdfrwt beam="2">  1       -2 0.10320755E-01 0.65966357E+03</pdfrwt>
<totfact> 0.16433482E+02</totfact>
</mgrwt>
</event>
<event>
 4    1  0.8468429E-007  0.1167960E+04  0.7818608E-02  0.9188914E-01
         -2   -1    0    0    0  501 -0.00000000000E+00  0.00000000000E+00  0.14576630639E+04  0.14576630639E+04  0.25500000000E-02 0.  1.
          2   -1    0    0  501    0  0.00000000000E+00 -0.00000000000E+00 -0.11996298199E+04  0.11996298199E+04  0.25500000000E-02 0. -1.
    8880023    1    1    2    0    0  0.26989694557E+03  0.92600020119E+03  0.91210331556E+03  0.14819120751E+04  0.65864270000E+03 0.  1.
    8880022    1    1    2    0    0 -0.26989694557E+03 -0.92600020119E+03 -0.65407007164E+03  0.11753808087E+04  0.15294330000E+03 0.  0.
<mgrwt>
<rscale>  0 0.11168586E+04</rscale>
<asrwt>0</asrwt>
<pdfrwt beam="1">  1        2 0.18455843E+00 0.11679602E+04</pdfrwt>
<pdfrwt beam="2">  1       -2 0.22425586E+00 0.11679602E+04</pdfrwt>
<totfact> 0.17161441E+00</totfact>
</mgrwt>
</event>
<event>
 4    1  0.8468429E-007  0.6785526E+03  0.7818608E-02  0.1010155E+00
          2   -1    0    0  501    0  0.00000000000E+00  0.00000000000E+00  0.15567221432E+04  0.15567221432E+04  0.25500000000E-02 0. -1.
         -2   -1    0    0    0  501 -0.00000000000E+00 -0.00000000000E+00 -0.35759276315E+03  0.35759276316E+03  0.25500000000E-02 0.  1.
    8880023    1    1    2    0    0  0.14320157579E+03  0.78209545638E+02  0.14361855233E+04  0.15884150868E+04  0.65864270000E+03 0.  0.
    8880022    1    1    2    0    0 -0.14320157579E+03 -0.78209545638E+02 -0.23705614325E+03  0.32589981958E+03  0.15294330000E+03 0.  0.
<mgrwt>
<rscale>  0 0.51413274E+03</rscale>
<asrwt>0</asrwt>
<pdfrwt beam="1">  1        2 0.23949571E+00 0.67855260E+03</pdfrwt>
<pdfrwt beam="2">  1       -2 0.55014272E-01 0.67855260E+03</pdfrwt>
<totfact> 0.37826905E+01</totfact>
</mgrwt>
</event>
<event>
 4    1  0.8468429E-007  0.6906541E+03  0.7818608E-02  0.1003843E+00
         -2   -1    0    0    0  501 -0.00000000000E+00  0.00000000000E+00  0.67965732801E+03  0.67965732802E+03  0.25500000000E-02 0.  1.
          2   -1    0    0  501    0  0.00000000000E+00 -0.00000000000E+00 -0.10871479460E+04  0.10871479460E+04  0.25500000000E-02 0. -1.
    8880023    1    1    2    0    0 -0.12352278610E+03  0.16713759539E+03 -0.94504937836E+03  0.11705218444E+04  0.65864270000E+03 0.  0.
    8880022    1    1    2    0    0  0.12352278610E+03 -0.16713759539E+03  0.53755876040E+03  0.59628342957E+03  0.15294330000E+03 0.  0.
<mgrwt>
<rscale>  0 0.53996684E+03</rscale>
<asrwt>0</asrwt>
<pdfrwt beam="1">  1        2 0.16725353E+00 0.69065408E+03</pdfrwt>
<pdfrwt beam="2">  1       -2 0.10456267E+00 0.69065408E+03</pdfrwt>
<totfact> 0.16883664E+01</totfact>
</mgrwt>
</event>
<event>
 4    1  0.8468429E-007  0.7737630E+03  0.7818608E-02  0.9770697E-01
         -2   -1    0    0    0  501 -0.00000000000E+00  0.00000000000E+00  0.85708269218E+03  0.85708269219E+03  0.25500000000E-02 0.  1.
          2   -1    0    0  501    0  0.00000000000E+00 -0.00000000000E+00 -0.10749508712E+04  0.10749508712E+04  0.25500000000E-02 0. -1.
    8880023    1    1    2    0    0 -0.11431442448E+03 -0.38965513101E+03 -0.86011527026E+03  0.11569388027E+04  0.65864270000E+03 0.  0.
    8880022    1    1    2    0    0  0.11431442448E+03  0.38965513101E+03  0.64224709127E+03  0.77509476067E+03  0.15294330000E+03 0.  0.
<mgrwt>
<rscale>  0 0.66959087E+03</rscale>
<asrwt>0</asrwt>
<pdfrwt beam="1">  1        2 0.16537706E+00 0.77376296E+03</pdfrwt>
<pdfrwt beam="2">  1       -2 0.13185888E+00 0.77376296E+03</pdfrwt>
<totfact> 0.96060512E+00</totfact>
</mgrwt>
</event>
<event>
 4    1  0.8468429E-007  0.6787062E+03  0.7818608E-02  0.1010065E+00
         -2   -1    0    0    0  501 -0.00000000000E+00  0.00000000000E+00  0.90699720743E+02  0.90699720779E+02  0.25500000000E-02 0.  1.
          2   -1    0    0  501    0  0.00000000000E+00 -0.00000000000E+00 -0.24717352416E+04  0.24717352416E+04  0.25500000000E-02 0. -1.
    8880023    1    1    2    0    0 -0.16367942028E+03 -0.64030419078E+01 -0.20745802677E+04  0.21827792937E+04  0.65864270000E+03 0.  0.
    8880022    1    1    2    0    0  0.16367942028E+03  0.64030419078E+01 -0.30645525317E+03  0.37965566870E+03  0.15294330000E+03 0.  0.
<mgrwt>
<rscale>  0 0.51448755E+03</rscale>
<asrwt>0</asrwt>
<pdfrwt beam="1">  1        2 0.38026691E+00 0.67870624E+03</pdfrwt>
<pdfrwt beam="2">  1       -2 0.13953805E-01 0.67870624E+03</pdfrwt>
<totfact> 0.14955933E+02</totfact>
</mgrwt>
</event>
<event>
 4    1  0.8468429E-007  0.7428465E+03  0.7818608E-02  0.9851732E-01
         -2   -1    0    0    0  501 -0.00000000000E+00  0.00000000000E+00  0.49509440689E+03  0.49509440690E+03  0.25500000000E-02 0.  1.
          2   -1    0    0  501    0  0.00000000000E+00 -0.00000000000E+00 -0.81523735144E+03  0.81523735144E+03  0.25500000000E-02 0. -1.
    8880023    1    1    2    0    0  0.33645984294E+03 -0.69321569342E+02  0.96500620306E+02  0.74908830045E+03  0.65864270000E+03 0.  1.
    8880022    1    1    2    0    0 -0.33645984294E+03  0.69321569342E+02 -0.41664356485E+03  0.56124345789E+03  0.15294330000E+03 0.  0.
<mgrwt>
<rscale>  0 0.62658701E+03</rscale>
<asrwt>0</asrwt>
<pdfrwt beam="1">  1        2 0.12542113E+00 0.74284649E+03</pdfrwt>
<pdfrwt beam="2">  1       -2 0.76168370E-01 0.74284649E+03</pdfrwt>
<totfact> 0.52561105E+01</totfact>
</mgrwt>
</event>
<event>
 4    1  0.8468429E-007  0.6685791E+03  0.7818608E-02  0.1016703E+00
          2   -1    0    0  501    0  0.00000000000E+00  0.00000000000E+00  0.29931970539E+03  0.29931970540E+03  0.25500000000E-02 0. -1.
         -2   -1    0    0    0  501 -0.00000000000E+00 -0.00000000000E+00 -0.62062772865E+03  0.62062772865E+03  0.25500000000E-02 0.  1.
    8880023    1    1    2    0    0  0.10872078400E+03  0.36980509239E+02 -0.22219494353E+03  0.70453429025E+03  0.65864270000E+03 0. -1.
    8880022    1    1    2    0    0 -0.10872078400E+03 -0.36980509239E+02 -0.99113079728E+02  0.21541314381E+03  0.15294330000E+03 0. -1.
<mgrwt>
<rscale>  0 0.48895533E+03</rscale>
<asrwt>0</asrwt>
<pdfrwt beam="1">  1        2 0.46049186E-01 0.66857907E+03</pdfrwt>
<pdfrwt beam="2">  1       -2 0.95481189E-01 0.66857907E+03</pdfrwt>
<totfact> 0.10274570E+02</totfact>
</mgrwt>
</event>
<event>
 4    1  0.8468429E-007  0.1038489E+04  0.7818608E-02  0.9332849E-01
          2   -1    0    0  501    0  0.00000000000E+00  0.00000000000E+00  0.30920301975E+04  0.30920301975E+04  0.25500000000E-02 0. -1.
         -2   -1    0    0    0  501 -0.00000000000E+00 -0.00000000000E+00 -0.42710786729E+03  0.42710786730E+03  0.25500000000E-02 0.  1.
    8880023    1    1    2    0    0  0.59975313383E+03  0.53380199534E+03  0.24691975515E+04  0.26786928055E+04  0.65864270000E+03 0.  0.
    8880022    1    1    2    0    0 -0.59975313383E+03 -0.53380199534E+03  0.19572477866E+03  0.84044525923E+03  0.15294330000E+03 0.  0.
<mgrwt>
<rscale>  0 0.97814134E+03</rscale>
<asrwt>0</asrwt>
<pdfrwt beam="1">  1        2 0.47569696E+00 0.10384886E+04</pdfrwt>
<pdfrwt beam="2">  1       -2 0.65708902E-01 0.10384886E+04</pdfrwt>
<totfact> 0.33085890E+00</totfact>
</mgrwt>
</event>
<event>
 4    1  0.8468429E-007  0.8241020E+03  0.7818608E-02  0.9660919E-01
         -2   -1    0    0    0  501 -0.00000000000E+00  0.00000000000E+00  0.70393471034E+03  0.70393471035E+03  0.25500000000E-02 0.  1.
          2   -1    0    0  501    0  0.00000000000E+00 -0.00000000000E+00 -0.71927469870E+03  0.71927469870E+03  0.25500000000E-02 0. -1.
    8880023    1    1    2    0    0 -0.36104850933E+03  0.33908388887E+03 -0.23984578414E+03  0.85829488884E+03  0.65864270000E+03 0.  0.
    8880022    1    1    2    0    0  0.36104850933E+03 -0.33908388887E+03  0.22450579579E+03  0.56491452021E+03  0.15294330000E+03 0.  0.
<mgrwt>
<rscale>  0 0.73392106E+03</rscale>
<asrwt>0</asrwt>
<pdfrwt beam="1">  1        2 0.11065765E+00 0.82410201E+03</pdfrwt>
<pdfrwt beam="2">  1       -2 0.10829765E+00 0.82410201E+03</pdfrwt>
<totfact> 0.27203617E+01</totfact>
</mgrwt>
</event>
<event>
 4    1  0.8468429E-007  0.7037701E+03  0.7818608E-02  0.9981907E-01
          2   -1    0    0  501    0  0.00000000000E+00  0.00000000000E+00  0.44978332065E+03  0.44978332065E+03  0.25500000000E-02 0. -1.
         -2   -1    0    0    0  501 -0.00000000000E+00 -0.00000000000E+00 -0.98024481579E+03  0.98024481579E+03  0.25500000000E-02 0.  1.
    8880023    1    1    2    0    0 -0.17973716897E+03 -0.17081179365E+03  0.12311835947E+03  0.71445815515E+03  0.65864270000E+03 0. -1.
    8880022    1    1    2    0    0  0.17973716897E+03  0.17081179365E+03 -0.65357985462E+03  0.71556998130E+03  0.15294330000E+03 0.  0.
<mgrwt>
<rscale>  0 0.56450759E+03</rscale>
<asrwt>0</asrwt>
<pdfrwt beam="1">  1        2 0.69197434E-01 0.70377008E+03</pdfrwt>
<pdfrwt beam="2">  1       -2 0.15080689E+00 0.70377008E+03</pdfrwt>
<totfact> 0.20912507E+01</totfact>
</mgrwt>
</event>
<event>
 4    1  0.8468429E-007  0.1081259E+04  0.7818608E-02  0.9282214E-01
         -2   -1    0    0    0  501 -0.00000000000E+00  0.00000000000E+00  0.62726634526E+03  0.62726634526E+03  0.25500000000E-02 0.  1.
          2   -1    0    0  501    0  0.00000000000E+00 -0.00000000000E+00 -0.31290981932E+04  0.31290981932E+04  0.25500000000E-02 0. -1.
    8880023    1    1    2    0    0 -0.55923332899E+03 -0.65005369458E+03  0.27132966716E+02  0.10815997995E+04  0.65864270000E+03 0.  0.
    8880022    1    1    2    0    0  0.55923332899E+03  0.65005369458E+03 -0.25289648147E+04  0.26747647390E+04  0.15294330000E+03 0.  0.
<mgrwt>
<rscale>  0 0.10243690E+04</rscale>
<asrwt>0</asrwt>
<pdfrwt beam="1">  1        2 0.48139971E+00 0.10812594E+04</pdfrwt>
<pdfrwt beam="2">  1       -2 0.96502517E-01 0.10812594E+04</pdfrwt>
<totfact> 0.13082061E+00</totfact>
</mgrwt>
</event>
<event>
 4    1  0.8468429E-007  0.9465902E+03  0.7818608E-02  0.9455037E-01
          2   -1    0    0  501    0  0.00000000000E+00  0.00000000000E+00  0.37950692955E+04  0.37950692955E+04  0.25500000000E-02 0. -1.
         -2   -1    0    0    0  501 -0.00000000000E+00 -0.00000000000E+00 -0.19931383733E+03  0.19931383734E+03  0.25500000000E-02 0.  1.
    8880023    1    1    2    0    0  0.67268266963E+03 -0.98594584763E+02  0.26892481897E+04  0.28509803399E+04  0.65864270000E+03 0.  0.
    8880022    1    1    2    0    0 -0.67268266963E+03  0.98594584763E+02  0.90650726838E+03  0.11434027929E+04  0.15294330000E+03 0.  0.
<mgrwt>
<rscale>  0 0.87681500E+03</rscale>
<asrwt>0</asrwt>
<pdfrwt beam="1">  1        2 0.58385676E+00 0.94659023E+03</pdfrwt>
<pdfrwt beam="2">  1       -2 0.30663670E-01 0.94659023E+03</pdfrwt>
<totfact> 0.51456066E+00</totfact>
</mgrwt>
</event>
<event>
 4    1  0.8468429E-007  0.7370835E+03  0.7818608E-02  0.9868525E-01
         -2   -1    0    0    0  501 -0.00000000000E+00  0.00000000000E+00  0.43998875036E+03  0.43998875036E+03  0.25500000000E-02 0.  1.
          2   -1    0    0  501    0  0.00000000000E+00 -0.00000000000E+00 -0.23659269361E+04  0.23659269361E+04  0.25500000000E-02 0. -1.
    8880023    1    1    2    0    0  0.22011354332E+03  0.24704643956E+03 -0.22189894084E+04  0.23382057471E+04  0.65864270000E+03 0. -1.
    8880022    1    1    2    0    0 -0.22011354332E+03 -0.24704643956E+03  0.29305122262E+03  0.46770993933E+03  0.15294330000E+03 0.  0.
<mgrwt>
<rscale>  0 0.61811225E+03</rscale>
<asrwt>0</asrwt>
<pdfrwt beam="1">  1        2 0.36398875E+00 0.73708352E+03</pdfrwt>
<pdfrwt beam="2">  1       -2 0.67690579E-01 0.73708352E+03</pdfrwt>
<totfact> 0.87095739E+00</totfact>
</mgrwt>
</event>
<event>
 4    1  0.8468429E-007  0.1526730E+04  0.7818608E-02  0.8890988E-01
          2   -1    0    0  501    0  0.00000000000E+00  0.00000000000E+00  0.23060201966E+04  0.23060201966E+04  0.25500000000E-02 0. -1.
         -2   -1    0    0    0  501 -0.00000000000E+00 -0.00000000000E+00 -0.12753604252E+04  0.12753604252E+04  0.25500000000E-02 0.  1.
    8880023    1    1    2    0    0 -0.10951628641E+04  0.83529249477E+03 -0.41159038536E+03  0.15812375224E+04  0.65864270000E+03 0.  0.
    8880022    1    1    2    0    0  0.10951628641E+04 -0.83529249477E+03  0.14422501568E+04  0.20001430995E+04  0.15294330000E+03 0.  0.
<mgrwt>
<rscale>  0 0.14902124E+04</rscale>
<asrwt>0</asrwt>
<pdfrwt beam="1">  1        2 0.35477233E+00 0.15267303E+04</pdfrwt>
<pdfrwt beam="2">  1       -2 0.19620930E+00 0.15267303E+04</pdfrwt>
<totfact> 0.59368668E-01</totfact>
</mgrwt>
</event>
<event>
 4    1  0.8468429E-007  0.8536662E+03  0.7818608E-02  0.9604931E-01
          2   -1    0    0  501    0  0.00000000000E+00  0.00000000000E+00  0.10301590556E+04  0.10301590557E+04  0.25500000000E-02 0. -1.
         -2   -1    0    0    0  501 -0.00000000000E+00 -0.00000000000E+00 -0.86877872701E+03  0.86877872701E+03  0.25500000000E-02 0.  1.
    8880023    1    1    2    0    0  0.63808441790E+02 -0.53931828106E+03  0.71122539342E+03  0.11111199269E+04  0.65864270000E+03 0.  0.
    8880022    1    1    2    0    0 -0.63808441790E+02  0.53931828106E+03 -0.54984506478E+03  0.78781785573E+03  0.15294330000E+03 0.  0.
<mgrwt>
<rscale>  0 0.76970676E+03</rscale>
<asrwt>0</asrwt>
<pdfrwt beam="1">  1        2 0.15848601E+00 0.85366617E+03</pdfrwt>
<pdfrwt beam="2">  1       -2 0.13365827E+00 0.85366617E+03</pdfrwt>
<totfact> 0.98100919E+00</totfact>
</mgrwt>
</event>
<event>
 4    1  0.8468429E-007  0.7919152E+03  0.7818608E-02  0.9728558E-01
         -2   -1    0    0    0  501 -0.00000000000E+00  0.00000000000E+00  0.79927791035E+03  0.79927791035E+03  0.25500000000E-02 0.  1.
          2   -1    0    0  501    0  0.00000000000E+00 -0.00000000000E+00 -0.70513764037E+03  0.70513764038E+03  0.25500000000E-02 0. -1.
    8880023    1    1    2    0    0  0.28852395064E+03 -0.33177319178E+03 -0.34559657124E+03  0.86404092333E+03  0.65864270000E+03 0. -1.
    8880022    1    1    2    0    0 -0.28852395064E+03  0.33177319178E+03  0.43973684122E+03  0.64037462740E+03  0.15294330000E+03 0.  0.
<mgrwt>
<rscale>  0 0.69341652E+03</rscale>
<asrwt>0</asrwt>
<pdfrwt beam="1">  1        2 0.10848271E+00 0.79191523E+03</pdfrwt>
<pdfrwt beam="2">  1       -2 0.12296583E+00 0.79191523E+03</pdfrwt>
<totfact> 0.20485409E+01</totfact>
</mgrwt>
</event>
<event>
 4    1  0.8468429E-007  0.7183943E+03  0.7818608E-02  0.9928057E-01
          2   -1    0    0  501    0  0.00000000000E+00  0.00000000000E+00  0.27347339805E+04  0.27347339805E+04  0.25500000000E-02 0. -1.
         -2   -1    0    0    0  501 -0.00000000000E+00 -0.00000000000E+00 -0.26923815438E+03  0.26923815439E+03  0.25500000000E-02 0.  1.
    8880023    1    1    2    0    0  0.13043509840E+03  0.25547391237E+03  0.25652456722E+04  0.26639399017E+04  0.65864270000E+03 0. -1.
    8880022    1    1    2    0    0 -0.13043509840E+03 -0.25547391237E+03 -0.99749846099E+02  0.34003223319E+03  0.15294330000E+03 0.  0.
<mgrwt>
<rscale>  0 0.58920594E+03</rscale>
<asrwt>0</asrwt>
<pdfrwt beam="1">  1        2 0.42072831E+00 0.71839435E+03</pdfrwt>
<pdfrwt beam="2">  1       -2 0.41421254E-01 0.71839435E+03</pdfrwt>
<totfact> 0.14804151E+01</totfact>
</mgrwt>
</event>
<event>
 4    1  0.8468429E-007  0.6608791E+03  0.7818608E-02  0.1023273E+00
          2   -1    0    0  501    0  0.00000000000E+00  0.00000000000E+00  0.19368109532E+04  0.19368109532E+04  0.25500000000E-02 0. -1.
         -2   -1    0    0    0  501 -0.00000000000E+00 -0.00000000000E+00 -0.20664678675E+03  0.20664678677E+03  0.25500000000E-02 0.  1.
    8880023    1    1    2    0    0 -0.44671350294E+02 -0.30909672816E+02  0.18349048384E+04  0.19502914935E+04  0.65864270000E+03 0. -1.
    8880022    1    1    2    0    0  0.44671350294E+02  0.30909672816E+02 -0.10474067193E+03  0.19316624648E+03  0.15294330000E+03 0.  0.
<mgrwt>
<rscale>  0 0.46523653E+03</rscale>
<asrwt>0</asrwt>
<pdfrwt beam="1">  1        2 0.29797092E+00 0.66087907E+03</pdfrwt>
<pdfrwt beam="2">  1       -2 0.31791813E-01 0.66087907E+03</pdfrwt>
<totfact> 0.69137588E+01</totfact>
</mgrwt>
</event>
<event>
 4    1  0.8468429E-007  0.7048907E+03  0.7818608E-02  0.9977487E-01
         -2   -1    0    0    0  501 -0.00000000000E+00  0.00000000000E+00  0.54490654599E+03  0.54490654600E+03  0.25500000000E-02 0.  1.
          2   -1    0    0  501    0  0.00000000000E+00 -0.00000000000E+00 -0.16353637455E+04  0.16353637455E+04  0.25500000000E-02 0. -1.
    8880023    1    1    2    0    0  0.25096230703E+03  0.88644587911E+01 -0.15108861524E+04  0.16672275879E+04  0.65864270000E+03 0.  0.
    8880022    1    1    2    0    0 -0.25096230703E+03 -0.88644587911E+01  0.42042895293E+03  0.51304270354E+03  0.15294330000E+03 0.  0.
<mgrwt>
<rscale>  0 0.56648498E+03</rscale>
<asrwt>0</asrwt>
<pdfrwt beam="1">  1        2 0.25159442E+00 0.70489068E+03</pdfrwt>
<pdfrwt beam="2">  1       -2 0.83831777E-01 0.70489068E+03</pdfrwt>
<totfact> 0.13692318E+01</totfact>
</mgrwt>
</event>
<event>
 4    1  0.8468429E-007  0.7287263E+03  0.7818608E-02  0.9894094E-01
          2   -1    0    0  501    0  0.00000000000E+00  0.00000000000E+00  0.15246773740E+04  0.15246773740E+04  0.25500000000E-02 0. -1.
         -2   -1    0    0    0  501 -0.00000000000E+00 -0.00000000000E+00 -0.62498953979E+03  0.62498953980E+03  0.25500000000E-02 0.  1.
    8880023    1    1    2    0    0  0.30516375537E+03 -0.64084906021E+02  0.13778459665E+04  0.15586858267E+04  0.65864270000E+03 0. -1.
    8880022    1    1    2    0    0 -0.30516375537E+03  0.64084906021E+02 -0.47815813230E+03  0.59098108707E+03  0.15294330000E+03 0.  0.
<mgrwt>
<rscale>  0 0.60548347E+03</rscale>
<asrwt>0</asrwt>
<pdfrwt beam="1">  1        2 0.23456575E+00 0.72872629E+03</pdfrwt>
<pdfrwt beam="2">  1       -2 0.96152238E-01 0.72872629E+03</pdfrwt>
<totfact> 0.11449631E+01</totfact>
</mgrwt>
</event>
<event>
 4    1  0.8468429E-007  0.6592931E+03  0.7818608E-02  0.1024893E+00
         -2   -1    0    0    0  501 -0.00000000000E+00  0.00000000000E+00  0.89368648861E+03  0.89368648861E+03  0.25500000000E-02 0.  1.
          2   -1    0    0  501    0  0.00000000000E+00 -0.00000000000E+00 -0.23407118630E+03  0.23407118632E+03  0.25500000000E-02 0. -1.
    8880023    1    1    2    0    0  0.21185456707E+02 -0.20208240316E+02  0.27784004406E+03  0.71544566034E+03  0.65864270000E+03 0. -1.
    8880022    1    1    2    0    0 -0.21185456707E+02  0.20208240316E+02  0.38177525824E+03  0.41231201459E+03  0.15294330000E+03 0.  0.
<mgrwt>
<rscale>  0 0.45961616E+03</rscale>
<asrwt>0</asrwt>
<pdfrwt beam="1">  1        2 0.36010953E-01 0.65929311E+03</pdfrwt>
<pdfrwt beam="2">  1       -2 0.13749022E+00 0.65929311E+03</pdfrwt>
<totfact> 0.55376415E+01</totfact>
</mgrwt>
</event>
<event>
 4    1  0.9192950E-007  0.6858426E+03  0.7818608E-02  0.1006195E+00
          2   -1    0    0  501    0  0.00000000000E+00  0.00000000000E+00  0.17752442192E+04  0.17752442192E+04  0.25500000000E-02 0. -1.
         -2   -1    0    0    0  501 -0.00000000000E+00 -0.00000000000E+00 -0.48703282284E+03  0.48703282285E+03  0.25500000000E-02 0.  1.
    8880023    1    1    2    0    0 -0.16989593708E+03 -0.87779399208E+02  0.16719017636E+04  0.18071069603E+04  0.65864270000E+03 0. -1.
    8880022    1    1    2    0    0  0.16989593708E+03  0.87779399208E+02 -0.38369036729E+03  0.45517008176E+03  0.15294330000E+03 0.  0.
<mgrwt>
<rscale>  0 0.53015444E+03</rscale>
<asrwt>0</asrwt>
<pdfrwt beam="1">  1        2 0.27311450E+00 0.68584259E+03</pdfrwt>
<pdfrwt beam="2">  1       -2 0.74928127E-01 0.68584259E+03</pdfrwt>
<totfact> 0.14812521E+01</totfact>
</mgrwt>
</event>
<event>
 4    1  0.8468429E-007  0.7951107E+03  0.7818608E-02  0.9721469E-01
          2   -1    0    0  501    0  0.00000000000E+00  0.00000000000E+00  0.43887079348E+03  0.43887079349E+03  0.25500000000E-02 0. -1.
         -2   -1    0    0    0  501 -0.00000000000E+00 -0.00000000000E+00 -0.94409348524E+03  0.94409348524E+03  0.25500000000E-02 0.  1.
    8880023    1    1    2    0    0 -0.26213733118E+03  0.36010401437E+03 -0.19385817550E+03  0.81840215056E+03  0.65864270000E+03 0.  1.
    8880022    1    1    2    0    0  0.26213733118E+03 -0.36010401437E+03 -0.31136451626E+03  0.56456212817E+03  0.15294330000E+03 0.  0.
<mgrwt>
<rscale>  0 0.69752798E+03</rscale>
<asrwt>0</asrwt>
<pdfrwt beam="1">  1        2 0.67518584E-01 0.79511074E+03</pdfrwt>
<pdfrwt beam="2">  1       -2 0.14524515E+00 0.79511074E+03</pdfrwt>
<totfact> 0.23564752E+01</totfact>
</mgrwt>
</event>
<event>
 4    1  0.8468429E-007  0.6608508E+03  0.7818608E-02  0.1023301E+00
          2   -1    0    0  501    0  0.00000000000E+00  0.00000000000E+00  0.81767795820E+03  0.81767795821E+03  0.25500000000E-02 0. -1.
         -2   -1    0    0    0  501 -0.00000000000E+00 -0.00000000000E+00 -0.10777619983E+04  0.10777619983E+04  0.25500000000E-02 0.  1.
    8880023    1    1    2    0    0  0.17695854027E+02 -0.50993783266E+02  0.67603072608E+03  0.94537889655E+03  0.65864270000E+03 0. -1.
    8880022    1    1    2    0    0 -0.17695854027E+02  0.50993783266E+02 -0.93611476615E+03  0.95006105993E+03  0.15294330000E+03 0.  0.
<mgrwt>
<rscale>  0 0.46513890E+03</rscale>
<asrwt>0</asrwt>
<pdfrwt beam="1">  1        2 0.12579661E+00 0.66085075E+03</pdfrwt>
<pdfrwt beam="2">  1       -2 0.16580954E+00 0.66085075E+03</pdfrwt>
<totfact> 0.78657496E+00</totfact>
</mgrwt>
</event>
<event>
 4    1  0.8468429E-007  0.6604555E+03  0.7818608E-02  0.1023695E+00
          2   -1    0    0  501    0  0.00000000000E+00  0.00000000000E+00  0.22424371482E+04  0.22424371482E+04  0.25500000000E-02 0. -1.
         -2   -1    0    0    0  501 -0.00000000000E+00 -0.00000000000E+00 -0.17129497275E+03  0.17129497277E+03  0.25500000000E-02 0.  1.
    8880023    1    1    2    0    0  0.45241044093E+02  0.18560335139E+02  0.21395711097E+04  0.22391886874E+04  0.65864270000E+03 0. -1.
    8880022    1    1    2    0    0 -0.45241044093E+02 -0.18560335139E+02 -0.68428934318E+02  0.17454343350E+03  0.15294330000E+03 0.  0.
<mgrwt>
<rscale>  0 0.46376622E+03</rscale>
<asrwt>0</asrwt>
<pdfrwt beam="1">  1        2 0.34499034E+00 0.66045548E+03</pdfrwt>
<pdfrwt beam="2">  1       -2 0.26353072E-01 0.66045548E+03</pdfrwt>
<totfact> 0.66527125E+01</totfact>
</mgrwt>
</event>
<event>
 4    1  0.8468429E-007  0.7016905E+03  0.7818608E-02  0.9990259E-01
         -2   -1    0    0    0  501 -0.00000000000E+00  0.00000000000E+00  0.10596878941E+03  0.10596878944E+03  0.25500000000E-02 0.  1.
          2   -1    0    0  501    0  0.00000000000E+00 -0.00000000000E+00 -0.26700011731E+04  0.26700011731E+04  0.25500000000E-02 0. -1.
    8880023    1    1    2    0    0 -0.57889235852E+02  0.23496410350E+03 -0.22208431563E+04  0.23290585704E+04  0.65864270000E+03 0.  0.
    8880022    1    1    2    0    0  0.57889235852E+02 -0.23496410350E+03 -0.34318922745E+03  0.44691139212E+03  0.15294330000E+03 0. -1.
<mgrwt>
<rscale>  0 0.56079409E+03</rscale>
<asrwt>0</asrwt>
<pdfrwt beam="1">  1        2 0.41076936E+00 0.70169046E+03</pdfrwt>
<pdfrwt beam="2">  1       -2 0.16302893E-01 0.70169046E+03</pdfrwt>
<totfact> 0.88345815E+01</totfact>
</mgrwt>
</event>
<event>
 4    1  0.8468429E-007  0.6803241E+03  0.7818608E-02  0.1009141E+00
          2   -1    0    0  501    0  0.00000000000E+00  0.00000000000E+00  0.56719165751E+03  0.56719165751E+03  0.25500000000E-02 0. -1.
         -2   -1    0    0    0  501 -0.00000000000E+00 -0.00000000000E+00 -0.72814761346E+03  0.72814761346E+03  0.25500000000E-02 0.  1.
    8880023    1    1    2    0    0  0.57602022346E+02 -0.16035169776E+03  0.32812454000E+03  0.75531885980E+03  0.65864270000E+03 0.  0.
    8880022    1    1    2    0    0 -0.57602022346E+02  0.16035169776E+03 -0.48908049595E+03  0.54002041117E+03  0.15294330000E+03 0.  0.
<mgrwt>
<rscale>  0 0.51817494E+03</rscale>
<asrwt>0</asrwt>
<pdfrwt beam="1">  1        2 0.87260255E-01 0.68032409E+03</pdfrwt>
<pdfrwt beam="2">  1       -2 0.11202271E+00 0.68032409E+03</pdfrwt>
<totfact> 0.33967099E+01</totfact>
</mgrwt>
</event>
<event>
 4    1  0.8468429E-007  0.6868958E+03  0.7818608E-02  0.1005664E+00
          2   -1    0    0  501    0  0.00000000000E+00  0.00000000000E+00  0.71625639255E+03  0.71625639255E+03  0.25500000000E-02 0. -1.
         -2   -1    0    0    0  501 -0.00000000000E+00 -0.00000000000E+00 -0.34930897664E+03  0.34930897665E+03  0.25500000000E-02 0.  1.
    8880023    1    1    2    0    0  0.18404089340E+03 -0.64378676008E+02  0.42932732497E+03  0.81002951958E+03  0.65864270000E+03 0.  1.
    8880022    1    1    2    0    0 -0.18404089340E+03  0.64378676008E+02 -0.62379909066E+02  0.25553584962E+03  0.15294330000E+03 0.  0.
<mgrwt>
<rscale>  0 0.53234806E+03</rscale>
<asrwt>0</asrwt>
<pdfrwt beam="1">  1        2 0.11019329E+00 0.68689582E+03</pdfrwt>
<pdfrwt beam="2">  1       -2 0.53739843E-01 0.68689582E+03</pdfrwt>
<totfact> 0.13175647E+02</totfact>
</mgrwt>
</event>
<event>
 4    1  0.8468429E-007  0.7403181E+03  0.7818608E-02  0.9859022E-01
          2   -1    0    0  501    0  0.00000000000E+00  0.00000000000E+00  0.14508725249E+04  0.14508725249E+04  0.25500000000E-02 0. -1.
         -2   -1    0    0    0  501 -0.00000000000E+00 -0.00000000000E+00 -0.36980911473E+03  0.36980911474E+03  0.25500000000E-02 0.  1.
    8880023    1    1    2    0    0 -0.26864668331E+03 -0.20515750113E+03  0.12178850822E+04  0.14252420568E+04  0.65864270000E+03 0. -1.
    8880022    1    1    2    0    0  0.26864668331E+03  0.20515750113E+03 -0.13682167205E+03  0.39543958285E+03  0.15294330000E+03 0.  0.
<mgrwt>
<rscale>  0 0.62289048E+03</rscale>
<asrwt>0</asrwt>
<pdfrwt beam="1">  1        2 0.22321116E+00 0.74031807E+03</pdfrwt>
<pdfrwt beam="2">  1       -2 0.56893710E-01 0.74031807E+03</pdfrwt>
<totfact> 0.40100386E+01</totfact>
</mgrwt>
</event>
<event>
 4    1  0.8468429E-007  0.7325092E+03  0.7818608E-02  0.9882330E-01
         -2   -1    0    0    0  501 -0.00000000000E+00  0.00000000000E+00  0.28506255765E+03  0.28506255766E+03  0.25500000000E-02 0.  1.
          2   -1    0    0  501    0  0.00000000000E+00 -0.00000000000E+00 -0.11143179331E+04  0.11143179331E+04  0.25500000000E-02 0. -1.
    8880023    1    1    2    0    0 -0.25426690105E+03  0.19521240025E+03 -0.72161578266E+03  0.10282504959E+04  0.65864270000E+03 0. -1.
    8880022    1    1    2    0    0  0.25426690105E+03 -0.19521240025E+03 -0.10763959282E+03  0.37112999493E+03  0.15294330000E+03 0. -1.
<mgrwt>
<rscale>  0 0.61125333E+03</rscale>
<asrwt>0</asrwt>
<pdfrwt beam="1">  1        2 0.17143353E+00 0.73250921E+03</pdfrwt>
<pdfrwt beam="2">  1       -2 0.43855779E-01 0.73250921E+03</pdfrwt>
<totfact> 0.10688335E+02</totfact>
</mgrwt>
</event>
<event>
 4    1  0.8468429E-007  0.6878990E+03  0.7818608E-02  0.1005168E+00
         -2   -1    0    0    0  501 -0.00000000000E+00  0.00000000000E+00  0.60220631484E+03  0.60220631484E+03  0.25500000000E-02 0.  1.
          2   -1    0    0  501    0  0.00000000000E+00 -0.00000000000E+00 -0.16589118657E+04  0.16589118657E+04  0.25500000000E-02 0. -1.
    8880023    1    1    2    0    0 -0.15312652945E+03  0.12628176959E+03 -0.15566631980E+04  0.17018828801E+04  0.65864270000E+03 0.  0.
    8880022    1    1    2    0    0  0.15312652945E+03 -0.12628176959E+03  0.49995764711E+03  0.55923530045E+03  0.15294330000E+03 0.  0.
<mgrwt>
<rscale>  0 0.53441269E+03</rscale>
<asrwt>0</asrwt>
<pdfrwt beam="1">  1        2 0.25521721E+00 0.68789899E+03</pdfrwt>
<pdfrwt beam="2">  1       -2 0.92647125E-01 0.68789899E+03</pdfrwt>
<totfact> 0.10594299E+01</totfact>
</mgrwt>
</event>
<event>
 4    1  0.8468429E-007  0.7368967E+03  0.7818608E-02  0.9869081E-01
          2   -1    0    0  501    0  0.00000000000E+00  0.00000000000E+00  0.11165204131E+04  0.11165204131E+04  0.25500000000E-02 0. -1.
         -2   -1    0    0    0  501 -0.00000000000E+00 -0.00000000000E+00 -0.46677986733E+03  0.46677986734E+03  0.25500000000E-02 0.  1.
    8880023    1    1    2    0    0  0.13984737746E+03 -0.29941486041E+03  0.88358605225E+03  0.11505394672E+04  0.65864270000E+03 0. -1.
    8880022    1    1    2    0    0 -0.13984737746E+03  0.29941486041E+03 -0.23384550644E+03  0.43276081328E+03  0.15294330000E+03 0.  0.
<mgrwt>
<rscale>  0 0.61783451E+03</rscale>
<asrwt>0</asrwt>
<pdfrwt beam="1">  1        2 0.17177237E+00 0.73689671E+03</pdfrwt>
<pdfrwt beam="2">  1       -2 0.71812287E-01 0.73689671E+03</pdfrwt>
<totfact> 0.38097592E+01</totfact>
</mgrwt>
</event>
<event>
 4    1  0.8468429E-007  0.7386005E+03  0.7818608E-02  0.9864043E-01
          2   -1    0    0  501    0  0.00000000000E+00  0.00000000000E+00  0.27803039501E+04  0.27803039501E+04  0.25500000000E-02 0. -1.
         -2   -1    0    0    0  501 -0.00000000000E+00 -0.00000000000E+00 -0.11008948884E+03  0.11008948887E+03  0.25500000000E-02 0.  1.
    8880023    1    1    2    0    0 -0.32103752562E+03  0.93034664796E+02  0.17500539410E+04  0.18995314013E+04  0.65864270000E+03 0.  0.
    8880022    1    1    2    0    0  0.32103752562E+03 -0.93034664796E+02  0.92016052026E+03  0.99086203771E+03  0.15294330000E+03 0. -1.
<mgrwt>
<rscale>  0 0.62036035E+03</rscale>
<asrwt>0</asrwt>
<pdfrwt beam="1">  1        2 0.42773907E+00 0.73860053E+03</pdfrwt>
<pdfrwt beam="2">  1       -2 0.16936844E-01 0.73860053E+03</pdfrwt>
<totfact> 0.71014482E+01</totfact>
</mgrwt>
</event>
<event>
 4    1  0.8468429E-007  0.6727896E+03  0.7818608E-02  0.1013737E+00
         -2   -1    0    0    0  501 -0.00000000000E+00  0.00000000000E+00  0.34425508268E+03  0.34425508269E+03  0.25500000000E-02 0.  1.
          2   -1    0    0  501    0  0.00000000000E+00 -0.00000000000E+00 -0.15797302921E+04  0.15797302921E+04  0.25500000000E-02 0. -1.
    8880023    1    1    2    0    0  0.11666871611E+03 -0.72277983300E+02 -0.14673019198E+04  0.16141935529E+04  0.65864270000E+03 0. -1.
    8880022    1    1    2    0    0 -0.11666871611E+03  0.72277983300E+02  0.23182671042E+03  0.30979182183E+03  0.15294330000E+03 0.  0.
<mgrwt>
<rscale>  0 0.50015970E+03</rscale>
<asrwt>0</asrwt>
<pdfrwt beam="1">  1        2 0.24303543E+00 0.67278964E+03</pdfrwt>
<pdfrwt beam="2">  1       -2 0.52962321E-01 0.67278964E+03</pdfrwt>
<totfact> 0.39766340E+01</totfact>
</mgrwt>
</event>
<event>
 4    1  0.8468429E-007  0.6782889E+03  0.7818608E-02  0.1010309E+00
         -2   -1    0    0    0  501 -0.00000000000E+00  0.00000000000E+00  0.54889380837E+03  0.54889380837E+03  0.25500000000E-02 0.  1.
          2   -1    0    0  501    0  0.00000000000E+00 -0.00000000000E+00 -0.21290586979E+04  0.21290586979E+04  0.25500000000E-02 0. -1.
    8880023    1    1    2    0    0  0.15857669959E+03  0.33451544940E+02 -0.20492716266E+04  0.21586083436E+04  0.65864270000E+03 0. -1.
    8880022    1    1    2    0    0 -0.15857669959E+03 -0.33451544940E+02  0.46910673704E+03  0.51934416263E+03  0.15294330000E+03 0.  0.
<mgrwt>
<rscale>  0 0.51352173E+03</rscale>
<asrwt>0</asrwt>
<pdfrwt beam="1">  1        2 0.32754749E+00 0.67828886E+03</pdfrwt>
<pdfrwt beam="2">  1       -2 0.84445203E-01 0.67828886E+03</pdfrwt>
<totfact> 0.72807616E+00</totfact>
</mgrwt>
</event>
<event>
 4    1  0.8468429E-007  0.9838153E+03  0.7818608E-02  0.9403045E-01
         -2   -1    0    0    0  501 -0.00000000000E+00  0.00000000000E+00  0.95655225177E+03  0.95655225178E+03  0.25500000000E-02 0.  1.
          2   -1    0    0  501    0  0.00000000000E+00 -0.00000000000E+00 -0.12365351819E+04  0.12365351819E+04  0.25500000000E-02 0. -1.
    8880023    1    1    2    0    0 -0.23858520827E+03  0.69076729387E+03 -0.81254135009E+03  0.12759764919E+04  0.65864270000E+03 0.  0.
    8880022    1    1    2    0    0  0.23858520827E+03 -0.69076729387E+03  0.53255841998E+03  0.91711094181E+03  0.15294330000E+03 0.  0.
<mgrwt>
<rscale>  0 0.91825491E+03</rscale>
<asrwt>0</asrwt>
<pdfrwt beam="1">  1        2 0.19023618E+00 0.98381531E+03</pdfrwt>
<pdfrwt beam="2">  1       -2 0.14716189E+00 0.98381531E+03</pdfrwt>
<totfact> 0.56390721E+00</totfact>
</mgrwt>
</event>
<event>
 4    1  0.8468429E-007  0.9593059E+03  0.7818608E-02  0.9436849E-01
          2   -1    0    0  501    0  0.00000000000E+00  0.00000000000E+00  0.32983019183E+04  0.32983019183E+04  0.25500000000E-02 0. -1.
         -2   -1    0    0    0  501 -0.00000000000E+00 -0.00000000000E+00 -0.64614926093E+03  0.64614926093E+03  0.25500000000E-02 0.  1.
    8880023    1    1    2    0    0  0.52232508185E+02 -0.69550655153E+03  0.30003931456E+04  0.31500201321E+04  0.65864270000E+03 0.  0.
    8880022    1    1    2    0    0 -0.52232508185E+02  0.69550655153E+03 -0.34824048817E+03  0.79443104720E+03  0.15294330000E+03 0.  0.
<mgrwt>
<rscale>  0 0.89104176E+03</rscale>
<asrwt>0</asrwt>
<pdfrwt beam="1">  1        2 0.50743106E+00 0.95930590E+03</pdfrwt>
<pdfrwt beam="2">  1       -2 0.99407580E-01 0.95930590E+03</pdfrwt>
<totfact> 0.96818191E-01</totfact>
</mgrwt>
</event>
<event>
 4    1  0.8468429E-007  0.6825187E+03  0.7818608E-02  0.1007933E+00
         -2   -1    0    0    0  501 -0.00000000000E+00  0.00000000000E+00  0.95486836546E+03  0.95486836546E+03  0.25500000000E-02 0.  1.
          2   -1    0    0  501    0  0.00000000000E+00 -0.00000000000E+00 -0.34219240431E+03  0.34219240432E+03  0.25500000000E-02 0. -1.
    8880023    1    1    2    0    0  0.14123114666E+03  0.10988774594E+03  0.46737078908E+02  0.68411703261E+03  0.65864270000E+03 0. -1.
    8880022    1    1    2    0    0 -0.14123114666E+03 -0.10988774594E+03  0.56593888224E+03  0.61294373717E+03  0.15294330000E+03 0.  1.
<mgrwt>
<rscale>  0 0.52304321E+03</rscale>
<asrwt>0</asrwt>
<pdfrwt beam="1">  1        2 0.52644986E-01 0.68251869E+03</pdfrwt>
<pdfrwt beam="2">  1       -2 0.14690282E+00 0.68251869E+03</pdfrwt>
<totfact> 0.30524457E+01</totfact>
</mgrwt>
</event>
<event>
 4    1  0.8468429E-007  0.7077477E+03  0.7818608E-02  0.9966462E-01
         -2   -1    0    0    0  501 -0.00000000000E+00  0.00000000000E+00  0.27801415151E+03  0.27801415153E+03  0.25500000000E-02 0.  1.
          2   -1    0    0  501    0  0.00000000000E+00 -0.00000000000E+00 -0.10598759486E+04  0.10598759486E+04  0.25500000000E-02 0. -1.
    8880023    1    1    2    0    0  0.18512822838E+03 -0.18117428949E+03 -0.75658821685E+03  0.10360176255E+04  0.65864270000E+03 0.  0.
    8880022    1    1    2    0    0 -0.18512822838E+03  0.18117428949E+03 -0.25273580278E+02  0.30187247472E+03  0.15294330000E+03 0.  0.
<mgrwt>
<rscale>  0 0.57145608E+03</rscale>
<asrwt>0</asrwt>
<pdfrwt beam="1">  1        2 0.16305784E+00 0.70774769E+03</pdfrwt>
<pdfrwt beam="2">  1       -2 0.42771408E-01 0.70774769E+03</pdfrwt>
<totfact> 0.12152938E+02</totfact>
</mgrwt>
</event>
<event>
 4    1  0.8468429E-007  0.6593017E+03  0.7818608E-02  0.1024884E+00
          2   -1    0    0  501    0  0.00000000000E+00  0.00000000000E+00  0.12436008077E+04  0.12436008077E+04  0.25500000000E-02 0. -1.
         -2   -1    0    0    0  501 -0.00000000000E+00 -0.00000000000E+00 -0.15567668139E+03  0.15567668141E+03  0.25500000000E-02 0.  1.
    8880023    1    1    2    0    0 -0.26565725658E+02  0.12758623407E+02  0.10485810344E+04  0.12386286418E+04  0.65864270000E+03 0. -1.
    8880022    1    1    2    0    0  0.26565725658E+02 -0.12758623407E+02  0.39343091879E+02  0.16064884732E+03  0.15294330000E+03 0.  0.
<mgrwt>
<rscale>  0 0.45964748E+03</rscale>
<asrwt>0</asrwt>
<pdfrwt beam="1">  1        2 0.19132320E+00 0.65930170E+03</pdfrwt>
<pdfrwt beam="2">  1       -2 0.23950258E-01 0.65930170E+03</pdfrwt>
<totfact> 0.28079660E+02</totfact>
</mgrwt>
</event>
<event>
 4    1  0.8468429E-007  0.8596325E+03  0.7818608E-02  0.9594218E-01
         -2   -1    0    0    0  501 -0.00000000000E+00  0.00000000000E+00  0.69510209605E+03  0.69510209605E+03  0.25500000000E-02 0.  1.
          2   -1    0    0  501    0  0.00000000000E+00 -0.00000000000E+00 -0.40080775956E+04  0.40080775956E+04  0.25500000000E-02 0. -1.
    8880023    1    1    2    0    0 -0.19979423831E+02 -0.55204947528E+03 -0.38336262651E+04  0.39288240413E+04  0.65864270000E+03 0. -1.
    8880022    1    1    2    0    0  0.19979423831E+02  0.55204947528E+03  0.52065076557E+03  0.77435565036E+03  0.15294330000E+03 0.  0.
<mgrwt>
<rscale>  0 0.77680088E+03</rscale>
<asrwt>0</asrwt>
<pdfrwt beam="1">  1        2 0.61662731E+00 0.85963248E+03</pdfrwt>
<pdfrwt beam="2">  1       -2 0.10693879E+00 0.85963248E+03</pdfrwt>
<totfact> 0.25691755E-01</totfact>
</mgrwt>
</event>
<event>
 4    1  0.8468429E-007  0.8446750E+03  0.7818608E-02  0.9621427E-01
         -2   -1    0    0    0  501 -0.00000000000E+00  0.00000000000E+00  0.59248298083E+03  0.59248298083E+03  0.25500000000E-02 0.  1.
          2   -1    0    0  501    0  0.00000000000E+00 -0.00000000000E+00 -0.17628699760E+04  0.17628699760E+04  0.25500000000E-02 0. -1.
    8880023    1    1    2    0    0 -0.25116930878E+03  0.46538112904E+03 -0.14943811152E+04  0.17165811198E+04  0.65864270000E+03 0. -1.
    8880022    1    1    2    0    0  0.25116930878E+03 -0.46538112904E+03  0.32399412008E+03  0.63877183704E+03  0.15294330000E+03 0.  0.
<mgrwt>
<rscale>  0 0.75894064E+03</rscale>
<asrwt>0</asrwt>
<pdfrwt beam="1">  1        2 0.27121076E+00 0.84467498E+03</pdfrwt>
<pdfrwt beam="2">  1       -2 0.91151229E-01 0.84467498E+03</pdfrwt>
<totfact> 0.94411438E+00</totfact>
</mgrwt>
</event>
<event>
 4    1  0.8468429E-007  0.1247137E+04  0.7818608E-02  0.9112610E-01
          2   -1    0    0  501    0  0.00000000000E+00  0.00000000000E+00  0.12038597336E+04  0.12038597336E+04  0.25500000000E-02 0. -1.
         -2   -1    0    0    0  501 -0.00000000000E+00 -0.00000000000E+00 -0.20892529654E+04  0.20892529654E+04  0.25500000000E-02 0.  1.
    8880023    1    1    2    0    0 -0.89791494008E+03 -0.56150598815E+03 -0.15833942569E+04  0.20155614090E+04  0.65864270000E+03 0.  0.
    8880022    1    1    2    0    0  0.89791494008E+03  0.56150598815E+03  0.69800102511E+03  0.12775512899E+04  0.15294330000E+03 0.  0.
<mgrwt>
<rscale>  0 0.12002813E+04</rscale>
<asrwt>0</asrwt>
<pdfrwt beam="1">  1        2 0.18520919E+00 0.12471369E+04</pdfrwt>
<pdfrwt beam="2">  1       -2 0.32142353E+00 0.12471369E+04</pdfrwt>
<totfact> 0.42996940E-01</totfact>
</mgrwt>
</event>
<event>
 4    1  0.8468429E-007  0.7713738E+03  0.7818608E-02  0.9776505E-01
         -2   -1    0    0    0  501 -0.00000000000E+00  0.00000000000E+00  0.54253889157E+03  0.54253889157E+03  0.25500000000E-02 0.  1.
          2   -1    0    0  501    0  0.00000000000E+00 -0.00000000000E+00 -0.11167659749E+04  0.11167659749E+04  0.25500000000E-02 0. -1.
    8880023    1    1    2    0    0 -0.26947464660E+03  0.29764205957E+03 -0.85072932095E+03  0.11483718756E+04  0.65864270000E+03 0. -1.
    8880022    1    1    2    0    0  0.26947464660E+03 -0.29764205957E+03  0.27650223762E+03  0.51093299092E+03  0.15294330000E+03 0.  0.
<mgrwt>
<rscale>  0 0.66638829E+03</rscale>
<asrwt>0</asrwt>
<pdfrwt beam="1">  1        2 0.17181015E+00 0.77137383E+03</pdfrwt>
<pdfrwt beam="2">  1       -2 0.83467522E-01 0.77137383E+03</pdfrwt>
<totfact> 0.27129588E+01</totfact>
</mgrwt>
</event>
<event>
 4    1  0.8468429E-007  0.1064116E+04  0.7818608E-02  0.9302101E-01
         -2   -1    0    0    0  501 -0.00000000000E+00  0.00000000000E+00  0.56642598116E+03  0.56642598116E+03  0.25500000000E-02 0.  1.
          2   -1    0    0  501    0  0.00000000000E+00 -0.00000000000E+00 -0.18038133828E+04  0.18038133828E+04  0.25500000000E-02 0. -1.
    8880023    1    1    2    0    0 -0.83401682932E+03 -0.54303794498E+02 -0.10605553731E+04  0.15023717514E+04  0.65864270000E+03 0.  0.
    8880022    1    1    2    0    0  0.83401682932E+03  0.54303794498E+02 -0.17683202858E+03  0.86786761262E+03  0.15294330000E+03 0.  0.
<mgrwt>
<rscale>  0 0.10058964E+04</rscale>
<asrwt>0</asrwt>
<pdfrwt beam="1">  1        2 0.27750975E+00 0.10641161E+04</pdfrwt>
<pdfrwt beam="2">  1       -2 0.87142460E-01 0.10641161E+04</pdfrwt>
<totfact> 0.97009308E+00</totfact>
</mgrwt>
</event>
<event>
 4    1  0.8885046E-007  0.8295573E+03  0.7818608E-02  0.9650194E-01
         -2   -1    0    0    0  501 -0.00000000000E+00  0.00000000000E+00  0.14029105180E+04  0.14029105180E+04  0.25500000000E-02 0.  1.
          2   -1    0    0  501    0  0.00000000000E+00 -0.00000000000E+00 -0.12428585030E+04  0.12428585030E+04  0.25500000000E-02 0. -1.
    8880023    1    1    2    0    0  0.18528612674E+03 -0.46906729389E+03 -0.10428079671E+04  0.13325215711E+04  0.65864270000E+03 0. -1.
    8880022    1    1    2    0    0 -0.18528612674E+03  0.46906729389E+03  0.12028599821E+04  0.13132474499E+04  0.15294330000E+03 0.  0.
<mgrwt>
<rscale>  0 0.74061227E+03</rscale>
<asrwt>0</asrwt>
<pdfrwt beam="1">  1        2 0.19120900E+00 0.82955728E+03</pdfrwt>
<pdfrwt beam="2">  1       -2 0.21583239E+00 0.82955728E+03</pdfrwt>
<totfact> 0.19088239E+00</totfact>
</mgrwt>
</event>
<event>
 4    1  0.8468429E-007  0.6622690E+03  0.7818608E-02  0.1021943E+00
          2   -1    0    0  501    0  0.00000000000E+00  0.00000000000E+00  0.58600147086E+03  0.58600147087E+03  0.25500000000E-02 0. -1.
         -2   -1    0    0    0  501 -0.00000000000E+00 -0.00000000000E+00 -0.85346192894E+03  0.85346192894E+03  0.25500000000E-02 0.  1.
    8880023    1    1    2    0    0 -0.57208859746E+02  0.38950678716E+02  0.38480105822E+03  0.76594521323E+03  0.65864270000E+03 0. -1.
    8880022    1    1    2    0    0  0.57208859746E+02 -0.38950678716E+02 -0.65226151629E+03  0.67351818658E+03  0.15294330000E+03 0.  0.
<mgrwt>
<rscale>  0 0.46991752E+03</rscale>
<asrwt>0</asrwt>
<pdfrwt beam="1">  1        2 0.90154073E-01 0.66226899E+03</pdfrwt>
<pdfrwt beam="2">  1       -2 0.13130183E+00 0.66226899E+03</pdfrwt>
<totfact> 0.22075823E+01</totfact>
</mgrwt>
</event>
<event>
 4    1  0.8468429E-007  0.7295577E+03  0.7818608E-02  0.9891481E-01
          2   -1    0    0  501    0  0.00000000000E+00  0.00000000000E+00  0.29408335282E+04  0.29408335282E+04  0.25500000000E-02 0. -1.
         -2   -1    0    0    0  501 -0.00000000000E+00 -0.00000000000E+00 -0.13964448103E+03  0.13964448105E+03  0.25500000000E-02 0.  1.
    8880023    1    1    2    0    0  0.30859790997E+03  0.56670526117E+02  0.25449920853E+04  0.26474967685E+04  0.65864270000E+03 0.  0.
    8880022    1    1    2    0    0 -0.30859790997E+03 -0.56670526117E+02  0.25619696185E+03  0.43298124075E+03  0.15294330000E+03 0.  0.
<mgrwt>
<rscale>  0 0.60675956E+03</rscale>
<asrwt>0</asrwt>
<pdfrwt beam="1">  1        2 0.45243594E+00 0.72955769E+03</pdfrwt>
<pdfrwt beam="2">  1       -2 0.21483766E-01 0.72955769E+03</pdfrwt>
<totfact> 0.37713034E+01</totfact>
</mgrwt>
</event>
<event>
 4    1  0.8468429E-007  0.6650478E+03  0.7818608E-02  0.1019493E+00
         -2   -1    0    0    0  501 -0.00000000000E+00  0.00000000000E+00  0.26768452728E+03  0.26768452729E+03  0.25500000000E-02 0.  1.
          2   -1    0    0  501    0  0.00000000000E+00 -0.00000000000E+00 -0.10273483651E+04  0.10273483651E+04  0.25500000000E-02 0. -1.
    8880023    1    1    2    0    0  0.35915287283E+02 -0.84785019453E+02 -0.86241052553E+03  0.10890548784E+04  0.65864270000E+03 0.  0.
    8880022    1    1    2    0    0 -0.35915287283E+02  0.84785019453E+02  0.10274668773E+03  0.20597801397E+03  0.15294330000E+03 0.  1.
<mgrwt>
<rscale>  0 0.47869900E+03</rscale>
<asrwt>0</asrwt>
<pdfrwt beam="1">  1        2 0.15805359E+00 0.66504783E+03</pdfrwt>
<pdfrwt beam="2">  1       -2 0.41182236E-01 0.66504783E+03</pdfrwt>
<totfact> 0.13762650E+02</totfact>
</mgrwt>
</event>
<event>
 4    1  0.8468429E-007  0.9165274E+03  0.7818608E-02  0.9500004E-01
         -2   -1    0    0    0  501 -0.00000000000E+00  0.00000000000E+00  0.21646529969E+03  0.21646529971E+03  0.25500000000E-02 0.  1.
          2   -1    0    0  501    0  0.00000000000E+00 -0.00000000000E+00 -0.33172276350E+04  0.33172276350E+04  0.25500000000E-02 0. -1.
    8880023    1    1    2    0    0 -0.21236864403E+03 -0.60092587618E+03 -0.24243496384E+04  0.25918128260E+04  0.65864270000E+03 0.  0.
    8880022    1    1    2    0    0  0.21236864403E+03  0.60092587618E+03 -0.67641269694E+03  0.94188010873E+03  0.15294330000E+03 0.  0.
<mgrwt>
<rscale>  0 0.84283516E+03</rscale>
<asrwt>0</asrwt>
<pdfrwt beam="1">  1        2 0.51034268E+00 0.91652744E+03</pdfrwt>
<pdfrwt beam="2">  1       -2 0.33302356E-01 0.91652744E+03</pdfrwt>
<totfact> 0.95350985E+00</totfact>
</mgrwt>
</event>
<event>
 4    1  0.8468429E-007  0.8280874E+03  0.7818608E-02  0.9653065E-01
         -2   -1    0    0    0  501 -0.00000000000E+00  0.00000000000E+00  0.49067784050E+03  0.49067784051E+03  0.25500000000E-02 0.  1.
          2   -1    0    0  501    0  0.00000000000E+00 -0.00000000000E+00 -0.13649505014E+04  0.13649505014E+04  0.25500000000E-02 0. -1.
    8880023    1    1    2    0    0 -0.24786561729E+03 -0.43644142232E+03 -0.10173545379E+04  0.13117693934E+04  0.65864270000E+03 0.  0.
    8880022    1    1    2    0    0  0.24786561729E+03  0.43644142232E+03  0.14308187700E+03  0.54385894853E+03  0.15294330000E+03 0.  0.
<mgrwt>
<rscale>  0 0.73881362E+03</rscale>
<asrwt>0</asrwt>
<pdfrwt beam="1">  1        2 0.20999238E+00 0.82808737E+03</pdfrwt>
<pdfrwt beam="2">  1       -2 0.75488899E-01 0.82808737E+03</pdfrwt>
<totfact> 0.24162998E+01</totfact>
</mgrwt>
</event>
<event>
 4    1  0.8468429E-007  0.7486396E+03  0.7818608E-02  0.9835459E-01
         -2   -1    0    0    0  501 -0.00000000000E+00  0.00000000000E+00  0.96646477562E+03  0.96646477562E+03  0.25500000000E-02 0.  1.
          2   -1    0    0  501    0  0.00000000000E+00 -0.00000000000E+00 -0.13328036589E+04  0.13328036589E+04  0.25500000000E-02 0. -1.
    8880023    1    1    2    0    0 -0.13636988666E+03 -0.32871609436E+03 -0.11803786122E+04  0.13977678245E+04  0.65864270000E+03 0. -1.
    8880022    1    1    2    0    0  0.13636988666E+03  0.32871609436E+03  0.81403972892E+03  0.90150061007E+03  0.15294330000E+03 0.  0.
<mgrwt>
<rscale>  0 0.63493817E+03</rscale>
<asrwt>0</asrwt>
<pdfrwt beam="1">  1        2 0.20504672E+00 0.74863958E+03</pdfrwt>
<pdfrwt beam="2">  1       -2 0.14868689E+00 0.74863958E+03</pdfrwt>
<totfact> 0.49664522E+00</totfact>
</mgrwt>
</event>
<event>
 4    1  0.8468429E-007  0.7976712E+03  0.7818608E-02  0.9715854E-01
         -2   -1    0    0    0  501 -0.00000000000E+00  0.00000000000E+00  0.54055594437E+03  0.54055594438E+03  0.25500000000E-02 0.  1.
          2   -1    0    0  501    0  0.00000000000E+00 -0.00000000000E+00 -0.11505818527E+04  0.11505818527E+04  0.25500000000E-02 0. -1.
    8880023    1    1    2    0    0  0.55915277942E+02 -0.44647808401E+03 -0.84410047780E+03  0.11613720423E+04  0.65864270000E+03 0.  0.
    8880022    1    1    2    0    0 -0.55915277942E+02  0.44647808401E+03  0.23407456948E+03  0.52976575475E+03  0.15294330000E+03 0.  0.
<mgrwt>
<rscale>  0 0.70080642E+03</rscale>
<asrwt>0</asrwt>
<pdfrwt beam="1">  1        2 0.17701259E+00 0.79767124E+03</pdfrwt>
<pdfrwt beam="2">  1       -2 0.83162454E-01 0.79767124E+03</pdfrwt>
<totfact> 0.26028107E+01</totfact>
</mgrwt>
</event>
<event>
 4    1  0.8468429E-007  0.1283751E+04  0.7818608E-02  0.9079721E-01
         -2   -1    0    0    0  501 -0.00000000000E+00  0.00000000000E+00  0.57230422503E+03  0.57230422503E+03  0.25500000000E-02 0.  1.
          2   -1    0    0  501    0  0.00000000000E+00 -0.00000000000E+00 -0.31927882483E+04  0.31927882483E+04  0.25500000000E-02 0. -1.
    8880023    1    1    2    0    0 -0.96181331517E+03  0.53769970982E+03 -0.22537594921E+04  0.25937324237E+04  0.65864270000E+03 0.  0.
    8880022    1    1    2    0    0  0.96181331517E+03 -0.53769970982E+03 -0.36672453119E+03  0.11713600497E+04  0.15294330000E+03 0.  0.
<mgrwt>
<rscale>  0 0.12386054E+04</rscale>
<asrwt>0</asrwt>
<pdfrwt beam="1">  1        2 0.49119818E+00 0.12837508E+04</pdfrwt>
<pdfrwt beam="2">  1       -2 0.88046806E-01 0.12837508E+04</pdfrwt>
<totfact> 0.14353565E+00</totfact>
</mgrwt>
</event>
<event>
 4    1  0.8468429E-007  0.1431738E+04  0.7818608E-02  0.8959405E-01
         -2   -1    0    0    0  501 -0.00000000000E+00  0.00000000000E+00  0.73691083355E+03  0.73691083355E+03  0.25500000000E-02 0.  1.
          2   -1    0    0  501    0  0.00000000000E+00 -0.00000000000E+00 -0.47409000237E+04  0.47409000237E+04  0.25500000000E-02 0. -1.
    8880023    1    1    2    0    0 -0.12703253677E+04  0.48355022368E+02 -0.39441804384E+04  0.41960021789E+04  0.65864270000E+03 0.  0.
    8880022    1    1    2    0    0  0.12703253677E+04 -0.48355022368E+02 -0.59808751708E+02  0.12818086784E+04  0.15294330000E+03 0.  0.
<mgrwt>
<rscale>  0 0.13923078E+04</rscale>
<asrwt>0</asrwt>
<pdfrwt beam="1">  1        2 0.72936921E+00 0.14317384E+04</pdfrwt>
<pdfrwt beam="2">  1       -2 0.11337090E+00 0.14317384E+04</pdfrwt>
<totfact> 0.42085484E-02</totfact>
</mgrwt>
</event>
<event>
 4    1  0.8468429E-007  0.6684546E+03  0.7818608E-02  0.1016796E+00
          2   -1    0    0  501    0  0.00000000000E+00  0.00000000000E+00  0.64899830895E+03  0.64899830895E+03  0.25500000000E-02 0. -1.
         -2   -1    0    0    0  501 -0.00000000000E+00 -0.00000000000E+00 -0.29657218845E+03  0.29657218846E+03  0.25500000000E-02 0.  1.
    8880023    1    1    2    0    0  0.11105947338E+03  0.26214476820E+02  0.35042510782E+03  0.75473794649E+03  0.65864270000E+03 0.  0.
    8880022    1    1    2    0    0 -0.11105947338E+03 -0.26214476820E+02  0.20010126791E+01  0.19083255092E+03  0.15294330000E+03 0.  0.
<mgrwt>
<rscale>  0 0.48860860E+03</rscale>
<asrwt>0</asrwt>
<pdfrwt beam="1">  1        2 0.99845892E-01 0.66845464E+03</pdfrwt>
<pdfrwt beam="2">  1       -2 0.45626491E-01 0.66845464E+03</pdfrwt>
<totfact> 0.20791554E+02</totfact>
</mgrwt>
</event>
<event>
 4    1  0.8468429E-007  0.6859327E+03  0.7818608E-02  0.1006149E+00
          2   -1    0    0  501    0  0.00000000000E+00  0.00000000000E+00  0.15977369647E+04  0.15977369647E+04  0.25500000000E-02 0. -1.
         -2   -1    0    0    0  501 -0.00000000000E+00 -0.00000000000E+00 -0.14391037453E+03  0.14391037455E+03  0.25500000000E-02 0.  1.
    8880023    1    1    2    0    0 -0.15058840663E+02  0.19096267187E+03  0.12366987411E+04  0.14141879271E+04  0.65864270000E+03 0.  0.
    8880022    1    1    2    0    0  0.15058840663E+02 -0.19096267187E+03  0.21712784908E+03  0.32745941212E+03  0.15294330000E+03 0.  0.
<mgrwt>
<rscale>  0 0.53034326E+03</rscale>
<asrwt>0</asrwt>
<pdfrwt beam="1">  1        2 0.24580571E+00 0.68593274E+03</pdfrwt>
<pdfrwt beam="2">  1       -2 0.22140056E-01 0.68593274E+03</pdfrwt>
<totfact> 0.20368952E+02</totfact>
</mgrwt>
</event>
<event>
 4    1  0.8468429E-007  0.7998524E+03  0.7818608E-02  0.9711115E-01
          2   -1    0    0  501    0  0.00000000000E+00  0.00000000000E+00  0.28680340001E+04  0.28680340001E+04  0.25500000000E-02 0. -1.
         -2   -1    0    0    0  501 -0.00000000000E+00 -0.00000000000E+00 -0.52425034597E+03  0.52425034598E+03  0.25500000000E-02 0.  1.
    8880023    1    1    2    0    0 -0.23208143069E+03  0.38998959470E+03  0.26867239019E+04  0.28032568926E+04  0.65864270000E+03 0. -1.
    8880022    1    1    2    0    0  0.23208143069E+03 -0.38998959470E+03 -0.34294024777E+03  0.58902745352E+03  0.15294330000E+03 0.  0.
<mgrwt>
<rscale>  0 0.70358834E+03</rscale>
<asrwt>0</asrwt>
<pdfrwt beam="1">  1        2 0.44123600E+00 0.79985241E+03</pdfrwt>
<pdfrwt beam="2">  1       -2 0.80653899E-01 0.79985241E+03</pdfrwt>
<totfact> 0.30018139E+00</totfact>
</mgrwt>
</event>
<event>
 4    1  0.8468429E-007  0.7456153E+03  0.7818608E-02  0.9843882E-01
          2   -1    0    0  501    0  0.00000000000E+00  0.00000000000E+00  0.17403519846E+04  0.17403519846E+04  0.25500000000E-02 0. -1.
         -2   -1    0    0    0  501 -0.00000000000E+00 -0.00000000000E+00 -0.30957445457E+03  0.30957445458E+03  0.25500000000E-02 0.  1.
    8880023    1    1    2    0    0 -0.33407109482E+03  0.10260798647E+03  0.14878325492E+04  0.16642078584E+04  0.65864270000E+03 0. -1.
    8880022    1    1    2    0    0  0.33407109482E+03 -0.10260798647E+03 -0.57055019218E+02  0.38571858072E+03  0.15294330000E+03 0.  0.
<mgrwt>
<rscale>  0 0.63059823E+03</rscale>
<asrwt>0</asrwt>
<pdfrwt beam="1">  1        2 0.26774646E+00 0.74561525E+03</pdfrwt>
<pdfrwt beam="2">  1       -2 0.47626840E-01 0.74561525E+03</pdfrwt>
<totfact> 0.39955055E+01</totfact>
</mgrwt>
</event>
<event>
 4    1  0.8468429E-007  0.7869758E+03  0.7818608E-02  0.9739699E-01
         -2   -1    0    0    0  501 -0.00000000000E+00  0.00000000000E+00  0.20340441497E+03  0.20340441499E+03  0.25500000000E-02 0.  1.
          2   -1    0    0  501    0  0.00000000000E+00 -0.00000000000E+00 -0.27762069812E+04  0.27762069812E+04  0.25500000000E-02 0. -1.
    8880023    1    1    2    0    0 -0.39118483533E+03  0.18026406576E+03 -0.23356744606E+04  0.24646918877E+04  0.65864270000E+03 0.  0.
    8880022    1    1    2    0    0  0.39118483533E+03 -0.18026406576E+03 -0.23712810563E+03  0.51491950856E+03  0.15294330000E+03 0.  0.
<mgrwt>
<rscale>  0 0.68701553E+03</rscale>
<asrwt>0</asrwt>
<pdfrwt beam="1">  1        2 0.42710874E+00 0.78697580E+03</pdfrwt>
<pdfrwt beam="2">  1       -2 0.31292989E-01 0.78697580E+03</pdfrwt>
<totfact> 0.23684156E+01</totfact>
</mgrwt>
</event>
<event>
 4    1  0.8468429E-007  0.7066611E+03  0.7818608E-02  0.9970615E-01
         -2   -1    0    0    0  501 -0.00000000000E+00  0.00000000000E+00  0.23884842061E+03  0.23884842062E+03  0.25500000000E-02 0.  1.
          2   -1    0    0  501    0  0.00000000000E+00 -0.00000000000E+00 -0.13720791468E+04  0.13720791468E+04  0.25500000000E-02 0. -1.
    8880023    1    1    2    0    0  0.20443400225E+03 -0.15416354231E+03 -0.11046109188E+04  0.13113104694E+04  0.65864270000E+03 0.  0.
    8880022    1    1    2    0    0 -0.20443400225E+03  0.15416354231E+03 -0.28619807465E+02  0.29961709806E+03  0.15294330000E+03 0.  0.
<mgrwt>
<rscale>  0 0.56957697E+03</rscale>
<asrwt>0</asrwt>
<pdfrwt beam="1">  1        2 0.21108909E+00 0.70666107E+03</pdfrwt>
<pdfrwt beam="2">  1       -2 0.36745912E-01 0.70666107E+03</pdfrwt>
<totfact> 0.10686963E+02</totfact>
</mgrwt>
</event>
<event>
 4    1  0.8468429E-007  0.7906794E+03  0.7818608E-02  0.9731324E-01
         -2   -1    0    0    0  501 -0.00000000000E+00  0.00000000000E+00  0.10006573630E+04  0.10006573630E+04  0.25500000000E-02 0.  1.
          2   -1    0    0  501    0  0.00000000000E+00 -0.00000000000E+00 -0.87303166186E+03  0.87303166186E+03  0.25500000000E-02 0. -1.
    8880023    1    1    2    0    0  0.21869479565E+03  0.37886176680E+03 -0.61269714483E+03  0.10002857839E+04  0.65864270000E+03 0.  0.
    8880022    1    1    2    0    0 -0.21869479565E+03 -0.37886176680E+03  0.74032284596E+03  0.87340324092E+03  0.15294330000E+03 0.  0.
<mgrwt>
<rscale>  0 0.69182028E+03</rscale>
<asrwt>0</asrwt>
<pdfrwt beam="1">  1        2 0.13431256E+00 0.79067937E+03</pdfrwt>
<pdfrwt beam="2">  1       -2 0.15394729E+00 0.79067937E+03</pdfrwt>
<totfact> 0.86596024E+00</totfact>
</mgrwt>
</event>
<event>
 4    1  0.8468429E-007  0.7882877E+03  0.7818608E-02  0.9736717E-01
         -2   -1    0    0    0  501 -0.00000000000E+00  0.00000000000E+00  0.50031315000E+03  0.50031315000E+03  0.25500000000E-02 0.  1.
          2   -1    0    0  501    0  0.00000000000E+00 -0.00000000000E+00 -0.24791423200E+04  0.24791423200E+04  0.25500000000E-02 0. -1.
    8880023    1    1    2    0    0  0.39599656819E+03 -0.17542515616E+03 -0.22918398272E+04  0.24236186307E+04  0.65864270000E+03 0. -1.
    8880022    1    1    2    0    0 -0.39599656819E+03  0.17542515616E+03  0.31301065715E+03  0.55583683931E+03  0.15294330000E+03 0.  0.
<mgrwt>
<rscale>  0 0.68872118E+03</rscale>
<asrwt>0</asrwt>
<pdfrwt beam="1">  1        2 0.38140650E+00 0.78828768E+03</pdfrwt>
<pdfrwt beam="2">  1       -2 0.76971255E-01 0.78828768E+03</pdfrwt>
<totfact> 0.56224930E+00</totfact>
</mgrwt>
</event>
<event>
 4    1  0.8468429E-007  0.1523829E+04  0.7818608E-02  0.8892990E-01
         -2   -1    0    0    0  501 -0.00000000000E+00  0.00000000000E+00  0.13101610924E+04  0.13101610924E+04  0.25500000000E-02 0.  1.
          2   -1    0    0  501    0  0.00000000000E+00 -0.00000000000E+00 -0.26081583410E+04  0.26081583410E+04  0.25500000000E-02 0. -1.
    8880023    1    1    2    0    0  0.92298786863E+03 -0.10180063201E+04 -0.18784432756E+04  0.24188019388E+04  0.65864270000E+03 0. -1.
    8880022    1    1    2    0    0 -0.92298786863E+03  0.10180063201E+04  0.58044602698E+03  0.14995174946E+04  0.15294330000E+03 0.  0.
<mgrwt>
<rscale>  0 0.14872286E+04</rscale>
<asrwt>0</asrwt>
<pdfrwt beam="1">  1        2 0.40125513E+00 0.15238286E+04</pdfrwt>
<pdfrwt beam="2">  1       -2 0.20156325E+00 0.15238286E+04</pdfrwt>
<totfact> 0.36648560E-01</totfact>
</mgrwt>
</event>
<event>
 4    1  0.9149673E-007  0.6619730E+03  0.7818608E-02  0.1022220E+00
         -2   -1    0    0    0  501 -0.00000000000E+00  0.00000000000E+00  0.87487844377E+03  0.87487844378E+03  0.25500000000E-02 0.  1.
          2   -1    0    0  501    0  0.00000000000E+00 -0.00000000000E+00 -0.14929036624E+04  0.14929036624E+04  0.25500000000E-02 0. -1.
    8880023    1    1    2    0    0  0.41866915650E+02 -0.51431275275E+02 -0.14104203151E+04  0.15580416189E+04  0.65864270000E+03 0. -1.
    8880022    1    1    2    0    0 -0.41866915650E+02  0.51431275275E+02  0.79239509651E+03  0.80974048725E+03  0.15294330000E+03 0.  0.
<mgrwt>
<rscale>  0 0.46893820E+03</rscale>
<asrwt>0</asrwt>
<pdfrwt beam="1">  1        2 0.22967749E+00 0.66197298E+03</pdfrwt>
<pdfrwt beam="2">  1       -2 0.13459668E+00 0.66197298E+03</pdfrwt>
<totfact> 0.52971019E+00</totfact>
</mgrwt>
</event>
<event>
 4    1  0.8468429E-007  0.7000211E+03  0.7818608E-02  0.9997113E-01
         -2   -1    0    0    0  501 -0.00000000000E+00  0.00000000000E+00  0.20596874034E+03  0.20596874036E+03  0.25500000000E-02 0.  1.
          2   -1    0    0  501    0  0.00000000000E+00 -0.00000000000E+00 -0.32419172306E+04  0.32419172306E+04  0.25500000000E-02 0. -1.
    8880023    1    1    2    0    0 -0.14444755640E+03  0.18802737765E+03 -0.30833169186E+04  0.31617831706E+04  0.65864270000E+03 0.  0.
    8880022    1    1    2    0    0  0.14444755640E+03 -0.18802737765E+03  0.47368428404E+02  0.28610280026E+03  0.15294330000E+03 0.  0.
<mgrwt>
<rscale>  0 0.55776985E+03</rscale>
<asrwt>0</asrwt>
<pdfrwt beam="1">  1        2 0.49875646E+00 0.70002114E+03</pdfrwt>
<pdfrwt beam="2">  1       -2 0.31687501E-01 0.70002114E+03</pdfrwt>
<totfact> 0.12160775E+01</totfact>
</mgrwt>
</event>
<event>
 4    1  0.8468429E-007  0.1252191E+04  0.7818608E-02  0.9107986E-01
         -2   -1    0    0    0  501 -0.00000000000E+00  0.00000000000E+00  0.57476241882E+03  0.57476241882E+03  0.25500000000E-02 0.  1.
          2   -1    0    0  501    0  0.00000000000E+00 -0.00000000000E+00 -0.28118098891E+04  0.28118098891E+04  0.25500000000E-02 0. -1.
    8880023    1    1    2    0    0 -0.50537133724E+03  0.93742863247E+03 -0.18685302905E+04  0.22493084009E+04  0.65864270000E+03 0.  0.
    8880022    1    1    2    0    0  0.50537133724E+03 -0.93742863247E+03 -0.36851717977E+03  0.11372639070E+04  0.15294330000E+03 0.  0.
<mgrwt>
<rscale>  0 0.12055803E+04</rscale>
<asrwt>0</asrwt>
<pdfrwt beam="1">  1        2 0.43258613E+00 0.12521912E+04</pdfrwt>
<pdfrwt beam="2">  1       -2 0.88424989E-01 0.12521912E+04</pdfrwt>
<totfact> 0.24611740E+00</totfact>
</mgrwt>
</event>
<event>
 4    1  0.8468429E-007  0.8231601E+03  0.7818608E-02  0.9662790E-01
          2   -1    0    0  501    0  0.00000000000E+00  0.00000000000E+00  0.96740429408E+03  0.96740429409E+03  0.25500000000E-02 0. -1.
         -2   -1    0    0    0  501 -0.00000000000E+00 -0.00000000000E+00 -0.57100633442E+03  0.57100633442E+03  0.25500000000E-02 0.  1.
    8880023    1    1    2    0    0  0.32179452067E+03  0.37447378447E+03  0.56076533211E+03  0.99601721509E+03  0.65864270000E+03 0.  0.
    8880022    1    1    2    0    0 -0.32179452067E+03 -0.37447378447E+03 -0.16436737244E+03  0.54239341342E+03  0.15294330000E+03 0.  0.
<mgrwt>
<rscale>  0 0.73276126E+03</rscale>
<asrwt>0</asrwt>
<pdfrwt beam="1">  1        2 0.14883143E+00 0.82316009E+03</pdfrwt>
<pdfrwt beam="2">  1       -2 0.87847129E-01 0.82316009E+03</pdfrwt>
<totfact> 0.29816994E+01</totfact>
</mgrwt>
</event>
<event>
 4    1  0.8468429E-007  0.8414305E+03  0.7818608E-02  0.9627489E-01
         -2   -1    0    0    0  501 -0.00000000000E+00  0.00000000000E+00  0.16111697249E+03  0.16111697251E+03  0.25500000000E-02 0.  1.
          2   -1    0    0  501    0  0.00000000000E+00 -0.00000000000E+00 -0.32494272282E+04  0.32494272282E+04  0.25500000000E-02 0. -1.
    8880023    1    1    2    0    0 -0.52347871875E+03  0.12849529266E+02 -0.23231259188E+04  0.24708134936E+04  0.65864270000E+03 0.  0.
    8880022    1    1    2    0    0  0.52347871875E+03 -0.12849529266E+02 -0.76518433688E+03  0.93973070707E+03  0.15294330000E+03 0.  0.
<mgrwt>
<rscale>  0 0.75503204E+03</rscale>
<asrwt>0</asrwt>
<pdfrwt beam="1">  1        2 0.49991183E+00 0.84143050E+03</pdfrwt>
<pdfrwt beam="2">  1       -2 0.24787229E-01 0.84143050E+03</pdfrwt>
<totfact> 0.18428937E+01</totfact>
</mgrwt>
</event>
<event>
 4    1  0.8468429E-007  0.6759093E+03  0.7818608E-02  0.1011739E+00
         -2   -1    0    0    0  501 -0.00000000000E+00  0.00000000000E+00  0.98225529183E+03  0.98225529183E+03  0.25500000000E-02 0.  1.
          2   -1    0    0  501    0  0.00000000000E+00 -0.00000000000E+00 -0.75887597017E+03  0.75887597017E+03  0.25500000000E-02 0. -1.
    8880023    1    1    2    0    0 -0.14775165265E+03  0.34823533243E+02 -0.59153838078E+03  0.89820437069E+03  0.65864270000E+03 0. -1.
    8880022    1    1    2    0    0  0.14775165265E+03 -0.34823533243E+02  0.81491770244E+03  0.84292689131E+03  0.15294330000E+03 0.  0.
<mgrwt>
<rscale>  0 0.50789259E+03</rscale>
<asrwt>0</asrwt>
<pdfrwt beam="1">  1        2 0.11675015E+00 0.67590934E+03</pdfrwt>
<pdfrwt beam="2">  1       -2 0.15111620E+00 0.67590934E+03</pdfrwt>
<totfact> 0.11115839E+01</totfact>
</mgrwt>
</event>
<event>
 4    1  0.8468429E-007  0.8746654E+03  0.7818608E-02  0.9567991E-01
         -2   -1    0    0    0  501 -0.00000000000E+00  0.00000000000E+00  0.47952549699E+03  0.47952549699E+03  0.25500000000E-02 0.  1.
          2   -1    0    0  501    0  0.00000000000E+00 -0.00000000000E+00 -0.12965191513E+04  0.12965191513E+04  0.25500000000E-02 0. -1.
    8880023    1    1    2    0    0 -0.11450096012E+03 -0.56402033066E+03 -0.79209619665E+03  0.11800237262E+04  0.65864270000E+03 0.  0.
    8880022    1    1    2    0    0  0.11450096012E+03  0.56402033066E+03 -0.24897457697E+02  0.59602092218E+03  0.15294330000E+03 0.  0.
<mgrwt>
<rscale>  0 0.79451488E+03</rscale>
<asrwt>0</asrwt>
<pdfrwt beam="1">  1        2 0.19946448E+00 0.87466543E+03</pdfrwt>
<pdfrwt beam="2">  1       -2 0.73773154E-01 0.87466543E+03</pdfrwt>
<totfact> 0.27713248E+01</totfact>
</mgrwt>
</event>
<event>
 4    1  0.8468429E-007  0.6589714E+03  0.7818608E-02  0.1025236E+00
         -2   -1    0    0    0  501 -0.00000000000E+00  0.00000000000E+00  0.27922845635E+03  0.27922845636E+03  0.25500000000E-02 0.  1.
          2   -1    0    0  501    0  0.00000000000E+00 -0.00000000000E+00 -0.29745967869E+04  0.29745967869E+04  0.25500000000E-02 0. -1.
    8880023    1    1    2    0    0  0.13900754680E+02  0.15486686941E+02 -0.29132280487E+04  0.29868279057E+04  0.65864270000E+03 0. -1.
    8880022    1    1    2    0    0 -0.13900754680E+02 -0.15486686941E+02  0.21785971814E+03  0.26699733754E+03  0.15294330000E+03 0.  0.
<mgrwt>
<rscale>  0 0.45843566E+03</rscale>
<asrwt>0</asrwt>
<pdfrwt beam="1">  1        2 0.45763025E+00 0.65897138E+03</pdfrwt>
<pdfrwt beam="2">  1       -2 0.42958226E-01 0.65897138E+03</pdfrwt>
<totfact> 0.10032956E+01</totfact>
</mgrwt>
</event>
<event>
 4    1  0.8468429E-007  0.6816312E+03  0.7818608E-02  0.1008416E+00
         -2   -1    0    0    0  501 -0.00000000000E+00  0.00000000000E+00  0.43876194727E+03  0.43876194728E+03  0.25500000000E-02 0.  1.
          2   -1    0    0  501    0  0.00000000000E+00 -0.00000000000E+00 -0.14840844956E+04  0.14840844956E+04  0.25500000000E-02 0. -1.
    8880023    1    1    2    0    0  0.17224504949E+03 -0.33801391110E+02 -0.13659678786E+04  0.15265940334E+04  0.65864270000E+03 0. -1.
    8880022    1    1    2    0    0 -0.17224504949E+03  0.33801391110E+02  0.32064533033E+03  0.39625240945E+03  0.15294330000E+03 0.  0.
<mgrwt>
<rscale>  0 0.52109218E+03</rscale>
<asrwt>0</asrwt>
<pdfrwt beam="1">  1        2 0.22832069E+00 0.68163120E+03</pdfrwt>
<pdfrwt beam="2">  1       -2 0.67501839E-01 0.68163120E+03</pdfrwt>
<totfact> 0.26905261E+01</totfact>
</mgrwt>
</event>
<event>
 4    1  0.8468429E-007  0.7926493E+03  0.7818608E-02  0.9726921E-01
         -2   -1    0    0    0  501 -0.00000000000E+00  0.00000000000E+00  0.16117639074E+03  0.16117639076E+03  0.25500000000E-02 0.  1.
          2   -1    0    0  501    0  0.00000000000E+00 -0.00000000000E+00 -0.29672702290E+04  0.29672702290E+04  0.25500000000E-02 0. -1.
    8880023    1    1    2    0    0 -0.10270342797E+03  0.42887608271E+03 -0.10756648212E+04  0.13361690396E+04  0.65864270000E+03 0.  0.
    8880022    1    1    2    0    0  0.10270342797E+03 -0.42887608271E+03 -0.17304290171E+04  0.17922775802E+04  0.15294330000E+03 0.  0.
<mgrwt>
<rscale>  0 0.69436299E+03</rscale>
<asrwt>0</asrwt>
<pdfrwt beam="1">  1        2 0.45650307E+00 0.79264929E+03</pdfrwt>
<pdfrwt beam="2">  1       -2 0.24796370E-01 0.79264929E+03</pdfrwt>
<totfact> 0.27874021E+01</totfact>
</mgrwt>
</event>
<event>
 4    1  0.8468429E-007  0.1802853E+04  0.7818608E-02  0.8720960E-01
          2   -1    0    0  501    0  0.00000000000E+00  0.00000000000E+00  0.27041329179E+04  0.27041329179E+04  0.25500000000E-02 0. -1.
         -2   -1    0    0    0  501 -0.00000000000E+00 -0.00000000000E+00 -0.17806316991E+04  0.17806316991E+04  0.25500000000E-02 0.  1.
    8880023    1    1    2    0    0  0.14552047552E+04 -0.83597150951E+03  0.18319775923E+04  0.25702959653E+04  0.65864270000E+03 0.  0.
    8880022    1    1    2    0    0 -0.14552047552E+04  0.83597150951E+03 -0.90847637341E+03  0.19144686517E+04  0.15294330000E+03 0.  0.
<mgrwt>
<rscale>  0 0.17726884E+04</rscale>
<asrwt>0</asrwt>
<pdfrwt beam="1">  1        2 0.41602045E+00 0.18028531E+04</pdfrwt>
<pdfrwt beam="2">  1       -2 0.27394334E+00 0.18028531E+04</pdfrwt>
<totfact> 0.10960050E-01</totfact>
</mgrwt>
</event>
<event>
 4    1  0.8468429E-007  0.8385656E+03  0.7818608E-02  0.9632891E-01
          2   -1    0    0  501    0  0.00000000000E+00  0.00000000000E+00  0.61345232588E+03  0.61345232589E+03  0.25500000000E-02 0. -1.
         -2   -1    0    0    0  501 -0.00000000000E+00 -0.00000000000E+00 -0.79656139754E+03  0.79656139754E+03  0.25500000000E-02 0.  1.
    8880023    1    1    2    0    0  0.33893543185E+03 -0.39307111527E+03  0.68106075873E+00  0.83856591794E+03  0.65864270000E+03 0.  0.
    8880022    1    1    2    0    0 -0.33893543185E+03  0.39307111527E+03 -0.18379013241E+03  0.57144780549E+03  0.15294330000E+03 0. -1.
<mgrwt>
<rscale>  0 0.75156980E+03</rscale>
<asrwt>0</asrwt>
<pdfrwt beam="1">  1        2 0.94377281E-01 0.83856564E+03</pdfrwt>
<pdfrwt beam="2">  1       -2 0.12254791E+00 0.83856564E+03</pdfrwt>
<totfact> 0.24468765E+01</totfact>
</mgrwt>
</event>
<event>
 4    1  0.8468429E-007  0.8950797E+03  0.7818608E-02  0.9533977E-01
          2   -1    0    0  501    0  0.00000000000E+00  0.00000000000E+00  0.36435190356E+04  0.36435190356E+04  0.25500000000E-02 0. -1.
         -2   -1    0    0    0  501 -0.00000000000E+00 -0.00000000000E+00 -0.28112901547E+03  0.28112901548E+03  0.25500000000E-02 0.  1.
    8880023    1    1    2    0    0  0.37952458184E+03 -0.47256598162E+03  0.31337071264E+04  0.32590317697E+04  0.65864270000E+03 0.  0.
    8880022    1    1    2    0    0 -0.37952458184E+03  0.47256598162E+03  0.22868289371E+03  0.66561628142E+03  0.15294330000E+03 0.  0.
<mgrwt>
<rscale>  0 0.81824536E+03</rscale>
<asrwt>0</asrwt>
<pdfrwt beam="1">  1        2 0.56054134E+00 0.89507973E+03</pdfrwt>
<pdfrwt beam="2">  1       -2 0.43250621E-01 0.89507973E+03</pdfrwt>
<totfact> 0.34514767E+00</totfact>
</mgrwt>
</event>
<event>
 4    1  0.8468429E-007  0.6623848E+03  0.7818608E-02  0.1021836E+00
          2   -1    0    0  501    0  0.00000000000E+00  0.00000000000E+00  0.76991531882E+03  0.76991531882E+03  0.25500000000E-02 0. -1.
         -2   -1    0    0    0  501 -0.00000000000E+00 -0.00000000000E+00 -0.25406053648E+03  0.25406053649E+03  0.25500000000E-02 0.  1.
    8880023    1    1    2    0    0  0.61021155761E+02  0.34925489641E+02  0.53911231736E+03  0.85404664292E+03  0.65864270000E+03 0. -1.
    8880022    1    1    2    0    0 -0.61021155761E+02 -0.34925489641E+02 -0.23257535026E+02  0.16992921240E+03  0.15294330000E+03 0.  0.
<mgrwt>
<rscale>  0 0.47029807E+03</rscale>
<asrwt>0</asrwt>
<pdfrwt beam="1">  1        2 0.11844851E+00 0.66238477E+03</pdfrwt>
<pdfrwt beam="2">  1       -2 0.39086236E-01 0.66238477E+03</pdfrwt>
<totfact> 0.22722959E+02</totfact>
</mgrwt>
</event>
<event>
 4    1  0.8468429E-007  0.7223236E+03  0.7818608E-02  0.9914801E-01
          2   -1    0    0  501    0  0.00000000000E+00  0.00000000000E+00  0.12161582678E+04  0.12161582678E+04  0.25500000000E-02 0. -1.
         -2   -1    0    0    0  501 -0.00000000000E+00 -0.00000000000E+00 -0.77886161989E+03  0.77886161989E+03  0.25500000000E-02 0.  1.
    8880023    1    1    2    0    0  0.16844700225E+03 -0.24406294135E+03  0.10634193058E+04  0.12855395513E+04  0.65864270000E+03 0. -1.
    8880022    1    1    2    0    0 -0.16844700225E+03  0.24406294135E+03 -0.62612265789E+03  0.70948033633E+03  0.15294330000E+03 0.  0.
<mgrwt>
<rscale>  0 0.59549306E+03</rscale>
<asrwt>0</asrwt>
<pdfrwt beam="1">  1        2 0.18710127E+00 0.72232356E+03</pdfrwt>
<pdfrwt beam="2">  1       -2 0.11982487E+00 0.72232356E+03</pdfrwt>
<totfact> 0.10106000E+01</totfact>
</mgrwt>
</event>
<event>
 4    1  0.1243231E-006  0.8488208E+03  0.7818608E-02  0.9613767E-01
         -2   -1    0    0    0  501 -0.00000000000E+00  0.00000000000E+00  0.15396783475E+04  0.15396783475E+04  0.25500000000E-02 0.  1.
          2   -1    0    0  501    0  0.00000000000E+00 -0.00000000000E+00 -0.24683679893E+04  0.24683679893E+04  0.25500000000E-02 0. -1.
    8880023    1    1    2    0    0  0.34796917174E+03  0.40694479561E+03 -0.23408860040E+04  0.24900289358E+04  0.65864270000E+03 0. -1.
    8880022    1    1    2    0    0 -0.34796917174E+03 -0.40694479561E+03  0.14121963622E+04  0.15180174009E+04  0.15294330000E+03 0.  0.
<mgrwt>
<rscale>  0 0.76391659E+03</rscale>
<asrwt>0</asrwt>
<pdfrwt beam="1">  1        2 0.37974892E+00 0.84882084E+03</pdfrwt>
<pdfrwt beam="2">  1       -2 0.23687359E+00 0.84882084E+03</pdfrwt>
<totfact> 0.29256545E-01</totfact>
</mgrwt>
</event>
<event>
 4    1  0.8468429E-007  0.6994919E+03  0.7818608E-02  0.9999316E-01
          2   -1    0    0  501    0  0.00000000000E+00  0.00000000000E+00  0.15167098007E+04  0.15167098007E+04  0.25500000000E-02 0. -1.
         -2   -1    0    0    0  501 -0.00000000000E+00 -0.00000000000E+00 -0.87092336266E+03  0.87092336267E+03  0.25500000000E-02 0.  1.
    8880023    1    1    2    0    0  0.11610382240E+03 -0.20493555542E+03  0.14097157716E+04  0.15737177137E+04  0.65864270000E+03 0.  0.
    8880022    1    1    2    0    0 -0.11610382240E+03  0.20493555542E+03 -0.76392933358E+03  0.81391544965E+03  0.15294330000E+03 0.  0.
<mgrwt>
<rscale>  0 0.55680255E+03</rscale>
<asrwt>0</asrwt>
<pdfrwt beam="1">  1        2 0.23333997E+00 0.69949188E+03</pdfrwt>
<pdfrwt beam="2">  1       -2 0.13398821E+00 0.69949188E+03</pdfrwt>
<totfact> 0.51656098E+00</totfact>
</mgrwt>
</event>
<event>
 4    1  0.8468429E-007  0.7069143E+03  0.7818608E-02  0.9969643E-01
          2   -1    0    0  501    0  0.00000000000E+00  0.00000000000E+00  0.27175026446E+04  0.27175026446E+04  0.25500000000E-02 0. -1.
         -2   -1    0    0    0  501 -0.00000000000E+00 -0.00000000000E+00 -0.23527769029E+03  0.23527769030E+03  0.25500000000E-02 0.  1.
    8880023    1    1    2    0    0 -0.17871336285E+03 -0.18433449819E+03  0.25501454932E+04  0.26463125130E+04  0.65864270000E+03 0. -1.
    8880022    1    1    2    0    0  0.17871336285E+03  0.18433449819E+03 -0.67920538902E+02  0.30646782197E+03  0.15294330000E+03 0.  0.
<mgrwt>
<rscale>  0 0.57001619E+03</rscale>
<asrwt>0</asrwt>
<pdfrwt beam="1">  1        2 0.41807734E+00 0.70691434E+03</pdfrwt>
<pdfrwt beam="2">  1       -2 0.36196567E-01 0.70691434E+03</pdfrwt>
<totfact> 0.19712629E+01</totfact>
</mgrwt>
</event>
<event>
 4    1  0.8468429E-007  0.1081234E+04  0.7818608E-02  0.9282242E-01
          2   -1    0    0  501    0  0.00000000000E+00  0.00000000000E+00  0.25827206275E+04  0.25827206275E+04  0.25500000000E-02 0. -1.
         -2   -1    0    0    0  501 -0.00000000000E+00 -0.00000000000E+00 -0.99732010033E+03  0.99732010034E+03  0.25500000000E-02 0.  1.
    8880023    1    1    2    0    0 -0.71766291251E+03 -0.46927346977E+03  0.22421140123E+04  0.24892053141E+04  0.65864270000E+03 0. -1.
    8880022    1    1    2    0    0  0.71766291251E+03  0.46927346977E+03 -0.65671348509E+03  0.10908354138E+04  0.15294330000E+03 0.  0.
<mgrwt>
<rscale>  0 0.10243421E+04</rscale>
<asrwt>0</asrwt>
<pdfrwt beam="1">  1        2 0.39734163E+00 0.10812344E+04</pdfrwt>
<pdfrwt beam="2">  1       -2 0.15343386E+00 0.10812344E+04</pdfrwt>
<totfact> 0.87420532E-01</totfact>
</mgrwt>
</event>
<event>
 4    1  0.8468429E-007  0.6762984E+03  0.7818608E-02  0.1011500E+00
         -2   -1    0    0    0  501 -0.00000000000E+00  0.00000000000E+00  0.46620804364E+03  0.46620804365E+03  0.25500000000E-02 0.  1.
          2   -1    0    0  501    0  0.00000000000E+00 -0.00000000000E+00 -0.52145943588E+03  0.52145943588E+03  0.25500000000E-02 0. -1.
    8880023    1    1    2    0    0 -0.25023861933E+02  0.15146988304E+03 -0.22462380043E+03  0.71262569215E+03  0.65864270000E+03 0. -1.
    8880022    1    1    2    0    0  0.25023861933E+02 -0.15146988304E+03  0.16937240819E+03  0.27504178738E+03  0.15294330000E+03 0.  0.
<mgrwt>
<rscale>  0 0.50882789E+03</rscale>
<asrwt>0</asrwt>
<pdfrwt beam="1">  1        2 0.80224529E-01 0.67629840E+03</pdfrwt>
<pdfrwt beam="2">  1       -2 0.71724314E-01 0.67629840E+03</pdfrwt>
<totfact> 0.10489168E+02</totfact>
</mgrwt>
</event>
<event>
 4    1  0.8468429E-007  0.6706898E+03  0.7818608E-02  0.1015173E+00
         -2   -1    0    0    0  501 -0.00000000000E+00  0.00000000000E+00  0.58098026300E+03  0.58098026300E+03  0.25500000000E-02 0.  1.
          2   -1    0    0  501    0  0.00000000000E+00 -0.00000000000E+00 -0.12560985318E+04  0.12560985318E+04  0.25500000000E-02 0. -1.
    8880023    1    1    2    0    0 -0.98656902278E+02  0.79255608572E+02 -0.11450086122E+04  0.13269776050E+04  0.65864270000E+03 0. -1.
    8880022    1    1    2    0    0  0.98656902278E+02 -0.79255608572E+02  0.46989034348E+03  0.51010118974E+03  0.15294330000E+03 0.  0.
<mgrwt>
<rscale>  0 0.49469438E+03</rscale>
<asrwt>0</asrwt>
<pdfrwt beam="1">  1        2 0.19324593E+00 0.67068983E+03</pdfrwt>
<pdfrwt beam="2">  1       -2 0.89381579E-01 0.67068983E+03</pdfrwt>
<totfact> 0.19397734E+01</totfact>
</mgrwt>
</event>
<event>
 4    1  0.8468429E-007  0.6748885E+03  0.7818608E-02  0.1012377E+00
         -2   -1    0    0    0  501 -0.00000000000E+00  0.00000000000E+00  0.94174516601E+02  0.94174516636E+02  0.25500000000E-02 0.  1.
          2   -1    0    0  501    0  0.00000000000E+00 -0.00000000000E+00 -0.34504810016E+04  0.34504810016E+04  0.25500000000E-02 0. -1.
    8880023    1    1    2    0    0 -0.11421046853E+03  0.92845281082E+02 -0.32254447762E+04  0.32952949015E+04  0.65864270000E+03 0. -1.
    8880022    1    1    2    0    0  0.11421046853E+03 -0.92845281082E+02 -0.13086170885E+03  0.24936061677E+03  0.15294330000E+03 0.  0.
<mgrwt>
<rscale>  0 0.50540905E+03</rscale>
<asrwt>0</asrwt>
<pdfrwt beam="1">  1        2 0.53084313E+00 0.67488850E+03</pdfrwt>
<pdfrwt beam="2">  1       -2 0.14488390E-01 0.67488850E+03</pdfrwt>
<totfact> 0.35561682E+01</totfact>
</mgrwt>
</event>
<event>
 4    1  0.8468429E-007  0.7206971E+03  0.7818608E-02  0.9920234E-01
          2   -1    0    0  501    0  0.00000000000E+00  0.00000000000E+00  0.28414567778E+04  0.28414567778E+04  0.25500000000E-02 0. -1.
         -2   -1    0    0    0  501 -0.00000000000E+00 -0.00000000000E+00 -0.10571628209E+03  0.10571628212E+03  0.25500000000E-02 0.  1.
    8880023    1    1    2    0    0  0.14819269537E+03 -0.25225580624E+03  0.22269432162E+04  0.23406581042E+04  0.65864270000E+03 0.  0.
    8880022    1    1    2    0    0 -0.14819269537E+03  0.25225580624E+03  0.50879727952E+03  0.60651495564E+03  0.15294330000E+03 0.  0.
<mgrwt>
<rscale>  0 0.59290590E+03</rscale>
<asrwt>0</asrwt>
<pdfrwt beam="1">  1        2 0.43714719E+00 0.72069707E+03</pdfrwt>
<pdfrwt beam="2">  1       -2 0.16264044E-01 0.72069707E+03</pdfrwt>
<totfact> 0.70195318E+01</totfact>
</mgrwt>
</event>
<event>
 4    1  0.8468429E-007  0.7113918E+03  0.7818608E-02  0.9952869E-01
         -2   -1    0    0    0  501 -0.00000000000E+00  0.00000000000E+00  0.15320542428E+03  0.15320542430E+03  0.25500000000E-02 0.  1.
          2   -1    0    0  501    0  0.00000000000E+00 -0.00000000000E+00 -0.23424571859E+04  0.23424571859E+04  0.25500000000E-02 0. -1.
    8880023    1    1    2    0    0 -0.17998359308E+03 -0.19968476090E+03 -0.20231831647E+04  0.21446091536E+04  0.65864270000E+03 0. -1.
    8880022    1    1    2    0    0  0.17998359308E+03  0.19968476090E+03 -0.16606859696E+03  0.35105345665E+03  0.15294330000E+03 0.  0.
<mgrwt>
<rscale>  0 0.57766067E+03</rscale>
<asrwt>0</asrwt>
<pdfrwt beam="1">  1        2 0.36037800E+00 0.71139181E+03</pdfrwt>
<pdfrwt beam="2">  1       -2 0.23570067E-01 0.71139181E+03</pdfrwt>
<totfact> 0.71114956E+01</totfact>
</mgrwt>
</event>
<event>
 4    1  0.8468429E-007  0.1338938E+04  0.7818608E-02  0.9032643E-01
          2   -1    0    0  501    0  0.00000000000E+00  0.00000000000E+00  0.70550377575E+03  0.70550377575E+03  0.25500000000E-02 0. -1.
         -2   -1    0    0    0  501 -0.00000000000E+00 -0.00000000000E+00 -0.23605311892E+04  0.23605311892E+04  0.25500000000E-02 0.  1.
    8880023    1    1    2    0    0  0.69950277126E+03  0.93254541334E+03 -0.12230790159E+04  0.18134711358E+04  0.65864270000E+03 0.  1.
    8880022    1    1    2    0    0 -0.69950277126E+03 -0.93254541334E+03 -0.43194839756E+03  0.12525638292E+04  0.15294330000E+03 0. -1.
<mgrwt>
<rscale>  0 0.12961257E+04</rscale>
<asrwt>0</asrwt>
<pdfrwt beam="1">  1        2 0.10853904E+00 0.13389381E+04</pdfrwt>
<pdfrwt beam="2">  1       -2 0.36315864E+00 0.13389381E+04</pdfrwt>
<totfact> 0.50638773E-01</totfact>
</mgrwt>
</event>
<event>
 4    1  0.8468429E-007  0.7332303E+03  0.7818608E-02  0.9880124E-01
         -2   -1    0    0    0  501 -0.00000000000E+00  0.00000000000E+00  0.11380332495E+04  0.11380332495E+04  0.25500000000E-02 0.  1.
          2   -1    0    0  501    0  0.00000000000E+00 -0.00000000000E+00 -0.42689977489E+03  0.42689977490E+03  0.25500000000E-02 0. -1.
    8880023    1    1    2    0    0  0.52529666732E+02 -0.31789485571E+03 -0.39061696545E+02  0.73427006447E+03  0.65864270000E+03 0.  0.
    8880022    1    1    2    0    0 -0.52529666732E+02  0.31789485571E+03  0.75019517113E+03  0.83066295992E+03  0.15294330000E+03 0.  0.
<mgrwt>
<rscale>  0 0.61234290E+03</rscale>
<asrwt>0</asrwt>
<pdfrwt beam="1">  1        2 0.65676889E-01 0.73323033E+03</pdfrwt>
<pdfrwt beam="2">  1       -2 0.17508204E+00 0.73323033E+03</pdfrwt>
<totfact> 0.14739519E+01</totfact>
</mgrwt>
</event>
<event>
 4    1  0.8468429E-007  0.7159134E+03  0.7818608E-02  0.9936664E-01
          2   -1    0    0  501    0  0.00000000000E+00  0.00000000000E+00  0.20607850318E+04  0.20607850318E+04  0.25500000000E-02 0. -1.
         -2   -1    0    0    0  501 -0.00000000000E+00 -0.00000000000E+00 -0.53418377767E+03  0.53418377768E+03  0.25500000000E-02 0.  1.
    8880023    1    1    2    0    0 -0.28051866413E+03 -0.55774426832E+01 -0.27375857860E+03  0.76646969569E+03  0.65864270000E+03 0.  0.
    8880022    1    1    2    0    0  0.28051866413E+03  0.55774426832E+01  0.18003598327E+04  0.18284991138E+04  0.15294330000E+03 0.  0.
<mgrwt>
<rscale>  0 0.58516827E+03</rscale>
<asrwt>0</asrwt>
<pdfrwt beam="1">  1        2 0.31704384E+00 0.71591343E+03</pdfrwt>
<pdfrwt beam="2">  1       -2 0.82182121E-01 0.71591343E+03</pdfrwt>
<totfact> 0.83826046E+00</totfact>
</mgrwt>
</event>
<event>
 4    1  0.8468429E-007  0.1149871E+04  0.7818608E-02  0.9207462E-01
          2   -1    0    0  501    0  0.00000000000E+00  0.00000000000E+00  0.25178697778E+04  0.25178697778E+04  0.25500000000E-02 0. -1.
         -2   -1    0    0    0  501 -0.00000000000E+00 -0.00000000000E+00 -0.68427953379E+03  0.68427953379E+03  0.25500000000E-02 0.  1.
    8880023    1    1    2    0    0 -0.84751970374E+03  0.41243523773E+03  0.19256584710E+04  0.22428471251E+04  0.65864270000E+03 0.  0.
    8880022    1    1    2    0    0  0.84751970374E+03 -0.41243523773E+03 -0.92068226962E+02  0.95930218648E+03  0.15294330000E+03 0.  0.
<mgrwt>
<rscale>  0 0.10976737E+04</rscale>
<asrwt>0</asrwt>
<pdfrwt beam="1">  1        2 0.38736458E+00 0.11498707E+04</pdfrwt>
<pdfrwt beam="2">  1       -2 0.10527377E+00 0.11498707E+04</pdfrwt>
<totfact> 0.24551193E+00</totfact>
</mgrwt>
</event>
<event>
 4    1  0.8468429E-007  0.7062993E+03  0.7818608E-02  0.9972009E-01
         -2   -1    0    0    0  501 -0.00000000000E+00  0.00000000000E+00  0.27378616394E+03  0.27378616395E+03  0.25500000000E-02 0.  1.
          2   -1    0    0  501    0  0.00000000000E+00 -0.00000000000E+00 -0.14631433561E+04  0.14631433561E+04  0.25500000000E-02 0. -1.
    8880023    1    1    2    0    0 -0.77059620913E+02  0.24312621368E+03 -0.12478226477E+04  0.14338480071E+04  0.65864270000E+03 0. -1.
    8880022    1    1    2    0    0  0.77059620913E+02 -0.24312621368E+03  0.58465455632E+02  0.30308151291E+03  0.15294330000E+03 0.  1.
<mgrwt>
<rscale>  0 0.56894830E+03</rscale>
<asrwt>0</asrwt>
<pdfrwt beam="1">  1        2 0.22509897E+00 0.70629933E+03</pdfrwt>
<pdfrwt beam="2">  1       -2 0.42120949E-01 0.70629933E+03</pdfrwt>
<totfact> 0.72854493E+01</totfact>
</mgrwt>
</event>
<event>
 4    1  0.8468429E-007  0.7892955E+03  0.7818608E-02  0.9734438E-01
          2   -1    0    0  501    0  0.00000000000E+00  0.00000000000E+00  0.11608640225E+04  0.11608640225E+04  0.25500000000E-02 0. -1.
         -2   -1    0    0    0  501 -0.00000000000E+00 -0.00000000000E+00 -0.52313279671E+03  0.52313279671E+03  0.25500000000E-02 0.  1.
    8880023    1    1    2    0    0 -0.43462258591E+03  0.16746709778E+02  0.86414039097E+03  0.11703529664E+04  0.65864270000E+03 0. -1.
    8880022    1    1    2    0    0  0.43462258591E+03 -0.16746709778E+02 -0.22640916514E+03  0.51364385283E+03  0.15294330000E+03 0.  0.
<mgrwt>
<rscale>  0 0.69002878E+03</rscale>
<asrwt>0</asrwt>
<pdfrwt beam="1">  1        2 0.17859446E+00 0.78929554E+03</pdfrwt>
<pdfrwt beam="2">  1       -2 0.80481970E-01 0.78929554E+03</pdfrwt>
<totfact> 0.27656674E+01</totfact>
</mgrwt>
</event>
<event>
 4    1  0.8468429E-007  0.9203709E+03  0.7818608E-02  0.9494091E-01
          2   -1    0    0  501    0  0.00000000000E+00  0.00000000000E+00  0.84521826333E+03  0.84521826334E+03  0.25500000000E-02 0. -1.
         -2   -1    0    0    0  501 -0.00000000000E+00 -0.00000000000E+00 -0.89531702683E+03  0.89531702684E+03  0.25500000000E-02 0.  1.
    8880023    1    1    2    0    0 -0.36965658481E+02  0.64179894961E+03  0.33055806495E+03  0.97793209999E+03  0.65864270000E+03 0. -1.
    8880022    1    1    2    0    0  0.36965658481E+02 -0.64179894961E+03 -0.38065682844E+03  0.76260319018E+03  0.15294330000E+03 0.  0.
<mgrwt>
<rscale>  0 0.84720903E+03</rscale>
<asrwt>0</asrwt>
<pdfrwt beam="1">  1        2 0.13003358E+00 0.92037088E+03</pdfrwt>
<pdfrwt beam="2">  1       -2 0.13774108E+00 0.92037088E+03</pdfrwt>
<totfact> 0.11969600E+01</totfact>
</mgrwt>
</event>
<event>
 4    1  0.8468429E-007  0.6826161E+03  0.7818608E-02  0.1007881E+00
          2   -1    0    0  501    0  0.00000000000E+00  0.00000000000E+00  0.12031462440E+04  0.12031462440E+04  0.25500000000E-02 0. -1.
         -2   -1    0    0    0  501 -0.00000000000E+00 -0.00000000000E+00 -0.58283547568E+03  0.58283547568E+03  0.25500000000E-02 0.  1.
    8880023    1    1    2    0    0 -0.11797786383E+03 -0.13503986694E+03  0.10752448312E+04  0.12736232548E+04  0.65864270000E+03 0. -1.
    8880022    1    1    2    0    0  0.11797786383E+03  0.13503986694E+03 -0.45493406281E+03  0.51235846489E+03  0.15294330000E+03 0.  0.
<mgrwt>
<rscale>  0 0.52325596E+03</rscale>
<asrwt>0</asrwt>
<pdfrwt beam="1">  1        2 0.18509942E+00 0.68261611E+03</pdfrwt>
<pdfrwt beam="2">  1       -2 0.89666997E-01 0.68261611E+03</pdfrwt>
<totfact> 0.20648370E+01</totfact>
</mgrwt>
</event>
<event>
 4    1  0.8468429E-007  0.7920518E+03  0.7818608E-02  0.9728253E-01
         -2   -1    0    0    0  501 -0.00000000000E+00  0.00000000000E+00  0.37017290372E+03  0.37017290372E+03  0.25500000000E-02 0.  1.
          2   -1    0    0  501    0  0.00000000000E+00 -0.00000000000E+00 -0.13010411139E+04  0.13010411139E+04  0.25500000000E-02 0. -1.
    8880023    1    1    2    0    0 -0.41122910445E+03 -0.15628964072E+03 -0.90798212485E+03  0.12048973290E+04  0.65864270000E+03 0. -1.
    8880022    1    1    2    0    0  0.41122910445E+03  0.15628964072E+03 -0.22886085302E+02  0.46631668859E+03  0.15294330000E+03 0.  0.
<mgrwt>
<rscale>  0 0.69359269E+03</rscale>
<asrwt>0</asrwt>
<pdfrwt beam="1">  1        2 0.20016017E+00 0.79205179E+03</pdfrwt>
<pdfrwt beam="2">  1       -2 0.56949678E-01 0.79205179E+03</pdfrwt>
<totfact> 0.48436455E+01</totfact>
</mgrwt>
</event>
<event>
 4    1  0.8468429E-007  0.9187603E+03  0.7818608E-02  0.9496562E-01
         -2   -1    0    0    0  501 -0.00000000000E+00  0.00000000000E+00  0.20119487737E+03  0.20119487739E+03  0.25500000000E-02 0.  1.
          2   -1    0    0  501    0  0.00000000000E+00 -0.00000000000E+00 -0.32338884807E+04  0.32338884807E+04  0.25500000000E-02 0. -1.
    8880023    1    1    2    0    0  0.39639522123E+03  0.50317101845E+03 -0.13997373542E+04  0.16743312433E+04  0.65864270000E+03 0.  1.
    8880022    1    1    2    0    0 -0.39639522123E+03 -0.50317101845E+03 -0.16329562491E+04  0.17607521148E+04  0.15294330000E+03 0.  0.
<mgrwt>
<rscale>  0 0.84537728E+03</rscale>
<asrwt>0</asrwt>
<pdfrwt beam="1">  1        2 0.49752127E+00 0.91876028E+03</pdfrwt>
<pdfrwt beam="2">  1       -2 0.30953060E-01 0.91876028E+03</pdfrwt>
<totfact> 0.12394481E+01</totfact>
</mgrwt>
</event>
<event>
 4    1  0.8468429E-007  0.7710749E+03  0.7818608E-02  0.9777236E-01
         -2   -1    0    0    0  501 -0.00000000000E+00  0.00000000000E+00  0.30095121913E+03  0.30095121914E+03  0.25500000000E-02 0.  1.
          2   -1    0    0  501    0  0.00000000000E+00 -0.00000000000E+00 -0.14569576068E+04  0.14569576068E+04  0.25500000000E-02 0. -1.
    8880023    1    1    2    0    0 -0.31458229142E+03  0.24856444172E+03 -0.10722300456E+04  0.13206944298E+04  0.65864270000E+03 0.  0.
    8880022    1    1    2    0    0  0.31458229142E+03 -0.24856444172E+03 -0.83776342058E+02  0.43721439622E+03  0.15294330000E+03 0.  0.
<mgrwt>
<rscale>  0 0.66598637E+03</rscale>
<asrwt>0</asrwt>
<pdfrwt beam="1">  1        2 0.22414732E+00 0.77107490E+03</pdfrwt>
<pdfrwt beam="2">  1       -2 0.46300189E-01 0.77107490E+03</pdfrwt>
<totfact> 0.60468121E+01</totfact>
</mgrwt>
</event>
<event>
 4    1  0.8468429E-007  0.1556117E+04  0.7818608E-02  0.8870994E-01
          2   -1    0    0  501    0  0.00000000000E+00  0.00000000000E+00  0.19040155664E+04  0.19040155664E+04  0.25500000000E-02 0. -1.
         -2   -1    0    0    0  501 -0.00000000000E+00 -0.00000000000E+00 -0.13821070449E+04  0.13821070449E+04  0.25500000000E-02 0.  1.
    8880023    1    1    2    0    0 -0.99620204652E+03  0.99763251570E+03 -0.38470123408E+03  0.16029642540E+04  0.65864270000E+03 0.  1.
    8880022    1    1    2    0    0  0.99620204652E+03 -0.99763251570E+03  0.90660975554E+03  0.16831583573E+04  0.15294330000E+03 0.  0.
<mgrwt>
<rscale>  0 0.15204086E+04</rscale>
<asrwt>0</asrwt>
<pdfrwt beam="1">  1        2 0.29292547E+00 0.15561168E+04</pdfrwt>
<pdfrwt beam="2">  1       -2 0.21263185E+00 0.15561168E+04</pdfrwt>
<totfact> 0.77692958E-01</totfact>
</mgrwt>
</event>
<event>
 4    1  0.8468429E-007  0.7939451E+03  0.7818608E-02  0.9724044E-01
          2   -1    0    0  501    0  0.00000000000E+00  0.00000000000E+00  0.10477237153E+04  0.10477237153E+04  0.25500000000E-02 0. -1.
         -2   -1    0    0    0  501 -0.00000000000E+00 -0.00000000000E+00 -0.19658582058E+04  0.19658582058E+04  0.25500000000E-02 0.  1.
    8880023    1    1    2    0    0  0.38021378654E+03  0.22798250820E+03  0.86246498528E+03  0.11722604679E+04  0.65864270000E+03 0. -1.
    8880022    1    1    2    0    0 -0.38021378654E+03 -0.22798250820E+03 -0.17805994759E+04  0.18413214532E+04  0.15294330000E+03 0.  0.
<mgrwt>
<rscale>  0 0.69603078E+03</rscale>
<asrwt>0</asrwt>
<pdfrwt beam="1">  1        2 0.16118826E+00 0.79394506E+03</pdfrwt>
<pdfrwt beam="2">  1       -2 0.30243972E+00 0.79394506E+03</pdfrwt>
<totfact> 0.74927647E-01</totfact>
</mgrwt>
</event>
<event>
 4    1  0.8468429E-007  0.6607352E+03  0.7818608E-02  0.1023416E+00
         -2   -1    0    0    0  501 -0.00000000000E+00  0.00000000000E+00  0.58544928705E+03  0.58544928706E+03  0.25500000000E-02 0.  1.
          2   -1    0    0  501    0  0.00000000000E+00 -0.00000000000E+00 -0.12646669470E+04  0.12646669470E+04  0.25500000000E-02 0. -1.
    8880023    1    1    2    0    0 -0.46648220071E+02 -0.24181750001E+02 -0.11643381529E+04  0.13387510426E+04  0.65864270000E+03 0. -1.
    8880022    1    1    2    0    0  0.46648220071E+02  0.24181750001E+02  0.48512049289E+03  0.51136519153E+03  0.15294330000E+03 0.  0.
<mgrwt>
<rscale>  0 0.46473959E+03</rscale>
<asrwt>0</asrwt>
<pdfrwt beam="1">  1        2 0.19456415E+00 0.66073521E+03</pdfrwt>
<pdfrwt beam="2">  1       -2 0.90069121E-01 0.66073521E+03</pdfrwt>
<totfact> 0.18866261E+01</totfact>
</mgrwt>
</event>
<event>
 4    1  0.8468429E-007  0.7102643E+03  0.7818608E-02  0.9957021E-01
         -2   -1    0    0    0  501 -0.00000000000E+00  0.00000000000E+00  0.37837702285E+03  0.37837702286E+03  0.25500000000E-02 0.  1.
          2   -1    0    0  501    0  0.00000000000E+00 -0.00000000000E+00 -0.77097694859E+03  0.77097694859E+03  0.25500000000E-02 0. -1.
    8880023    1    1    2    0    0 -0.16312679205E+03 -0.20989249667E+03 -0.44509975029E+03  0.83820594391E+03  0.65864270000E+03 0. -1.
    8880022    1    1    2    0    0  0.16312679205E+03  0.20989249667E+03  0.52499824548E+02  0.31114802753E+03  0.15294330000E+03 0.  0.
<mgrwt>
<rscale>  0 0.57575645E+03</rscale>
<asrwt>0</asrwt>
<pdfrwt beam="1">  1        2 0.11861184E+00 0.71026433E+03</pdfrwt>
<pdfrwt beam="2">  1       -2 0.58211850E-01 0.71026433E+03</pdfrwt>
<totfact> 0.10134237E+02</totfact>
</mgrwt>
</event>
<event>
 4    1  0.1002473E-006  0.1007770E+04  0.7818608E-02  0.9371462E-01
          2   -1    0    0  501    0  0.00000000000E+00  0.00000000000E+00  0.14551607038E+04  0.14551607038E+04  0.25500000000E-02 0. -1.
         -2   -1    0    0    0  501 -0.00000000000E+00 -0.00000000000E+00 -0.20623466249E+04  0.20623466249E+04  0.25500000000E-02 0.  1.
    8880023    1    1    2    0    0 -0.45465767418E+02  0.76139538170E+03  0.11898724908E+04  0.15592936907E+04  0.65864270000E+03 0.  0.
    8880022    1    1    2    0    0  0.45465767418E+02 -0.76139538170E+03 -0.17970584119E+04  0.19582136380E+04  0.15294330000E+03 0.  0.
<mgrwt>
<rscale>  0 0.94461922E+03</rscale>
<asrwt>0</asrwt>
<pdfrwt beam="1">  1        2 0.22387088E+00 0.10077699E+04</pdfrwt>
<pdfrwt beam="2">  1       -2 0.31728410E+00 0.10077699E+04</pdfrwt>
<totfact> 0.33707378E-01</totfact>
</mgrwt>
</event>
<event>
 4    1  0.8468429E-007  0.8232106E+03  0.7818608E-02  0.9662690E-01
          2   -1    0    0  501    0  0.00000000000E+00  0.00000000000E+00  0.10314732633E+04  0.10314732633E+04  0.25500000000E-02 0. -1.
         -2   -1    0    0    0  501 -0.00000000000E+00 -0.00000000000E+00 -0.43689610692E+03  0.43689610692E+03  0.25500000000E-02 0.  1.
    8880023    1    1    2    0    0  0.19075425071E+03  0.45549792086E+03  0.32203607834E+03  0.88395869931E+03  0.65864270000E+03 0. -1.
    8880022    1    1    2    0    0 -0.19075425071E+03 -0.45549792086E+03  0.27254107808E+03  0.58441067096E+03  0.15294330000E+03 0.  1.
<mgrwt>
<rscale>  0 0.73282353E+03</rscale>
<asrwt>0</asrwt>
<pdfrwt beam="1">  1        2 0.15868820E+00 0.82321063E+03</pdfrwt>
<pdfrwt beam="2">  1       -2 0.67214785E-01 0.82321063E+03</pdfrwt>
<totfact> 0.49303188E+01</totfact>
</mgrwt>
</event>
<event>
 4    1  0.1090987E-006  0.1003223E+04  0.7818608E-02  0.9377354E-01
          2   -1    0    0  501    0  0.00000000000E+00  0.00000000000E+00  0.23274159986E+04  0.23274159986E+04  0.25500000000E-02 0. -1.
         -2   -1    0    0    0  501 -0.00000000000E+00 -0.00000000000E+00 -0.12706178335E+04  0.12706178335E+04  0.25500000000E-02 0.  1.
    8880023    1    1    2    0    0 -0.75494727789E+03 -0.51962330328E+02  0.20840881624E+04  0.23129805773E+04  0.65864270000E+03 0.  0.
    8880022    1    1    2    0    0  0.75494727789E+03  0.51962330328E+02 -0.10272899973E+04  0.12850532548E+04  0.15294330000E+03 0.  0.
<mgrwt>
<rscale>  0 0.93963062E+03</rscale>
<asrwt>0</asrwt>
<pdfrwt beam="1">  1        2 0.35806400E+00 0.10032226E+04</pdfrwt>
<pdfrwt beam="2">  1       -2 0.19547967E+00 0.10032226E+04</pdfrwt>
<totfact> 0.62487676E-01</totfact>
</mgrwt>
</event>
<event>
 4    1  0.8468429E-007  0.7801529E+03  0.7818608E-02  0.9755478E-01
          2   -1    0    0  501    0  0.00000000000E+00  0.00000000000E+00  0.74929911193E+03  0.74929911194E+03  0.25500000000E-02 0. -1.
         -2   -1    0    0    0  501 -0.00000000000E+00 -0.00000000000E+00 -0.50490334888E+03  0.50490334888E+03  0.25500000000E-02 0.  1.
    8880023    1    1    2    0    0 -0.37240338944E+03 -0.19011600863E+03  0.20852739364E+03  0.80754087288E+03  0.65864270000E+03 0. -1.
    8880022    1    1    2    0    0  0.37240338944E+03  0.19011600863E+03  0.35868369411E+02  0.44666158794E+03  0.15294330000E+03 0.  1.
<mgrwt>
<rscale>  0 0.67807581E+03</rscale>
<asrwt>0</asrwt>
<pdfrwt beam="1">  1        2 0.11527679E+00 0.78015293E+03</pdfrwt>
<pdfrwt beam="2">  1       -2 0.77677439E-01 0.78015293E+03</pdfrwt>
<totfact> 0.56050240E+01</totfact>
</mgrwt>
</event>
<event>
 4    1  0.8468429E-007  0.6777765E+03  0.7818608E-02  0.1010610E+00
         -2   -1    0    0    0  501 -0.00000000000E+00  0.00000000000E+00  0.76647092066E+02  0.76647092109E+02  0.25500000000E-02 0.  1.
          2   -1    0    0  501    0  0.00000000000E+00 -0.00000000000E+00 -0.29597138971E+04  0.29597138971E+04  0.25500000000E-02 0. -1.
    8880023    1    1    2    0    0 -0.15905535474E+03  0.16497687107E+02 -0.25339297772E+04  0.26230099317E+04  0.65864270000E+03 0. -1.
    8880022    1    1    2    0    0  0.15905535474E+03 -0.16497687107E+02 -0.34913702779E+03  0.41335105750E+03  0.15294330000E+03 0.  0.
<mgrwt>
<rscale>  0 0.51232760E+03</rscale>
<asrwt>0</asrwt>
<pdfrwt beam="1">  1        2 0.45534051E+00 0.67777650E+03</pdfrwt>
<pdfrwt beam="2">  1       -2 0.11791863E-01 0.67777650E+03</pdfrwt>
<totfact> 0.10281798E+02</totfact>
</mgrwt>
</event>
<event>
 4    1  0.8468429E-007  0.8745049E+03  0.7818608E-02  0.9568265E-01
          2   -1    0    0  501    0  0.00000000000E+00  0.00000000000E+00  0.11803256200E+04  0.11803256200E+04  0.25500000000E-02 0. -1.
         -2   -1    0    0    0  501 -0.00000000000E+00 -0.00000000000E+00 -0.73173697410E+03  0.73173697410E+03  0.25500000000E-02 0.  1.
    8880023    1    1    2    0    0  0.51524320842E+03 -0.25587699683E+03  0.82951854900E+03  0.12053463530E+04  0.65864270000E+03 0.  0.
    8880022    1    1    2    0    0 -0.51524320842E+03  0.25587699683E+03 -0.38092990310E+03  0.70671624109E+03  0.15294330000E+03 0.  1.
<mgrwt>
<rscale>  0 0.79432685E+03</rscale>
<asrwt>0</asrwt>
<pdfrwt beam="1">  1        2 0.18158855E+00 0.87450489E+03</pdfrwt>
<pdfrwt beam="2">  1       -2 0.11257492E+00 0.87450489E+03</pdfrwt>
<totfact> 0.12151771E+01</totfact>
</mgrwt>
</event>
<event>
 4    1  0.8468429E-007  0.7746016E+03  0.7818608E-02  0.9768674E-01
          2   -1    0    0  501    0  0.00000000000E+00  0.00000000000E+00  0.66582736280E+03  0.66582736281E+03  0.25500000000E-02 0. -1.
         -2   -1    0    0    0  501 -0.00000000000E+00 -0.00000000000E+00 -0.16849588085E+04  0.16849588085E+04  0.25500000000E-02 0.  1.
    8880023    1    1    2    0    0  0.40754713513E+03 -0.10134730143E+02  0.39616074426E+03  0.87002926483E+03  0.65864270000E+03 0. -1.
    8880022    1    1    2    0    0 -0.40754713513E+03  0.10134730143E+02 -0.14152921899E+04  0.14807569065E+04  0.15294330000E+03 0.  0.
<mgrwt>
<rscale>  0 0.67071100E+03</rscale>
<asrwt>0</asrwt>
<pdfrwt beam="1">  1        2 0.10243498E+00 0.77460157E+03</pdfrwt>
<pdfrwt beam="2">  1       -2 0.25922443E+00 0.77460157E+03</pdfrwt>
<totfact> 0.25324521E+00</totfact>
</mgrwt>
</event>
<event>
 4    1  0.1698396E-006  0.8535978E+03  0.7818608E-02  0.9605055E-01
          2   -1    0    0  501    0  0.00000000000E+00  0.00000000000E+00  0.24759502477E+04  0.24759502477E+04  0.25500000000E-02 0. -1.
         -2   -1    0    0    0  501 -0.00000000000E+00 -0.00000000000E+00 -0.14910575850E+04  0.14910575850E+04  0.25500000000E-02 0.  1.
    8880023    1    1    2    0    0 -0.50559746387E+03  0.19796517447E+03  0.23444811259E+04  0.24950392706E+04  0.65864270000E+03 0. -1.
    8880022    1    1    2    0    0  0.50559746387E+03 -0.19796517447E+03 -0.13595884632E+04  0.14719685622E+04  0.15294330000E+03 0.  0.
<mgrwt>
<rscale>  0 0.76962525E+03</rscale>
<asrwt>0</asrwt>
<pdfrwt beam="1">  1        2 0.38091542E+00 0.85359780E+03</pdfrwt>
<pdfrwt beam="2">  1       -2 0.22939348E+00 0.85359780E+03</pdfrwt>
<totfact> 0.32183411E-01</totfact>
</mgrwt>
</event>
<event>
 4    1  0.8468429E-007  0.9349438E+03  0.7818608E-02  0.9472116E-01
         -2   -1    0    0    0  501 -0.00000000000E+00  0.00000000000E+00  0.24253099442E+03  0.24253099443E+03  0.25500000000E-02 0.  1.
          2   -1    0    0  501    0  0.00000000000E+00 -0.00000000000E+00 -0.30221129271E+04  0.30221129271E+04  0.25500000000E-02 0. -1.
    8880023    1    1    2    0    0 -0.60737724386E+02  0.66077273674E+03 -0.21182311439E+04  0.23153883186E+04  0.65864270000E+03 0.  0.
    8880022    1    1    2    0    0  0.60737724386E+02 -0.66077273674E+03 -0.66135078873E+03  0.94925560286E+03  0.15294330000E+03 0.  0.
<mgrwt>
<rscale>  0 0.86371193E+03</rscale>
<asrwt>0</asrwt>
<pdfrwt beam="1">  1        2 0.46494042E+00 0.93494379E+03</pdfrwt>
<pdfrwt beam="2">  1       -2 0.37312463E-01 0.93494379E+03</pdfrwt>
<totfact> 0.11791636E+01</totfact>
</mgrwt>
</event>
<event>
 4    1  0.8468429E-007  0.6739027E+03  0.7818608E-02  0.1013007E+00
          2   -1    0    0  501    0  0.00000000000E+00  0.00000000000E+00  0.10341360971E+04  0.10341360971E+04  0.25500000000E-02 0. -1.
         -2   -1    0    0    0  501 -0.00000000000E+00 -0.00000000000E+00 -0.33681776759E+03  0.33681776760E+03  0.25500000000E-02 0.  1.
    8880023    1    1    2    0    0  0.79593493749E+02  0.11831977221E+03  0.86949998483E+03  0.11000795983E+04  0.65864270000E+03 0. -1.
    8880022    1    1    2    0    0 -0.79593493749E+02 -0.11831977221E+03 -0.17218165533E+03  0.27087426638E+03  0.15294330000E+03 0.  1.
<mgrwt>
<rscale>  0 0.50296853E+03</rscale>
<asrwt>0</asrwt>
<pdfrwt beam="1">  1        2 0.15909786E+00 0.67390274E+03</pdfrwt>
<pdfrwt beam="2">  1       -2 0.51818120E-01 0.67390274E+03</pdfrwt>
<totfact> 0.85996803E+01</totfact>
</mgrwt>
</event>
<event>
 4    1  0.8468429E-007  0.7534792E+03  0.7818608E-02  0.9822291E-01
          2   -1    0    0  501    0  0.00000000000E+00  0.00000000000E+00  0.31493048113E+04  0.31493048113E+04  0.25500000000E-02 0. -1.
         -2   -1    0    0    0  501 -0.00000000000E+00 -0.00000000000E+00 -0.12773101566E+03  0.12773101569E+03  0.25500000000E-02 0.  1.
    8880023    1    1    2    0    0  0.27499546434E+03 -0.24145033365E+03  0.25593980872E+04  0.26680047872E+04  0.65864270000E+03 0. -1.
    8880022    1    1    2    0    0 -0.27499546434E+03  0.24145033365E+03  0.46217570836E+03  0.60903103980E+03  0.15294330000E+03 0.  0.
<mgrwt>
<rscale>  0 0.64179872E+03</rscale>
<asrwt>0</asrwt>
<pdfrwt beam="1">  1        2 0.48450845E+00 0.75347925E+03</pdfrwt>
<pdfrwt beam="2">  1       -2 0.19650925E-01 0.75347925E+03</pdfrwt>
<totfact> 0.32679830E+01</totfact>
</mgrwt>
</event>
<event>
 4    1  0.8468429E-007  0.6651250E+03  0.7818608E-02  0.1019429E+00
         -2   -1    0    0    0  501 -0.00000000000E+00  0.00000000000E+00  0.30058718031E+03  0.30058718033E+03  0.25500000000E-02 0.  1.
          2   -1    0    0  501    0  0.00000000000E+00 -0.00000000000E+00 -0.10835480625E+04  0.10835480625E+04  0.25500000000E-02 0. -1.
    8880023    1    1    2    0    0  0.66385968545E+02 -0.64606468063E+02 -0.93635645690E+03  0.11485446065E+04  0.65864270000E+03 0. -1.
    8880022    1    1    2    0    0 -0.66385968545E+02  0.64606468063E+02  0.15339557474E+03  0.23559063628E+03  0.15294330000E+03 0.  0.
<mgrwt>
<rscale>  0 0.47893322E+03</rscale>
<asrwt>0</asrwt>
<pdfrwt beam="1">  1        2 0.16669970E+00 0.66512502E+03</pdfrwt>
<pdfrwt beam="2">  1       -2 0.46244182E-01 0.66512502E+03</pdfrwt>
<totfact> 0.10097573E+02</totfact>
</mgrwt>
</event>
<event>
 4    1  0.8468429E-007  0.1145645E+04  0.7818608E-02  0.9211861E-01
         -2   -1    0    0    0  501 -0.00000000000E+00  0.00000000000E+00  0.69275770505E+03  0.69275770506E+03  0.25500000000E-02 0.  1.
          2   -1    0    0  501    0  0.00000000000E+00 -0.00000000000E+00 -0.17069048883E+04  0.17069048883E+04  0.25500000000E-02 0. -1.
    8880023    1    1    2    0    0 -0.36065591505E+02  0.93669159866E+03 -0.87101851707E+03  0.14391578583E+04  0.65864270000E+03 0.  0.
    8880022    1    1    2    0    0  0.36065591505E+02 -0.93669159866E+03 -0.14312866619E+03  0.96050473502E+03  0.15294330000E+03 0.  0.
<mgrwt>
<rscale>  0 0.10931842E+04</rscale>
<asrwt>0</asrwt>
<pdfrwt beam="1">  1        2 0.26260075E+00 0.11456448E+04</pdfrwt>
<pdfrwt beam="2">  1       -2 0.10657811E+00 0.11456448E+04</pdfrwt>
<totfact> 0.67683255E+00</totfact>
</mgrwt>
</event>
<event>
 4    1  0.8468429E-007  0.6649159E+03  0.7818608E-02  0.1019604E+00
          2   -1    0    0  501    0  0.00000000000E+00  0.00000000000E+00  0.36885074139E+03  0.36885074140E+03  0.25500000000E-02 0. -1.
         -2   -1    0    0    0  501 -0.00000000000E+00 -0.00000000000E+00 -0.15439048643E+04  0.15439048643E+04  0.25500000000E-02 0.  1.
    8880023    1    1    2    0    0 -0.51311080644E+01 -0.90975583468E+02  0.57512225068E+02  0.66739849217E+03  0.65864270000E+03 0. -1.
    8880022    1    1    2    0    0  0.51311080644E+01  0.90975583468E+02 -0.12325663479E+04  0.12453571135E+04  0.15294330000E+03 0.  0.
<mgrwt>
<rscale>  0 0.47829745E+03</rscale>
<asrwt>0</asrwt>
<pdfrwt beam="1">  1        2 0.56746269E-01 0.66491585E+03</pdfrwt>
<pdfrwt beam="2">  1       -2 0.23752382E+00 0.66491585E+03</pdfrwt>
<totfact> 0.69272221E+00</totfact>
</mgrwt>
</event>
<event>
 4    1  0.8468429E-007  0.9088050E+03  0.7818608E-02  0.9512042E-01
         -2   -1    0    0    0  501 -0.00000000000E+00  0.00000000000E+00  0.43433825050E+03  0.43433825051E+03  0.25500000000E-02 0.  1.
          2   -1    0    0  501    0  0.00000000000E+00 -0.00000000000E+00 -0.19097838245E+04  0.19097838245E+04  0.25500000000E-02 0. -1.
    8880023    1    1    2    0    0 -0.61675732896E+03  0.10828977044E+03 -0.22335858511E+03  0.93585017017E+03  0.65864270000E+03 0.  0.
    8880022    1    1    2    0    0  0.61675732896E+03 -0.10828977044E+03 -0.12520869889E+04  0.14082719049E+04  0.15294330000E+03 0.  0.
<mgrwt>
<rscale>  0 0.83401802E+03</rscale>
<asrwt>0</asrwt>
<pdfrwt beam="1">  1        2 0.29381289E+00 0.90880498E+03</pdfrwt>
<pdfrwt beam="2">  1       -2 0.66821270E-01 0.90880498E+03</pdfrwt>
<totfact> 0.15609386E+01</totfact>
</mgrwt>
</event>
<event>
 4    1  0.8468429E-007  0.7935181E+03  0.7818608E-02  0.9724990E-01
          2   -1    0    0  501    0  0.00000000000E+00  0.00000000000E+00  0.55360981052E+03  0.55360981053E+03  0.25500000000E-02 0. -1.
         -2   -1    0    0    0  501 -0.00000000000E+00 -0.00000000000E+00 -0.84595329884E+03  0.84595329884E+03  0.25500000000E-02 0.  1.
    8880023    1    1    2    0    0  0.41395553917E+03 -0.15652990511E+03  0.85190525213E+02  0.79807796076E+03  0.65864270000E+03 0. -1.
    8880022    1    1    2    0    0 -0.41395553917E+03  0.15652990511E+03 -0.37753401353E+03  0.60148514861E+03  0.15294330000E+03 0.  0.
<mgrwt>
<rscale>  0 0.69548168E+03</rscale>
<asrwt>0</asrwt>
<pdfrwt beam="1">  1        2 0.85170740E-01 0.79351812E+03</pdfrwt>
<pdfrwt beam="2">  1       -2 0.13014666E+00 0.79351812E+03</pdfrwt>
<totfact> 0.23877140E+01</totfact>
</mgrwt>
</event>
<event>
 4    1  0.8468429E-007  0.1022986E+04  0.7818608E-02  0.9352083E-01
          2   -1    0    0  501    0  0.00000000000E+00  0.00000000000E+00  0.19150749541E+04  0.19150749541E+04  0.25500000000E-02 0. -1.
         -2   -1    0    0    0  501 -0.00000000000E+00 -0.00000000000E+00 -0.52930268828E+03  0.52930268829E+03  0.25500000000E-02 0.  1.
    8880023    1    1    2    0    0  0.76960496872E+03  0.14282597858E+03  0.12819651583E+04  0.16401024179E+04  0.65864270000E+03 0. -1.
    8880022    1    1    2    0    0 -0.76960496872E+03 -0.14282597858E+03  0.10380710752E+03  0.80427522442E+03  0.15294330000E+03 0.  0.
<mgrwt>
<rscale>  0 0.96126164E+03</rscale>
<asrwt>0</asrwt>
<pdfrwt beam="1">  1        2 0.29462692E+00 0.10229864E+04</pdfrwt>
<pdfrwt beam="2">  1       -2 0.81431183E-01 0.10229864E+04</pdfrwt>
<totfact> 0.98769397E+00</totfact>
</mgrwt>
</event>
<event>
 4    1  0.1616549E-006  0.7753642E+03  0.7818608E-02  0.9766841E-01
          2   -1    0    0  501    0  0.00000000000E+00  0.00000000000E+00  0.18275309142E+04  0.18275309142E+04  0.25500000000E-02 0. -1.
         -2   -1    0    0    0  501 -0.00000000000E+00 -0.00000000000E+00 -0.13988143404E+04  0.13988143404E+04  0.25500000000E-02 0.  1.
    8880023    1    1    2    0    0  0.15656234587E+03  0.37797840795E+03  0.17073541500E+04  0.18751660846E+04  0.65864270000E+03 0. -1.
    8880022    1    1    2    0    0 -0.15656234587E+03 -0.37797840795E+03 -0.12786375762E+04  0.13511791700E+04  0.15294330000E+03 0.  0.
<mgrwt>
<rscale>  0 0.67172789E+03</rscale>
<asrwt>0</asrwt>
<pdfrwt beam="1">  1        2 0.28115860E+00 0.77536421E+03</pdfrwt>
<pdfrwt beam="2">  1       -2 0.21520221E+00 0.77536421E+03</pdfrwt>
<totfact> 0.91591320E-01</totfact>
</mgrwt>
</event>
<event>
 4    1  0.8468429E-007  0.1014238E+04  0.7818608E-02  0.9363162E-01
          2   -1    0    0  501    0  0.00000000000E+00  0.00000000000E+00  0.42077407089E+04  0.42077407089E+04  0.25500000000E-02 0. -1.
         -2   -1    0    0    0  501 -0.00000000000E+00 -0.00000000000E+00 -0.50570708315E+03  0.50570708316E+03  0.25500000000E-02 0.  1.
    8880023    1    1    2    0    0 -0.31041227358E+03 -0.70605467748E+03  0.37889630885E+04  0.39223615947E+04  0.65864270000E+03 0.  0.
    8880022    1    1    2    0    0  0.31041227358E+03  0.70605467748E+03 -0.86929462752E+02  0.79108619738E+03  0.15294330000E+03 0.  0.
<mgrwt>
<rscale>  0 0.95170299E+03</rscale>
<asrwt>0</asrwt>
<pdfrwt beam="1">  1        2 0.64734474E+00 0.10142382E+04</pdfrwt>
<pdfrwt beam="2">  1       -2 0.77801088E-01 0.10142382E+04</pdfrwt>
<totfact> 0.35658816E-01</totfact>
</mgrwt>
</event>
<event>
 4    1  0.8468429E-007  0.7638343E+03  0.7818608E-02  0.9795280E-01
         -2   -1    0    0    0  501 -0.00000000000E+00  0.00000000000E+00  0.14908282859E+04  0.14908282859E+04  0.25500000000E-02 0.  1.
          2   -1    0    0  501    0  0.00000000000E+00 -0.00000000000E+00 -0.34342664503E+03  0.34342664504E+03  0.25500000000E-02 0. -1.
    8880023    1    1    2    0    0  0.18529382889E+03 -0.33955686737E+03  0.18516210082E+03  0.78595666487E+03  0.65864270000E+03 0.  1.
    8880022    1    1    2    0    0 -0.18529382889E+03  0.33955686737E+03  0.96223954002E+03  0.10482982660E+04  0.15294330000E+03 0.  0.
<mgrwt>
<rscale>  0 0.65616456E+03</rscale>
<asrwt>0</asrwt>
<pdfrwt beam="1">  1        2 0.52834868E-01 0.76383432E+03</pdfrwt>
<pdfrwt beam="2">  1       -2 0.22935820E+00 0.76383432E+03</pdfrwt>
<totfact> 0.83232847E+00</totfact>
</mgrwt>
</event>
<event>
 4    1  0.8468429E-007  0.1154584E+04  0.7818608E-02  0.9202586E-01
         -2   -1    0    0    0  501 -0.00000000000E+00  0.00000000000E+00  0.17982270156E+04  0.17982270156E+04  0.25500000000E-02 0.  1.
          2   -1    0    0  501    0  0.00000000000E+00 -0.00000000000E+00 -0.18291874426E+04  0.18291874426E+04  0.25500000000E-02 0. -1.
    8880023    1    1    2    0    0 -0.81131146773E+03 -0.49094497303E+03 -0.14872884788E+04  0.18828410686E+04  0.65864270000E+03 0.  0.
    8880022    1    1    2    0    0  0.81131146773E+03  0.49094497303E+03  0.14563280518E+04  0.17445733896E+04  0.15294330000E+03 0.  0.
<mgrwt>
<rscale>  0 0.11026772E+04</rscale>
<asrwt>0</asrwt>
<pdfrwt beam="1">  1        2 0.28141345E+00 0.11545837E+04</pdfrwt>
<pdfrwt beam="2">  1       -2 0.27665031E+00 0.11545837E+04</pdfrwt>
<totfact> 0.35978160E-01</totfact>
</mgrwt>
</event>
<event>
 4    1  0.8468429E-007  0.7656694E+03  0.7818608E-02  0.9790645E-01
          2   -1    0    0  501    0  0.00000000000E+00  0.00000000000E+00  0.33313216869E+04  0.33313216869E+04  0.25500000000E-02 0. -1.
         -2   -1    0    0    0  501 -0.00000000000E+00 -0.00000000000E+00 -0.14951583794E+03  0.14951583796E+03  0.25500000000E-02 0.  1.
    8880023    1    1    2    0    0 -0.28935093498E+03 -0.26213625604E+03  0.28353247299E+04  0.29368888148E+04  0.65864270000E+03 0.  0.
    8880022    1    1    2    0    0  0.28935093498E+03  0.26213625604E+03  0.34648111911E+03  0.54394871009E+03  0.15294330000E+03 0.  0.
<mgrwt>
<rscale>  0 0.65867002E+03</rscale>
<asrwt>0</asrwt>
<pdfrwt beam="1">  1        2 0.51251100E+00 0.76566937E+03</pdfrwt>
<pdfrwt beam="2">  1       -2 0.23002438E-01 0.76566937E+03</pdfrwt>
<totfact> 0.18870781E+01</totfact>
</mgrwt>
</event>
<event>
 4    1  0.8468429E-007  0.1248516E+04  0.7818608E-02  0.9111346E-01
          2   -1    0    0  501    0  0.00000000000E+00  0.00000000000E+00  0.16935241210E+04  0.16935241210E+04  0.25500000000E-02 0. -1.
         -2   -1    0    0    0  501 -0.00000000000E+00 -0.00000000000E+00 -0.15040687816E+04  0.15040687816E+04  0.25500000000E-02 0.  1.
    8880023    1    1    2    0    0  0.24438050031E+03 -0.10321147713E+04  0.11948762614E+04  0.17281557269E+04  0.65864270000E+03 0. -1.
    8880022    1    1    2    0    0 -0.24438050031E+03  0.10321147713E+04 -0.10054209220E+04  0.14694371757E+04  0.15294330000E+03 0.  0.
<mgrwt>
<rscale>  0 0.12017278E+04</rscale>
<asrwt>0</asrwt>
<pdfrwt beam="1">  1        2 0.26054217E+00 0.12485163E+04</pdfrwt>
<pdfrwt beam="2">  1       -2 0.23139520E+00 0.12485163E+04</pdfrwt>
<totfact> 0.79970388E-01</totfact>
</mgrwt>
</event>
<event>
 4    1  0.8468429E-007  0.7548329E+03  0.7818608E-02  0.9818673E-01
          2   -1    0    0  501    0  0.00000000000E+00  0.00000000000E+00  0.17481218276E+04  0.17481218276E+04  0.25500000000E-02 0. -1.
         -2   -1    0    0    0  501 -0.00000000000E+00 -0.00000000000E+00 -0.60935058804E+03  0.60935058804E+03  0.25500000000E-02 0.  1.
    8880023    1    1    2    0    0 -0.36871754446E+03 -0.31512607923E+01  0.15869304425E+04  0.17573050371E+04  0.65864270000E+03 0. -1.
    8880022    1    1    2    0    0  0.36871754446E+03  0.31512607923E+01 -0.44815920292E+03  0.60016737850E+03  0.15294330000E+03 0.  0.
<mgrwt>
<rscale>  0 0.64370010E+03</rscale>
<asrwt>0</asrwt>
<pdfrwt beam="1">  1        2 0.26894181E+00 0.75483294E+03</pdfrwt>
<pdfrwt beam="2">  1       -2 0.93746246E-01 0.75483294E+03</pdfrwt>
<totfact> 0.91217026E+00</totfact>
</mgrwt>
</event>
<event>
 4    1  0.8468429E-007  0.6606694E+03  0.7818608E-02  0.1023481E+00
         -2   -1    0    0    0  501 -0.00000000000E+00  0.00000000000E+00  0.55766042760E+03  0.55766042760E+03  0.25500000000E-02 0.  1.
          2   -1    0    0  501    0  0.00000000000E+00 -0.00000000000E+00 -0.69248249368E+03  0.69248249368E+03  0.25500000000E-02 0. -1.
    8880023    1    1    2    0    0  0.49907286628E+02  0.13533460409E+02 -0.51462452183E+03  0.83744999644E+03  0.65864270000E+03 0.  0.
    8880022    1    1    2    0    0 -0.49907286628E+02 -0.13533460409E+02  0.37980245575E+03  0.41269292484E+03  0.15294330000E+03 0.  1.
<mgrwt>
<rscale>  0 0.46451154E+03</rscale>
<asrwt>0</asrwt>
<pdfrwt beam="1">  1        2 0.10653577E+00 0.66066943E+03</pdfrwt>
<pdfrwt beam="2">  1       -2 0.85793912E-01 0.66066943E+03</pdfrwt>
<totfact> 0.49983433E+01</totfact>
</mgrwt>
</event>
<event>
 4    1  0.8468429E-007  0.8848549E+03  0.7818608E-02  0.9550795E-01
         -2   -1    0    0    0  501 -0.00000000000E+00  0.00000000000E+00  0.33431234537E+03  0.33431234538E+03  0.25500000000E-02 0.  1.
          2   -1    0    0  501    0  0.00000000000E+00 -0.00000000000E+00 -0.19027854189E+04  0.19027854189E+04  0.25500000000E-02 0. -1.
    8880023    1    1    2    0    0 -0.50199620832E+03 -0.31170155991E+03 -0.52687406129E+03  0.10298371417E+04  0.65864270000E+03 0.  1.
    8880022    1    1    2    0    0  0.50199620832E+03  0.31170155991E+03 -0.10415990122E+04  0.12072606226E+04  0.15294330000E+03 0. -1.
<mgrwt>
<rscale>  0 0.80640291E+03</rscale>
<asrwt>0</asrwt>
<pdfrwt beam="1">  1        2 0.29273621E+00 0.88485494E+03</pdfrwt>
<pdfrwt beam="2">  1       -2 0.51432670E-01 0.88485494E+03</pdfrwt>
<totfact> 0.27416991E+01</totfact>
</mgrwt>
</event>
<event>
 4    1  0.8468429E-007  0.7067996E+03  0.7818608E-02  0.9970083E-01
          2   -1    0    0  501    0  0.00000000000E+00  0.00000000000E+00  0.27000842797E+03  0.27000842799E+03  0.25500000000E-02 0. -1.
         -2   -1    0    0    0  501 -0.00000000000E+00 -0.00000000000E+00 -0.93902997596E+03  0.93902997597E+03  0.25500000000E-02 0.  1.
    8880023    1    1    2    0    0  0.24376914110E+03 -0.79574745212E+02 -0.50190236552E+03  0.86687468818E+03  0.65864270000E+03 0.  0.
    8880022    1    1    2    0    0 -0.24376914110E+03  0.79574745212E+02 -0.16711918247E+03  0.34216371577E+03  0.15294330000E+03 0.  1.
<mgrwt>
<rscale>  0 0.56981739E+03</rscale>
<asrwt>0</asrwt>
<pdfrwt beam="1">  1        2 0.41539759E-01 0.70679965E+03</pdfrwt>
<pdfrwt beam="2">  1       -2 0.14446615E+00 0.70679965E+03</pdfrwt>
<totfact> 0.41420455E+01</totfact>
</mgrwt>
</event>
<event>
 4    1  0.8468429E-007  0.6829341E+03  0.7818608E-02  0.1007710E+00
          2   -1    0    0  501    0  0.00000000000E+00  0.00000000000E+00  0.13886965551E+04  0.13886965551E+04  0.25500000000E-02 0. -1.
         -2   -1    0    0    0  501 -0.00000000000E+00 -0.00000000000E+00 -0.48753918465E+03  0.48753918466E+03  0.25500000000E-02 0.  1.
    8880023    1    1    2    0    0  0.62567381017E+01 -0.18041531203E+03  0.12677062256E+04  0.14399576773E+04  0.65864270000E+03 0. -1.
    8880022    1    1    2    0    0 -0.62567381017E+01  0.18041531203E+03 -0.36654885516E+03  0.43627806251E+03  0.15294330000E+03 0.  0.
<mgrwt>
<rscale>  0 0.52394862E+03</rscale>
<asrwt>0</asrwt>
<pdfrwt beam="1">  1        2 0.21364562E+00 0.68293414E+03</pdfrwt>
<pdfrwt beam="2">  1       -2 0.75006030E-01 0.68293414E+03</pdfrwt>
<totfact> 0.24156653E+01</totfact>
</mgrwt>
</event>
<event>
 4    1  0.8468429E-007  0.6995213E+03  0.7818608E-02  0.9999193E-01
          2   -1    0    0  501    0  0.00000000000E+00  0.00000000000E+00  0.21042202223E+04  0.21042202223E+04  0.25500000000E-02 0. -1.
         -2   -1    0    0    0  501 -0.00000000000E+00 -0.00000000000E+00 -0.13249117586E+03  0.13249117589E+03  0.25500000000E-02 0.  1.
    8880023    1    1    2    0    0 -0.23473544644E+03 -0.20472965332E+02  0.17301375945E+04  0.18662010005E+04  0.65864270000E+03 0.  0.
    8880022    1    1    2    0    0  0.23473544644E+03  0.20472965332E+02  0.24159145194E+03  0.37051039768E+03  0.15294330000E+03 0.  0.
<mgrwt>
<rscale>  0 0.55685647E+03</rscale>
<asrwt>0</asrwt>
<pdfrwt beam="1">  1        2 0.32372618E+00 0.69952132E+03</pdfrwt>
<pdfrwt beam="2">  1       -2 0.20383259E-01 0.69952132E+03</pdfrwt>
<totfact> 0.12461600E+02</totfact>
</mgrwt>
</event>
<event>
 4    1  0.8468429E-007  0.7325314E+03  0.7818608E-02  0.9882262E-01
          2   -1    0    0  501    0  0.00000000000E+00  0.00000000000E+00  0.55757071034E+03  0.55757071034E+03  0.25500000000E-02 0. -1.
         -2   -1    0    0    0  501 -0.00000000000E+00 -0.00000000000E+00 -0.53054274955E+03  0.53054274955E+03  0.25500000000E-02 0.  1.
    8880023    1    1    2    0    0  0.31431714326E+03 -0.63220392841E+02  0.21505205336E+02  0.73284702683E+03  0.65864270000E+03 0.  1.
    8880022    1    1    2    0    0 -0.31431714326E+03  0.63220392841E+02  0.55227554535E+01  0.35526643306E+03  0.15294330000E+03 0. -1.
<mgrwt>
<rscale>  0 0.61128694E+03</rscale>
<asrwt>0</asrwt>
<pdfrwt beam="1">  1        2 0.85780109E-01 0.73253143E+03</pdfrwt>
<pdfrwt beam="2">  1       -2 0.81621962E-01 0.73253143E+03</pdfrwt>
<totfact> 0.72470619E+01</totfact>
</mgrwt>
</event>
<event>
 4    1  0.8468429E-007  0.1007867E+04  0.7818608E-02  0.9371337E-01
          2   -1    0    0  501    0  0.00000000000E+00  0.00000000000E+00  0.59990060995E+03  0.59990060996E+03  0.25500000000E-02 0. -1.
         -2   -1    0    0    0  501 -0.00000000000E+00 -0.00000000000E+00 -0.20216405274E+04  0.20216405274E+04  0.25500000000E-02 0.  1.
    8880023    1    1    2    0    0 -0.62680759595E+03 -0.43485329785E+03 -0.80695138589E+01  0.10078990407E+04  0.65864270000E+03 0. -1.
    8880022    1    1    2    0    0  0.62680759595E+03  0.43485329785E+03 -0.14136704036E+04  0.16136420967E+04  0.15294330000E+03 0.  0.
<mgrwt>
<rscale>  0 0.94472532E+03</rscale>
<asrwt>0</asrwt>
<pdfrwt beam="1">  1        2 0.92292402E-01 0.10078667E+04</pdfrwt>
<pdfrwt beam="2">  1       -2 0.31102162E+00 0.10078667E+04</pdfrwt>
<totfact> 0.13583493E+00</totfact>
</mgrwt>
</event>
<event>
 4    1  0.8468429E-007  0.6866970E+03  0.7818608E-02  0.1005764E+00
         -2   -1    0    0    0  501 -0.00000000000E+00  0.00000000000E+00  0.42739707552E+03  0.42739707552E+03  0.25500000000E-02 0.  1.
          2   -1    0    0  501    0  0.00000000000E+00 -0.00000000000E+00 -0.51183232013E+03  0.51183232014E+03  0.25500000000E-02 0. -1.
    8880023    1    1    2    0    0 -0.48301693864E+02 -0.18817401765E+03 -0.85300503406E+02  0.69197463587E+03  0.65864270000E+03 0. -1.
    8880022    1    1    2    0    0  0.48301693864E+02  0.18817401765E+03  0.86525879224E+00  0.24725475979E+03  0.15294330000E+03 0.  1.
<mgrwt>
<rscale>  0 0.53193595E+03</rscale>
<asrwt>0</asrwt>
<pdfrwt beam="1">  1        2 0.78743434E-01 0.68669696E+03</pdfrwt>
<pdfrwt beam="2">  1       -2 0.65753396E-01 0.68669696E+03</pdfrwt>
<totfact> 0.12938047E+02</totfact>
</mgrwt>
</event>
<event>
 4    1  0.8468429E-007  0.7152999E+03  0.7818608E-02  0.9938823E-01
         -2   -1    0    0    0  501 -0.00000000000E+00  0.00000000000E+00  0.19517056069E+03  0.19517056070E+03  0.25500000000E-02 0.  1.
          2   -1    0    0  501    0  0.00000000000E+00 -0.00000000000E+00 -0.14378413637E+04  0.14378413637E+04  0.25500000000E-02 0. -1.
    8880023    1    1    2    0    0  0.25446252758E+03 -0.11442252139E+03 -0.10151993859E+04  0.12418871490E+04  0.65864270000E+03 0. -1.
    8880022    1    1    2    0    0 -0.25446252758E+03  0.11442252139E+03 -0.22747141706E+03  0.39112477540E+03  0.15294330000E+03 0.  1.
<mgrwt>
<rscale>  0 0.58416109E+03</rscale>
<asrwt>0</asrwt>
<pdfrwt beam="1">  1        2 0.22120636E+00 0.71529987E+03</pdfrwt>
<pdfrwt beam="2">  1       -2 0.30026241E-01 0.71529987E+03</pdfrwt>
<totfact> 0.14351116E+02</totfact>
</mgrwt>
</event>
<event>
 4    1  0.8468429E-007  0.7605692E+03  0.7818608E-02  0.9803636E-01
          2   -1    0    0  501    0  0.00000000000E+00  0.00000000000E+00  0.47901170461E+04  0.47901170461E+04  0.25500000000E-02 0. -1.
         -2   -1    0    0    0  501 -0.00000000000E+00 -0.00000000000E+00 -0.93498617553E+02  0.93498617588E+02  0.25500000000E-02 0.  1.
    8880023    1    1    2    0    0  0.15047559148E+03 -0.34930277706E+03  0.40292076986E+04  0.41003634252E+04  0.65864270000E+03 0.  0.
    8880022    1    1    2    0    0 -0.15047559148E+03  0.34930277706E+03  0.66741072995E+03  0.78325223853E+03  0.15294330000E+03 0.  0.
<mgrwt>
<rscale>  0 0.65167776E+03</rscale>
<asrwt>0</asrwt>
<pdfrwt beam="1">  1        2 0.73694090E+00 0.76056922E+03</pdfrwt>
<pdfrwt beam="2">  1       -2 0.14384406E-01 0.76056922E+03</pdfrwt>
<totfact> 0.26420415E+00</totfact>
</mgrwt>
</event>
<event>
 4    1  0.8468429E-007  0.8548807E+03  0.7818608E-02  0.9602735E-01
          2   -1    0    0  501    0  0.00000000000E+00  0.00000000000E+00  0.15709839184E+04  0.15709839184E+04  0.25500000000E-02 0. -1.
         -2   -1    0    0    0  501 -0.00000000000E+00 -0.00000000000E+00 -0.42611773617E+03  0.42611773618E+03  0.25500000000E-02 0.  1.
    8880023    1    1    2    0    0  0.31135110552E+03 -0.44729334465E+03  0.11476470600E+04  0.14310537473E+04  0.65864270000E+03 0.  0.
    8880022    1    1    2    0    0 -0.31135110552E+03  0.44729334465E+03 -0.27808777366E+01  0.56604790731E+03  0.15294330000E+03 0.  0.
<mgrwt>
<rscale>  0 0.77115403E+03</rscale>
<asrwt>0</asrwt>
<pdfrwt beam="1">  1        2 0.24168984E+00 0.85488072E+03</pdfrwt>
<pdfrwt beam="2">  1       -2 0.65556574E-01 0.85488072E+03</pdfrwt>
<totfact> 0.25134276E+01</totfact>
</mgrwt>
</event>
<event>
 4    1  0.8468429E-007  0.9327825E+03  0.7818608E-02  0.9475331E-01
          2   -1    0    0  501    0  0.00000000000E+00  0.00000000000E+00  0.56548222433E+03  0.56548222433E+03  0.25500000000E-02 0. -1.
         -2   -1    0    0    0  501 -0.00000000000E+00 -0.00000000000E+00 -0.16565524782E+04  0.16565524782E+04  0.25500000000E-02 0.  1.
    8880023    1    1    2    0    0 -0.26286197936E+03 -0.60595102738E+03  0.54992196136E+01  0.93279875400E+03  0.65864270000E+03 0. -1.
    8880022    1    1    2    0    0  0.26286197936E+03  0.60595102738E+03 -0.10965694734E+04  0.12892359485E+04  0.15294330000E+03 0.  1.
<mgrwt>
<rscale>  0 0.86127225E+03</rscale>
<asrwt>0</asrwt>
<pdfrwt beam="1">  1        2 0.86997266E-01 0.93278254E+03</pdfrwt>
<pdfrwt beam="2">  1       -2 0.25485423E+00 0.93278254E+03</pdfrwt>
<totfact> 0.32187694E+00</totfact>
</mgrwt>
</event>
<event>
 4    1  0.8468429E-007  0.6607181E+03  0.7818608E-02  0.1023433E+00
         -2   -1    0    0    0  501 -0.00000000000E+00  0.00000000000E+00  0.45536913643E+03  0.45536913644E+03  0.25500000000E-02 0.  1.
          2   -1    0    0  501    0  0.00000000000E+00 -0.00000000000E+00 -0.88002126936E+03  0.88002126936E+03  0.25500000000E-02 0. -1.
    8880023    1    1    2    0    0 -0.17059462746E+02 -0.49468379196E+02 -0.73325097706E+03  0.98701841292E+03  0.65864270000E+03 0. -1.
    8880022    1    1    2    0    0  0.17059462746E+02  0.49468379196E+02  0.30859884414E+03  0.34837199288E+03  0.15294330000E+03 0.  0.
<mgrwt>
<rscale>  0 0.46468017E+03</rscale>
<asrwt>0</asrwt>
<pdfrwt beam="1">  1        2 0.13538789E+00 0.66071806E+03</pdfrwt>
<pdfrwt beam="2">  1       -2 0.70056790E-01 0.66071806E+03</pdfrwt>
<totfact> 0.57369960E+01</totfact>
</mgrwt>
</event>
<event>
 4    1  0.8468429E-007  0.1261759E+04  0.7818608E-02  0.9099308E-01
         -2   -1    0    0    0  501 -0.00000000000E+00  0.00000000000E+00  0.11352523590E+04  0.11352523590E+04  0.25500000000E-02 0.  1.
          2   -1    0    0  501    0  0.00000000000E+00 -0.00000000000E+00 -0.15879356027E+04  0.15879356027E+04  0.25500000000E-02 0. -1.
    8880023    1    1    2    0    0 -0.20392383673E+03 -0.10567116206E+04 -0.89778868721E+03  0.15485667934E+04  0.65864270000E+03 0. -1.
    8880022    1    1    2    0    0  0.20392383673E+03  0.10567116206E+04  0.44510544345E+03  0.11746211684E+04  0.15294330000E+03 0.  0.
<mgrwt>
<rscale>  0 0.12156029E+04</rscale>
<asrwt>0</asrwt>
<pdfrwt beam="1">  1        2 0.24429779E+00 0.12617585E+04</pdfrwt>
<pdfrwt beam="2">  1       -2 0.17465421E+00 0.12617585E+04</pdfrwt>
<totfact> 0.21583074E+00</totfact>
</mgrwt>
</event>
<event>
 4    1  0.8468429E-007  0.9595396E+03  0.7818608E-02  0.9436519E-01
         -2   -1    0    0    0  501 -0.00000000000E+00  0.00000000000E+00  0.12393515700E+04  0.12393515700E+04  0.25500000000E-02 0.  1.
          2   -1    0    0  501    0  0.00000000000E+00 -0.00000000000E+00 -0.72136550367E+03  0.72136550367E+03  0.25500000000E-02 0. -1.
    8880023    1    1    2    0    0 -0.63822210102E+03  0.28209691580E+03 -0.16357894689E+03  0.97338296588E+03  0.65864270000E+03 0. -1.
    8880022    1    1    2    0    0  0.63822210102E+03 -0.28209691580E+03  0.68156501322E+03  0.98733410778E+03  0.15294330000E+03 0.  1.
<mgrwt>
<rscale>  0 0.89130255E+03</rscale>
<asrwt>0</asrwt>
<pdfrwt beam="1">  1        2 0.11097931E+00 0.95953964E+03</pdfrwt>
<pdfrwt beam="2">  1       -2 0.19066947E+00 0.95953964E+03</pdfrwt>
<totfact> 0.60290614E+00</totfact>
</mgrwt>
</event>
<event>
 4    1  0.8468429E-007  0.8366160E+03  0.7818608E-02  0.9636594E-01
         -2   -1    0    0    0  501 -0.00000000000E+00  0.00000000000E+00  0.17269147048E+04  0.17269147048E+04  0.25500000000E-02 0.  1.
          2   -1    0    0  501    0  0.00000000000E+00 -0.00000000000E+00 -0.35403830730E+03  0.35403830731E+03  0.25500000000E-02 0. -1.
    8880023    1    1    2    0    0 -0.48446116820E+03  0.17723851908E+03  0.31471898677E+03  0.89385365862E+03  0.65864270000E+03 0.  0.
    8880022    1    1    2    0    0  0.48446116820E+03 -0.17723851908E+03  0.10581574107E+04  0.11870993535E+04  0.15294330000E+03 0.  0.
<mgrwt>
<rscale>  0 0.74920756E+03</rscale>
<asrwt>0</asrwt>
<pdfrwt beam="1">  1        2 0.54467432E-01 0.83661599E+03</pdfrwt>
<pdfrwt beam="2">  1       -2 0.26567918E+00 0.83661599E+03</pdfrwt>
<totfact> 0.47971212E+00</totfact>
</mgrwt>
</event>
<event>
 4    1  0.8468429E-007  0.7822961E+03  0.7818608E-02  0.9750471E-01
          2   -1    0    0  501    0  0.00000000000E+00  0.00000000000E+00  0.13168849458E+04  0.13168849458E+04  0.25500000000E-02 0. -1.
         -2   -1    0    0    0  501 -0.00000000000E+00 -0.00000000000E+00 -0.48010905694E+03  0.48010905695E+03  0.25500000000E-02 0.  1.
    8880023    1    1    2    0    0 -0.32674314443E+03  0.26723758885E+03  0.10423051311E+04  0.13032218552E+04  0.65864270000E+03 0. -1.
    8880022    1    1    2    0    0  0.32674314443E+03 -0.26723758885E+03 -0.20552924218E+03  0.49377214759E+03  0.15294330000E+03 0.  0.
<mgrwt>
<rscale>  0 0.68089675E+03</rscale>
<asrwt>0</asrwt>
<pdfrwt beam="1">  1        2 0.20259768E+00 0.78229612E+03</pdfrwt>
<pdfrwt beam="2">  1       -2 0.73862933E-01 0.78229612E+03</pdfrwt>
<totfact> 0.27147555E+01</totfact>
</mgrwt>
</event>
<event>
 4    1  0.8468429E-007  0.8461898E+03  0.7818608E-02  0.9618617E-01
          2   -1    0    0  501    0  0.00000000000E+00  0.00000000000E+00  0.41786595760E+04  0.41786595760E+04  0.25500000000E-02 0. -1.
         -2   -1    0    0    0  501 -0.00000000000E+00 -0.00000000000E+00 -0.14764474007E+03  0.14764474009E+03  0.25500000000E-02 0.  1.
    8880023    1    1    2    0    0  0.52889359083E+03  0.49985299270E+02  0.33173150590E+04  0.34235385739E+04  0.65864270000E+03 0.  0.
    8880022    1    1    2    0    0 -0.52889359083E+03 -0.49985299270E+02  0.71369977700E+03  0.90276574218E+03  0.15294330000E+03 0.  0.
<mgrwt>
<rscale>  0 0.76076113E+03</rscale>
<asrwt>0</asrwt>
<pdfrwt beam="1">  1        2 0.64287076E+00 0.84618979E+03</pdfrwt>
<pdfrwt beam="2">  1       -2 0.22714573E-01 0.84618979E+03</pdfrwt>
<totfact> 0.45092798E+00</totfact>
</mgrwt>
</event>
<event>
 4    1  0.8468429E-007  0.7784291E+03  0.7818608E-02  0.9759540E-01
         -2   -1    0    0    0  501 -0.00000000000E+00  0.00000000000E+00  0.18358182403E+03  0.18358182404E+03  0.25500000000E-02 0.  1.
          2   -1    0    0  501    0  0.00000000000E+00 -0.00000000000E+00 -0.24309932988E+04  0.24309932988E+04  0.25500000000E-02 0. -1.
    8880023    1    1    2    0    0 -0.13564334761E+03 -0.39210012998E+03 -0.86752778560E+03  0.11655712311E+04  0.65864270000E+03 0.  1.
    8880022    1    1    2    0    0  0.13564334761E+03  0.39210012998E+03 -0.13798836892E+04  0.14490038918E+04  0.15294330000E+03 0.  0.
<mgrwt>
<rscale>  0 0.67579796E+03</rscale>
<asrwt>0</asrwt>
<pdfrwt beam="1">  1        2 0.37399895E+00 0.77842908E+03</pdfrwt>
<pdfrwt beam="2">  1       -2 0.28243359E-01 0.77842908E+03</pdfrwt>
<totfact> 0.45316907E+01</totfact>
</mgrwt>
</event>
<event>
 4    1  0.8468429E-007  0.7886610E+03  0.7818608E-02  0.9735872E-01
         -2   -1    0    0    0  501 -0.00000000000E+00  0.00000000000E+00  0.44578468327E+03  0.44578468328E+03  0.25500000000E-02 0.  1.
          2   -1    0    0  501    0  0.00000000000E+00 -0.00000000000E+00 -0.10246779678E+04  0.10246779678E+04  0.25500000000E-02 0. -1.
    8880023    1    1    2    0    0 -0.41671918188E+03  0.12050363639E+03 -0.62763215288E+03  0.10079227790E+04  0.65864270000E+03 0. -1.
    8880022    1    1    2    0    0  0.41671918188E+03 -0.12050363639E+03  0.48738868337E+02  0.46253987205E+03  0.15294330000E+03 0.  0.
<mgrwt>
<rscale>  0 0.68920583E+03</rscale>
<asrwt>0</asrwt>
<pdfrwt beam="1">  1        2 0.15764276E+00 0.78866102E+03</pdfrwt>
<pdfrwt beam="2">  1       -2 0.68582259E-01 0.78866102E+03</pdfrwt>
<totfact> 0.47798561E+01</totfact>
</mgrwt>
</event>
<event>
 4    1  0.8468429E-007  0.6626314E+03  0.7818608E-02  0.1021609E+00
         -2   -1    0    0    0  501 -0.00000000000E+00  0.00000000000E+00  0.19129974166E+03  0.19129974168E+03  0.25500000000E-02 0.  1.
          2   -1    0    0  501    0  0.00000000000E+00 -0.00000000000E+00 -0.96478830794E+03  0.96478830794E+03  0.25500000000E-02 0. -1.
    8880023    1    1    2    0    0  0.72593178274E+02  0.64746000639E+00 -0.72007353901E+03  0.97856338404E+03  0.65864270000E+03 0. -1.
    8880022    1    1    2    0    0 -0.72593178274E+02 -0.64746000639E+00 -0.53415027271E+02  0.17752466558E+03  0.15294330000E+03 0.  0.
<mgrwt>
<rscale>  0 0.47110426E+03</rscale>
<asrwt>0</asrwt>
<pdfrwt beam="1">  1        2 0.14842897E+00 0.66263142E+03</pdfrwt>
<pdfrwt beam="2">  1       -2 0.29430730E-01 0.66263142E+03</pdfrwt>
<totfact> 0.28564860E+02</totfact>
</mgrwt>
</event>
<event>
 4    1  0.8468429E-007  0.7104309E+03  0.7818608E-02  0.9956404E-01
         -2   -1    0    0    0  501 -0.00000000000E+00  0.00000000000E+00  0.28100126038E+03  0.28100126040E+03  0.25500000000E-02 0.  1.
          2   -1    0    0  501    0  0.00000000000E+00 -0.00000000000E+00 -0.25544558976E+04  0.25544558976E+04  0.25500000000E-02 0. -1.
    8880023    1    1    2    0    0 -0.20487673981E+03  0.17008040489E+03 -0.24002918797E+04  0.25032205529E+04  0.65864270000E+03 0.  0.
    8880022    1    1    2    0    0  0.20487673981E+03 -0.17008040489E+03  0.12683724249E+03  0.33223660505E+03  0.15294330000E+03 0.  0.
<mgrwt>
<rscale>  0 0.57603859E+03</rscale>
<asrwt>0</asrwt>
<pdfrwt beam="1">  1        2 0.39299320E+00 0.71043088E+03</pdfrwt>
<pdfrwt beam="2">  1       -2 0.43230965E-01 0.71043088E+03</pdfrwt>
<totfact> 0.17314001E+01</totfact>
</mgrwt>
</event>
<event>
 4    1  0.8468429E-007  0.7706769E+03  0.7818608E-02  0.9778211E-01
          2   -1    0    0  501    0  0.00000000000E+00  0.00000000000E+00  0.47642119405E+04  0.47642119405E+04  0.25500000000E-02 0. -1.
         -2   -1    0    0    0  501 -0.00000000000E+00 -0.00000000000E+00 -0.42673949429E+03  0.42673949429E+03  0.25500000000E-02 0.  1.
    8880023    1    1    2    0    0 -0.16229476238E+02 -0.39983652829E+03  0.46160503368E+04  0.46799426880E+04  0.65864270000E+03 0. -1.
    8880022    1    1    2    0    0  0.16229476238E+02  0.39983652829E+03 -0.27857789050E+03  0.51100874684E+03  0.15294330000E+03 0.  0.
<mgrwt>
<rscale>  0 0.66545079E+03</rscale>
<asrwt>0</asrwt>
<pdfrwt beam="1">  1        2 0.73295567E+00 0.77067688E+03</pdfrwt>
<pdfrwt beam="2">  1       -2 0.65652231E-01 0.77067688E+03</pdfrwt>
<totfact> 0.16133450E-01</totfact>
</mgrwt>
</event>
<event>
 4    1  0.8468429E-007  0.6793069E+03  0.7818608E-02  0.1009718E+00
          2   -1    0    0  501    0  0.00000000000E+00  0.00000000000E+00  0.47457793644E+04  0.47457793644E+04  0.25500000000E-02 0. -1.
         -2   -1    0    0    0  501 -0.00000000000E+00 -0.00000000000E+00 -0.43513224554E+03  0.43513224555E+03  0.25500000000E-02 0.  1.
    8880023    1    1    2    0    0 -0.10513287397E+02  0.16594327495E+03  0.46902390061E+04  0.47391771269E+04  0.65864270000E+03 0. -1.
    8880022    1    1    2    0    0  0.10513287397E+02 -0.16594327495E+03 -0.37959188719E+03  0.44173448308E+03  0.15294330000E+03 0.  0.
<mgrwt>
<rscale>  0 0.51586692E+03</rscale>
<asrwt>0</asrwt>
<pdfrwt beam="1">  1        2 0.73011992E+00 0.67930693E+03</pdfrwt>
<pdfrwt beam="2">  1       -2 0.66943421E-01 0.67930693E+03</pdfrwt>
<totfact> 0.16672248E-01</totfact>
</mgrwt>
</event>
<event>
 4    1  0.8468429E-007  0.7857533E+03  0.7818608E-02  0.9742492E-01
          2   -1    0    0  501    0  0.00000000000E+00  0.00000000000E+00  0.76755133473E+03  0.76755133473E+03  0.25500000000E-02 0. -1.
         -2   -1    0    0    0  501 -0.00000000000E+00 -0.00000000000E+00 -0.10363618345E+04  0.10363618345E+04  0.25500000000E-02 0.  1.
    8880023    1    1    2    0    0 -0.15134485706E+03 -0.40086510870E+03  0.48504771698E+03  0.92340651673E+03  0.65864270000E+03 0. -1.
    8880022    1    1    2    0    0  0.15134485706E+03  0.40086510870E+03 -0.75385821679E+03  0.88050665254E+03  0.15294330000E+03 0.  0.
<mgrwt>
<rscale>  0 0.68542238E+03</rscale>
<asrwt>0</asrwt>
<pdfrwt beam="1">  1        2 0.11808482E+00 0.78575334E+03</pdfrwt>
<pdfrwt beam="2">  1       -2 0.15944028E+00 0.78575334E+03</pdfrwt>
<totfact> 0.93693707E+00</totfact>
</mgrwt>
</event>
<event>
 4    1  0.8468429E-007  0.1067131E+04  0.7818608E-02  0.9298566E-01
          2   -1    0    0  501    0  0.00000000000E+00  0.00000000000E+00  0.10169896836E+04  0.10169896836E+04  0.25500000000E-02 0. -1.
         -2   -1    0    0    0  501 -0.00000000000E+00 -0.00000000000E+00 -0.16340656632E+04  0.16340656632E+04  0.25500000000E-02 0.  1.
    8880023    1    1    2    0    0 -0.69355063951E+03 -0.47322819097E+03  0.55370986277E+03  0.12022321858E+04  0.65864270000E+03 0. -1.
    8880022    1    1    2    0    0  0.69355063951E+03  0.47322819097E+03 -0.11707858424E+04  0.14488231610E+04  0.15294330000E+03 0.  0.
<mgrwt>
<rscale>  0 0.10091497E+04</rscale>
<asrwt>0</asrwt>
<pdfrwt beam="1">  1        2 0.15645995E+00 0.10671306E+04</pdfrwt>
<pdfrwt beam="2">  1       -2 0.25139472E+00 0.10671306E+04</pdfrwt>
<totfact> 0.15302382E+00</totfact>
</mgrwt>
</event>
<event>
 4    1  0.8468429E-007  0.7265284E+03  0.7818608E-02  0.9901085E-01
          2   -1    0    0  501    0  0.00000000000E+00  0.00000000000E+00  0.14296981417E+04  0.14296981417E+04  0.25500000000E-02 0. -1.
         -2   -1    0    0    0  501 -0.00000000000E+00 -0.00000000000E+00 -0.33846594945E+03  0.33846594946E+03  0.25500000000E-02 0.  1.
    8880023    1    1    2    0    0  0.21610808682E+03  0.21755584769E+03  0.12050179153E+04  0.14070933283E+04  0.65864270000E+03 0.  0.
    8880022    1    1    2    0    0 -0.21610808682E+03 -0.21755584769E+03 -0.11378572300E+03  0.36107076291E+03  0.15294330000E+03 0.  0.
<mgrwt>
<rscale>  0 0.60208729E+03</rscale>
<asrwt>0</asrwt>
<pdfrwt beam="1">  1        2 0.21995356E+00 0.72652836E+03</pdfrwt>
<pdfrwt beam="2">  1       -2 0.52071684E-01 0.72652836E+03</pdfrwt>
<totfact> 0.49578703E+01</totfact>
</mgrwt>
</event>
<event>
 4    1  0.8468429E-007  0.6819312E+03  0.7818608E-02  0.1008252E+00
         -2   -1    0    0    0  501 -0.00000000000E+00  0.00000000000E+00  0.29769593309E+03  0.29769593310E+03  0.25500000000E-02 0.  1.
          2   -1    0    0  501    0  0.00000000000E+00 -0.00000000000E+00 -0.16675381762E+04  0.16675381762E+04  0.25500000000E-02 0. -1.
    8880023    1    1    2    0    0  0.33133698708E+00  0.17669145982E+03 -0.15346060573E+04  0.16792992405E+04  0.65864270000E+03 0.  0.
    8880022    1    1    2    0    0 -0.33133698708E+00 -0.17669145982E+03  0.16476381415E+03  0.28593486885E+03  0.15294330000E+03 0.  0.
<mgrwt>
<rscale>  0 0.52175435E+03</rscale>
<asrwt>0</asrwt>
<pdfrwt beam="1">  1        2 0.25654433E+00 0.68193122E+03</pdfrwt>
<pdfrwt beam="2">  1       -2 0.45799376E-01 0.68193122E+03</pdfrwt>
<totfact> 0.47728031E+01</totfact>
</mgrwt>
</event>
<event>
 4    1  0.8468429E-007  0.7049591E+03  0.7818608E-02  0.9977219E-01
         -2   -1    0    0    0  501 -0.00000000000E+00  0.00000000000E+00  0.10958969009E+04  0.10958969009E+04  0.25500000000E-02 0.  1.
          2   -1    0    0  501    0  0.00000000000E+00 -0.00000000000E+00 -0.51128099079E+03  0.51128099079E+03  0.25500000000E-02 0. -1.
    8880023    1    1    2    0    0 -0.18056880090E+03 -0.17479125629E+03 -0.22962956941E+03  0.74141555186E+03  0.65864270000E+03 0. -1.
    8880022    1    1    2    0    0  0.18056880090E+03  0.17479125629E+03  0.81424547953E+03  0.86576233984E+03  0.15294330000E+03 0.  0.
<mgrwt>
<rscale>  0 0.56660514E+03</rscale>
<asrwt>0</asrwt>
<pdfrwt beam="1">  1        2 0.78658615E-01 0.70495906E+03</pdfrwt>
<pdfrwt beam="2">  1       -2 0.16859952E+00 0.70495906E+03</pdfrwt>
<totfact> 0.13346559E+01</totfact>
</mgrwt>
</event>
<event>
 4    1  0.8468429E-007  0.7020033E+03  0.7818608E-02  0.9988990E-01
          2   -1    0    0  501    0  0.00000000000E+00  0.00000000000E+00  0.98495155518E+03  0.98495155518E+03  0.25500000000E-02 0. -1.
         -2   -1    0    0    0  501 -0.00000000000E+00 -0.00000000000E+00 -0.42681537774E+03  0.42681537774E+03  0.25500000000E-02 0.  1.
    8880023    1    1    2    0    0 -0.23119213810E+03 -0.74489427806E+02  0.77970175242E+03  0.10491632421E+04  0.65864270000E+03 0. -1.
    8880022    1    1    2    0    0  0.23119213810E+03  0.74489427806E+02 -0.22156557498E+03  0.36260369083E+03  0.15294330000E+03 0.  0.
<mgrwt>
<rscale>  0 0.56135654E+03</rscale>
<asrwt>0</asrwt>
<pdfrwt beam="1">  1        2 0.15153101E+00 0.70200334E+03</pdfrwt>
<pdfrwt beam="2">  1       -2 0.65663905E-01 0.70200334E+03</pdfrwt>
<totfact> 0.56081736E+01</totfact>
</mgrwt>
</event>
<event>
 4    1  0.8468429E-007  0.6750117E+03  0.7818608E-02  0.1012299E+00
         -2   -1    0    0    0  501 -0.00000000000E+00  0.00000000000E+00  0.93828743783E+03  0.93828743784E+03  0.25500000000E-02 0.  1.
          2   -1    0    0  501    0  0.00000000000E+00 -0.00000000000E+00 -0.35356073858E+03  0.35356073859E+03  0.25500000000E-02 0. -1.
    8880023    1    1    2    0    0 -0.10734676594E+03 -0.10152454181E+03  0.57318555222E+01  0.67503601473E+03  0.65864270000E+03 0. -1.
    8880022    1    1    2    0    0  0.10734676594E+03  0.10152454181E+03  0.57899484373E+03  0.61681216170E+03  0.15294330000E+03 0.  0.
<mgrwt>
<rscale>  0 0.50571105E+03</rscale>
<asrwt>0</asrwt>
<pdfrwt beam="1">  1        2 0.54393960E-01 0.67501168E+03</pdfrwt>
<pdfrwt beam="2">  1       -2 0.14435191E+00 0.67501168E+03</pdfrwt>
<totfact> 0.30831611E+01</totfact>
</mgrwt>
</event>
<event>
 4    1  0.8468429E-007  0.6737328E+03  0.7818608E-02  0.1013117E+00
          2   -1    0    0  501    0  0.00000000000E+00  0.00000000000E+00  0.32793517807E+04  0.32793517807E+04  0.25500000000E-02 0. -1.
         -2   -1    0    0    0  501 -0.00000000000E+00 -0.00000000000E+00 -0.80396036603E+02  0.80396036643E+02  0.25500000000E-02 0.  1.
    8880023    1    1    2    0    0 -0.56066715112E+02 -0.13023899209E+03  0.29883235687E+04  0.30633304799E+04  0.65864270000E+03 0. -1.
    8880022    1    1    2    0    0  0.56066715112E+02  0.13023899209E+03  0.21063217538E+03  0.29641733742E+03  0.15294330000E+03 0.  0.
<mgrwt>
<rscale>  0 0.50254341E+03</rscale>
<asrwt>0</asrwt>
<pdfrwt beam="1">  1        2 0.50451555E+00 0.67373279E+03</pdfrwt>
<pdfrwt beam="2">  1       -2 0.12368624E-01 0.67373279E+03</pdfrwt>
<totfact> 0.60035657E+01</totfact>
</mgrwt>
</event>
<event>
 4    1  0.8468429E-007  0.7557944E+03  0.7818608E-02  0.9816119E-01
          2   -1    0    0  501    0  0.00000000000E+00  0.00000000000E+00  0.26371215061E+04  0.26371215061E+04  0.25500000000E-02 0. -1.
         -2   -1    0    0    0  501 -0.00000000000E+00 -0.00000000000E+00 -0.37685334090E+03  0.37685334091E+03  0.25500000000E-02 0.  1.
    8880023    1    1    2    0    0 -0.24077625047E+03 -0.28185419108E+03  0.24546269968E+04  0.25683494481E+04  0.65864270000E+03 0. -1.
    8880022    1    1    2    0    0  0.24077625047E+03  0.28185419108E+03 -0.19435883153E+03  0.44562539899E+03  0.15294330000E+03 0.  0.
<mgrwt>
<rscale>  0 0.64504610E+03</rscale>
<asrwt>0</asrwt>
<pdfrwt beam="1">  1        2 0.40571098E+00 0.75579441E+03</pdfrwt>
<pdfrwt beam="2">  1       -2 0.57977440E-01 0.75579441E+03</pdfrwt>
<totfact> 0.84752779E+00</totfact>
</mgrwt>
</event>
<event>
 4    1  0.8468429E-007  0.7030960E+03  0.7818608E-02  0.9984592E-01
         -2   -1    0    0    0  501 -0.00000000000E+00  0.00000000000E+00  0.57256736778E+03  0.57256736779E+03  0.25500000000E-02 0.  1.
          2   -1    0    0  501    0  0.00000000000E+00 -0.00000000000E+00 -0.13829439883E+04  0.13829439883E+04  0.25500000000E-02 0. -1.
    8880023    1    1    2    0    0 -0.15033344959E+03 -0.19476548272E+03 -0.12469796836E+04  0.14315384302E+04  0.65864270000E+03 0. -1.
    8880022    1    1    2    0    0  0.15033344959E+03  0.19476548272E+03  0.43660306315E+03  0.52397292591E+03  0.15294330000E+03 0.  0.
<mgrwt>
<rscale>  0 0.56331022E+03</rscale>
<asrwt>0</asrwt>
<pdfrwt beam="1">  1        2 0.21276061E+00 0.70309597E+03</pdfrwt>
<pdfrwt beam="2">  1       -2 0.88087288E-01 0.70309597E+03</pdfrwt>
<totfact> 0.16897738E+01</totfact>
</mgrwt>
</event>
<event>
 4    1  0.8468429E-007  0.6853546E+03  0.7818608E-02  0.1006444E+00
          2   -1    0    0  501    0  0.00000000000E+00  0.00000000000E+00  0.88168242870E+03  0.88168242870E+03  0.25500000000E-02 0. -1.
         -2   -1    0    0    0  501 -0.00000000000E+00 -0.00000000000E+00 -0.28138421776E+03  0.28138421777E+03  0.25500000000E-02 0.  1.
    8880023    1    1    2    0    0  0.15846777771E+03 -0.10386888468E+03  0.61263135327E+03  0.91925413410E+03  0.65864270000E+03 0.  0.
    8880022    1    1    2    0    0 -0.15846777771E+03  0.10386888468E+03 -0.12333142337E+02  0.24381251238E+03  0.15294330000E+03 0.  0.
<mgrwt>
<rscale>  0 0.52912884E+03</rscale>
<asrwt>0</asrwt>
<pdfrwt beam="1">  1        2 0.13564345E+00 0.68535464E+03</pdfrwt>
<pdfrwt beam="2">  1       -2 0.43289879E-01 0.68535464E+03</pdfrwt>
<totfact> 0.15499290E+02</totfact>
</mgrwt>
</event>
<event>
 4    1  0.8468429E-007  0.8398885E+03  0.7818608E-02  0.9630391E-01
          2   -1    0    0  501    0  0.00000000000E+00  0.00000000000E+00  0.99722628384E+03  0.99722628385E+03  0.25500000000E-02 0. -1.
         -2   -1    0    0    0  501 -0.00000000000E+00 -0.00000000000E+00 -0.10703387417E+04  0.10703387417E+04  0.25500000000E-02 0.  1.
    8880023    1    1    2    0    0  0.50084545591E+03 -0.14407043839E+03  0.72002980713E+03  0.11062800691E+04  0.65864270000E+03 0. -1.
    8880022    1    1    2    0    0 -0.50084545591E+03  0.14407043839E+03 -0.79314226498E+03  0.96128495642E+03  0.15294330000E+03 0.  0.
<mgrwt>
<rscale>  0 0.75316979E+03</rscale>
<asrwt>0</asrwt>
<pdfrwt beam="1">  1        2 0.15341943E+00 0.83988849E+03</pdfrwt>
<pdfrwt beam="2">  1       -2 0.16466750E+00 0.83988849E+03</pdfrwt>
<totfact> 0.59371525E+00</totfact>
</mgrwt>
</event>
<event>
 4    1  0.8468429E-007  0.8681727E+03  0.7818608E-02  0.9579188E-01
         -2   -1    0    0    0  501 -0.00000000000E+00  0.00000000000E+00  0.50298755634E+03  0.50298755635E+03  0.25500000000E-02 0.  1.
          2   -1    0    0  501    0  0.00000000000E+00 -0.00000000000E+00 -0.14952368936E+04  0.14952368936E+04  0.25500000000E-02 0. -1.
    8880023    1    1    2    0    0 -0.47316016551E+03  0.30989198687E+03 -0.11011865561E+04  0.14022608970E+04  0.65864270000E+03 0. -1.
    8880022    1    1    2    0    0  0.47316016551E+03 -0.30989198687E+03  0.10893721884E+03  0.59596355292E+03  0.15294330000E+03 0.  0.
<mgrwt>
<rscale>  0 0.78689111E+03</rscale>
<asrwt>0</asrwt>
<pdfrwt beam="1">  1        2 0.23003644E+00 0.86817267E+03</pdfrwt>
<pdfrwt beam="2">  1       -2 0.77382702E-01 0.86817267E+03</pdfrwt>
<totfact> 0.19218140E+01</totfact>
</mgrwt>
</event>
<event>
 4    1  0.8468429E-007  0.6699473E+03  0.7818608E-02  0.1015701E+00
         -2   -1    0    0    0  501 -0.00000000000E+00  0.00000000000E+00  0.92384295256E+03  0.92384295257E+03  0.25500000000E-02 0.  1.
          2   -1    0    0  501    0  0.00000000000E+00 -0.00000000000E+00 -0.31041399108E+03  0.31041399109E+03  0.25500000000E-02 0. -1.
    8880023    1    1    2    0    0  0.11778146525E+03  0.33863286556E+02  0.90779919599E+02  0.67606981577E+03  0.65864270000E+03 0.  0.
    8880022    1    1    2    0    0 -0.11778146525E+03 -0.33863286556E+02  0.52264904189E+03  0.55818712788E+03  0.15294330000E+03 0.  1.
<mgrwt>
<rscale>  0 0.49270529E+03</rscale>
<asrwt>0</asrwt>
<pdfrwt beam="1">  1        2 0.47755999E-01 0.66994731E+03</pdfrwt>
<pdfrwt beam="2">  1       -2 0.14212969E+00 0.66994731E+03</pdfrwt>
<totfact> 0.37115721E+01</totfact>
</mgrwt>
</event>
<event>
 4    1  0.8468429E-007  0.6707232E+03  0.7818608E-02  0.1015150E+00
         -2   -1    0    0    0  501 -0.00000000000E+00  0.00000000000E+00  0.78019821177E+03  0.78019821177E+03  0.25500000000E-02 0.  1.
          2   -1    0    0  501    0  0.00000000000E+00 -0.00000000000E+00 -0.11177307467E+04  0.11177307467E+04  0.25500000000E-02 0. -1.
    8880023    1    1    2    0    0 -0.30093697355E+02 -0.12310042598E+03 -0.10012417981E+04  0.12051367931E+04  0.65864270000E+03 0. -1.
    8880022    1    1    2    0    0  0.30093697355E+02  0.12310042598E+03  0.66370926314E+03  0.69279216543E+03  0.15294330000E+03 0.  0.
<mgrwt>
<rscale>  0 0.49478295E+03</rscale>
<asrwt>0</asrwt>
<pdfrwt beam="1">  1        2 0.17195858E+00 0.67072316E+03</pdfrwt>
<pdfrwt beam="2">  1       -2 0.12003049E+00 0.67072316E+03</pdfrwt>
<totfact> 0.11599743E+01</totfact>
</mgrwt>
</event>
<event>
 4    1  0.8468429E-007  0.8933924E+03  0.7818608E-02  0.9536723E-01
         -2   -1    0    0    0  501 -0.00000000000E+00  0.00000000000E+00  0.11343748666E+04  0.11343748666E+04  0.25500000000E-02 0.  1.
          2   -1    0    0  501    0  0.00000000000E+00 -0.00000000000E+00 -0.64774216147E+03  0.64774216147E+03  0.25500000000E-02 0. -1.
    8880023    1    1    2    0    0 -0.38811924025E+03 -0.46228039205E+03  0.68808767330E+03  0.11276588837E+04  0.65864270000E+03 0.  0.
    8880022    1    1    2    0    0  0.38811924025E+03  0.46228039205E+03 -0.20145496819E+03  0.65445814438E+03  0.15294330000E+03 0.  0.
<mgrwt>
<rscale>  0 0.81629670E+03</rscale>
<asrwt>0</asrwt>
<pdfrwt beam="1">  1        2 0.99652642E-01 0.89339236E+03</pdfrwt>
<pdfrwt beam="2">  1       -2 0.17451921E+00 0.89339236E+03</pdfrwt>
<totfact> 0.89624118E+00</totfact>
</mgrwt>
</event>
<event>
 4    1  0.8468429E-007  0.8967860E+03  0.7818608E-02  0.9531211E-01
          2   -1    0    0  501    0  0.00000000000E+00  0.00000000000E+00  0.13241062432E+04  0.13241062432E+04  0.25500000000E-02 0. -1.
         -2   -1    0    0    0  501 -0.00000000000E+00 -0.00000000000E+00 -0.65586915448E+03  0.65586915448E+03  0.25500000000E-02 0.  1.
    8880023    1    1    2    0    0 -0.42813844023E+03  0.43256484019E+03  0.93727761217E+03  0.12971948171E+04  0.65864270000E+03 0.  0.
    8880022    1    1    2    0    0  0.42813844023E+03 -0.43256484019E+03 -0.26904052344E+03  0.68278058060E+03  0.15294330000E+03 0.  0.
<mgrwt>
<rscale>  0 0.82021360E+03</rscale>
<asrwt>0</asrwt>
<pdfrwt beam="1">  1        2 0.20370865E+00 0.89678597E+03</pdfrwt>
<pdfrwt beam="2">  1       -2 0.10090295E+00 0.89678597E+03</pdfrwt>
<totfact> 0.12999647E+01</totfact>
</mgrwt>
</event>
<event>
 4    1  0.8468429E-007  0.7662501E+03  0.7818608E-02  0.9789187E-01
         -2   -1    0    0    0  501 -0.00000000000E+00  0.00000000000E+00  0.79842632101E+03  0.79842632102E+03  0.25500000000E-02 0.  1.
          2   -1    0    0  501    0  0.00000000000E+00 -0.00000000000E+00 -0.95480219879E+03  0.95480219879E+03  0.25500000000E-02 0. -1.
    8880023    1    1    2    0    0  0.37121028868E+03  0.12462722764E+03 -0.71909249104E+03  0.10508250288E+04  0.65864270000E+03 0.  0.
    8880022    1    1    2    0    0 -0.37121028868E+03 -0.12462722764E+03  0.56271661326E+03  0.70240349098E+03  0.15294330000E+03 0.  0.
<mgrwt>
<rscale>  0 0.65946057E+03</rscale>
<asrwt>0</asrwt>
<pdfrwt beam="1">  1        2 0.14689265E+00 0.76625011E+03</pdfrwt>
<pdfrwt beam="2">  1       -2 0.12283482E+00 0.76625011E+03</pdfrwt>
<totfact> 0.13700192E+01</totfact>
</mgrwt>
</event>
<event>
 4    1  0.8468429E-007  0.8153700E+03  0.7818608E-02  0.9678498E-01
         -2   -1    0    0    0  501 -0.00000000000E+00  0.00000000000E+00  0.98059622477E+03  0.98059622477E+03  0.25500000000E-02 0.  1.
          2   -1    0    0  501    0  0.00000000000E+00 -0.00000000000E+00 -0.61707786908E+03  0.61707786909E+03  0.25500000000E-02 0. -1.
    8880023    1    1    2    0    0 -0.47197721804E+03 -0.90860302245E+02 -0.20187971626E+03  0.83999030648E+03  0.65864270000E+03 0. -1.
    8880022    1    1    2    0    0  0.47197721804E+03  0.90860302245E+02  0.56539807195E+03  0.75768378738E+03  0.15294330000E+03 0.  0.
<mgrwt>
<rscale>  0 0.72311568E+03</rscale>
<asrwt>0</asrwt>
<pdfrwt beam="1">  1        2 0.94935057E-01 0.81537004E+03</pdfrwt>
<pdfrwt beam="2">  1       -2 0.15086096E+00 0.81537004E+03</pdfrwt>
<totfact> 0.14262914E+01</totfact>
</mgrwt>
</event>
<event>
 4    1  0.8468429E-007  0.1037889E+04  0.7818608E-02  0.9333584E-01
          2   -1    0    0  501    0  0.00000000000E+00  0.00000000000E+00  0.14408919708E+04  0.14408919708E+04  0.25500000000E-02 0. -1.
         -2   -1    0    0    0  501 -0.00000000000E+00 -0.00000000000E+00 -0.62452490938E+03  0.62452490938E+03  0.25500000000E-02 0.  1.
    8880023    1    1    2    0    0 -0.56936097361E+03 -0.56500520292E+03  0.67127647139E+03  0.12360522258E+04  0.65864270000E+03 0. -1.
    8880022    1    1    2    0    0  0.56936097361E+03  0.56500520292E+03  0.14509059001E+03  0.82936465437E+03  0.15294330000E+03 0.  1.
<mgrwt>
<rscale>  0 0.97748948E+03</rscale>
<asrwt>0</asrwt>
<pdfrwt beam="1">  1        2 0.22167569E+00 0.10378887E+04</pdfrwt>
<pdfrwt beam="2">  1       -2 0.96080756E-01 0.10378887E+04</pdfrwt>
<totfact> 0.12345012E+01</totfact>
</mgrwt>
</event>
<event>
 4    1  0.8468429E-007  0.6711188E+03  0.7818608E-02  0.1014873E+00
         -2   -1    0    0    0  501 -0.00000000000E+00  0.00000000000E+00  0.24953532487E+03  0.24953532488E+03  0.25500000000E-02 0.  1.
          2   -1    0    0  501    0  0.00000000000E+00 -0.00000000000E+00 -0.19896306466E+04  0.19896306466E+04  0.25500000000E-02 0. -1.
    8880023    1    1    2    0    0 -0.39840680089E+02 -0.12248635948E+03 -0.18792934548E+04  0.19955310780E+04  0.65864270000E+03 0. -1.
    8880022    1    1    2    0    0  0.39840680089E+02  0.12248635948E+03  0.13919813304E+03  0.24363489344E+03  0.15294330000E+03 0.  0.
<mgrwt>
<rscale>  0 0.49582953E+03</rscale>
<asrwt>0</asrwt>
<pdfrwt beam="1">  1        2 0.30609701E+00 0.67111876E+03</pdfrwt>
<pdfrwt beam="2">  1       -2 0.38390051E-01 0.67111876E+03</pdfrwt>
<totfact> 0.45162459E+01</totfact>
</mgrwt>
</event>
<event>
 4    1  0.9710028E-007  0.7601179E+03  0.7818608E-02  0.9804802E-01
         -2   -1    0    0    0  501 -0.00000000000E+00  0.00000000000E+00  0.94115584108E+03  0.94115584109E+03  0.25500000000E-02 0.  1.
          2   -1    0    0  501    0  0.00000000000E+00 -0.00000000000E+00 -0.19377161218E+04  0.19377161218E+04  0.25500000000E-02 0. -1.
    8880023    1    1    2    0    0 -0.24268345237E+03 -0.29167394410E+03 -0.18128764455E+04  0.19657823279E+04  0.65864270000E+03 0. -1.
    8880022    1    1    2    0    0  0.24268345237E+03  0.29167394410E+03  0.81631616476E+03  0.91308963502E+03  0.15294330000E+03 0.  0.
<mgrwt>
<rscale>  0 0.65105451E+03</rscale>
<asrwt>0</asrwt>
<pdfrwt beam="1">  1        2 0.29811017E+00 0.76011786E+03</pdfrwt>
<pdfrwt beam="2">  1       -2 0.14479321E+00 0.76011786E+03</pdfrwt>
<totfact> 0.24613034E+00</totfact>
</mgrwt>
</event>
<event>
 4    1  0.8468429E-007  0.7093979E+03  0.7818608E-02  0.9960244E-01
          2   -1    0    0  501    0  0.00000000000E+00  0.00000000000E+00  0.70629123403E+03  0.70629123404E+03  0.25500000000E-02 0. -1.
         -2   -1    0    0    0  501 -0.00000000000E+00 -0.00000000000E+00 -0.52189480860E+03  0.52189480861E+03  0.25500000000E-02 0.  1.
    8880023    1    1    2    0    0 -0.66652267246E+02  0.25493643765E+03  0.43632783445E+03  0.83284290076E+03  0.65864270000E+03 0. -1.
    8880022    1    1    2    0    0  0.66652267246E+02 -0.25493643765E+03 -0.25193140902E+03  0.39534314188E+03  0.15294330000E+03 0.  0.
<mgrwt>
<rscale>  0 0.57428379E+03</rscale>
<asrwt>0</asrwt>
<pdfrwt beam="1">  1        2 0.10866019E+00 0.70939786E+03</pdfrwt>
<pdfrwt beam="2">  1       -2 0.80291509E-01 0.70939786E+03</pdfrwt>
<totfact> 0.56424685E+01</totfact>
</mgrwt>
</event>
<event>
 4    1  0.8468429E-007  0.7045855E+03  0.7818608E-02  0.9978685E-01
         -2   -1    0    0    0  501 -0.00000000000E+00  0.00000000000E+00  0.47796838980E+03  0.47796838981E+03  0.25500000000E-02 0.  1.
          2   -1    0    0  501    0  0.00000000000E+00 -0.00000000000E+00 -0.75337323536E+03  0.75337323537E+03  0.25500000000E-02 0. -1.
    8880023    1    1    2    0    0 -0.21339882628E+03  0.13073436032E+03 -0.49827927734E+03  0.86297333477E+03  0.65864270000E+03 0. -1.
    8880022    1    1    2    0    0  0.21339882628E+03 -0.13073436032E+03  0.22287443178E+03  0.36836829041E+03  0.15294330000E+03 0.  1.
<mgrwt>
<rscale>  0 0.56594808E+03</rscale>
<asrwt>0</asrwt>
<pdfrwt beam="1">  1        2 0.11590357E+00 0.70458551E+03</pdfrwt>
<pdfrwt beam="2">  1       -2 0.73533599E-01 0.70458551E+03</pdfrwt>
<totfact> 0.63217431E+01</totfact>
</mgrwt>
</event>
<event>
 4    1  0.8468429E-007  0.1367075E+04  0.7818608E-02  0.9009698E-01
          2   -1    0    0  501    0  0.00000000000E+00  0.00000000000E+00  0.28731824974E+04  0.28731824974E+04  0.25500000000E-02 0. -1.
         -2   -1    0    0    0  501 -0.00000000000E+00 -0.00000000000E+00 -0.68497859565E+03  0.68497859566E+03  0.25500000000E-02 0.  1.
    8880023    1    1    2    0    0  0.11108658557E+04  0.44839878154E+03  0.44536343633E+03  0.14377910882E+04  0.65864270000E+03 0.  0.
    8880022    1    1    2    0    0 -0.11108658557E+04 -0.44839878154E+03  0.17428404655E+04  0.21203700049E+04  0.15294330000E+03 0.  0.
<mgrwt>
<rscale>  0 0.13253535E+04</rscale>
<asrwt>0</asrwt>
<pdfrwt beam="1">  1        2 0.44202807E+00 0.13670752E+04</pdfrwt>
<pdfrwt beam="2">  1       -2 0.10538132E+00 0.13670752E+04</pdfrwt>
<totfact> 0.14722486E+00</totfact>
</mgrwt>
</event>
<event>
 4    1  0.8468429E-007  0.7785767E+03  0.7818608E-02  0.9759191E-01
         -2   -1    0    0    0  501 -0.00000000000E+00  0.00000000000E+00  0.58782198778E+03  0.58782198779E+03  0.25500000000E-02 0.  1.
          2   -1    0    0  501    0  0.00000000000E+00 -0.00000000000E+00 -0.91694297567E+03  0.91694297567E+03  0.25500000000E-02 0. -1.
    8880023    1    1    2    0    0  0.19838296252E+02  0.41470212674E+03 -0.60267247178E+03  0.98457895896E+03  0.65864270000E+03 0. -1.
    8880022    1    1    2    0    0 -0.19838296252E+02 -0.41470212674E+03  0.27355148390E+03  0.52018600450E+03  0.15294330000E+03 0.  0.
<mgrwt>
<rscale>  0 0.67599328E+03</rscale>
<asrwt>0</asrwt>
<pdfrwt beam="1">  1        2 0.14106815E+00 0.77857666E+03</pdfrwt>
<pdfrwt beam="2">  1       -2 0.90434152E-01 0.77857666E+03</pdfrwt>
<totfact> 0.30224568E+01</totfact>
</mgrwt>
</event>
<event>
 4    1  0.8468429E-007  0.9651278E+03  0.7818608E-02  0.9428675E-01
         -2   -1    0    0    0  501 -0.00000000000E+00  0.00000000000E+00  0.18247583720E+04  0.18247583720E+04  0.25500000000E-02 0.  1.
          2   -1    0    0  501    0  0.00000000000E+00 -0.00000000000E+00 -0.64839851881E+03  0.64839851881E+03  0.25500000000E-02 0. -1.
    8880023    1    1    2    0    0 -0.52686833628E+03 -0.46911742068E+03 -0.13670387490E+03  0.97476128043E+03  0.65864270000E+03 0.  0.
    8880022    1    1    2    0    0  0.52686833628E+03  0.46911742068E+03  0.13130637281E+04  0.14983956104E+04  0.15294330000E+03 0.  0.
<mgrwt>
<rscale>  0 0.89752975E+03</rscale>
<asrwt>0</asrwt>
<pdfrwt beam="1">  1        2 0.99753620E-01 0.96512777E+03</pdfrwt>
<pdfrwt beam="2">  1       -2 0.28073205E+00 0.96512777E+03</pdfrwt>
<totfact> 0.18929736E+00</totfact>
</mgrwt>
</event>
<event>
 4    1  0.8468429E-007  0.1037281E+04  0.7818608E-02  0.9334330E-01
         -2   -1    0    0    0  501 -0.00000000000E+00  0.00000000000E+00  0.12672136612E+04  0.12672136612E+04  0.25500000000E-02 0.  1.
          2   -1    0    0  501    0  0.00000000000E+00 -0.00000000000E+00 -0.13187099875E+04  0.13187099875E+04  0.25500000000E-02 0. -1.
    8880023    1    1    2    0    0 -0.81767694300E+02 -0.79715456532E+03 -0.92564138339E+03  0.13902386607E+04  0.65864270000E+03 0. -1.
    8880022    1    1    2    0    0  0.81767694300E+02  0.79715456532E+03  0.87414505702E+03  0.11956849880E+04  0.15294330000E+03 0.  0.
<mgrwt>
<rscale>  0 0.97682883E+03</rscale>
<asrwt>0</asrwt>
<pdfrwt beam="1">  1        2 0.20287846E+00 0.10372809E+04</pdfrwt>
<pdfrwt beam="2">  1       -2 0.19495595E+00 0.10372809E+04</pdfrwt>
<totfact> 0.22872685E+00</totfact>
</mgrwt>
</event>
<event>
 4    1  0.8468429E-007  0.1140329E+04  0.7818608E-02  0.9217430E-01
          2   -1    0    0  501    0  0.00000000000E+00  0.00000000000E+00  0.19965524928E+04  0.19965524928E+04  0.25500000000E-02 0. -1.
         -2   -1    0    0    0  501 -0.00000000000E+00 -0.00000000000E+00 -0.88090406838E+03  0.88090406838E+03  0.25500000000E-02 0.  1.
    8880023    1    1    2    0    0  0.93069514599E+03  0.18616062977E+02 -0.29737556163E+03  0.11784661402E+04  0.65864270000E+03 0.  0.
    8880022    1    1    2    0    0 -0.93069514599E+03 -0.18616062977E+02  0.14130239861E+04  0.16989904210E+04  0.15294330000E+03 0.  0.
<mgrwt>
<rscale>  0 0.10875324E+04</rscale>
<asrwt>0</asrwt>
<pdfrwt beam="1">  1        2 0.30716192E+00 0.11403290E+04</pdfrwt>
<pdfrwt beam="2">  1       -2 0.13552370E+00 0.11403290E+04</pdfrwt>
<totfact> 0.25719166E+00</totfact>
</mgrwt>
</event>
<event>
 4    1  0.8468429E-007  0.7192932E+03  0.7818608E-02  0.9924985E-01
         -2   -1    0    0    0  501 -0.00000000000E+00  0.00000000000E+00  0.95797119385E+03  0.95797119385E+03  0.25500000000E-02 0.  1.
          2   -1    0    0  501    0  0.00000000000E+00 -0.00000000000E+00 -0.28721174217E+03  0.28721174218E+03  0.25500000000E-02 0. -1.
    8880023    1    1    2    0    0  0.15920439910E+03 -0.24130161939E+03  0.50207864299E+03  0.87719193010E+03  0.65864270000E+03 0. -1.
    8880022    1    1    2    0    0 -0.15920439910E+03  0.24130161939E+03  0.16868080869E+03  0.36799100594E+03  0.15294330000E+03 0.  1.
<mgrwt>
<rscale>  0 0.59065551E+03</rscale>
<asrwt>0</asrwt>
<pdfrwt beam="1">  1        2 0.44186421E-01 0.71929321E+03</pdfrwt>
<pdfrwt beam="2">  1       -2 0.14738019E+00 0.71929321E+03</pdfrwt>
<totfact> 0.36671296E+01</totfact>
</mgrwt>
</event>
<event>
 4    1  0.8468429E-007  0.1241362E+04  0.7818608E-02  0.9117928E-01
         -2   -1    0    0    0  501 -0.00000000000E+00  0.00000000000E+00  0.15946788398E+04  0.15946788398E+04  0.25500000000E-02 0.  1.
          2   -1    0    0  501    0  0.00000000000E+00 -0.00000000000E+00 -0.11344463478E+04  0.11344463478E+04  0.25500000000E-02 0. -1.
    8880023    1    1    2    0    0  0.27368345653E+03 -0.10160047648E+04  0.94541565151E+03  0.15603811319E+04  0.65864270000E+03 0.  1.
    8880022    1    1    2    0    0 -0.27368345653E+03  0.10160047648E+04 -0.48518315958E+03  0.11687440557E+04  0.15294330000E+03 0.  0.
<mgrwt>
<rscale>  0 0.11942230E+04</rscale>
<asrwt>0</asrwt>
<pdfrwt beam="1">  1        2 0.17453021E+00 0.12413616E+04</pdfrwt>
<pdfrwt beam="2">  1       -2 0.24533521E+00 0.12413616E+04</pdfrwt>
<totfact> 0.13798598E+00</totfact>
</mgrwt>
</event>
<event>
 4    1  0.8468429E-007  0.1002763E+04  0.7818608E-02  0.9377952E-01
          2   -1    0    0  501    0  0.00000000000E+00  0.00000000000E+00  0.13440725751E+04  0.13440725751E+04  0.25500000000E-02 0. -1.
         -2   -1    0    0    0  501 -0.00000000000E+00 -0.00000000000E+00 -0.10198648996E+04  0.10198648996E+04  0.25500000000E-02 0.  1.
    8880023    1    1    2    0    0 -0.43677170294E+03 -0.61721464108E+03  0.94183833015E+03  0.13757154793E+04  0.65864270000E+03 0.  0.
    8880022    1    1    2    0    0  0.43677170294E+03  0.61721464108E+03 -0.61763065462E+03  0.98822199540E+03  0.15294330000E+03 0.  0.
<mgrwt>
<rscale>  0 0.93912596E+03</rscale>
<asrwt>0</asrwt>
<pdfrwt beam="1">  1        2 0.20678040E+00 0.10027630E+04</pdfrwt>
<pdfrwt beam="2">  1       -2 0.15690229E+00 0.10027630E+04</pdfrwt>
<totfact> 0.41042068E+00</totfact>
</mgrwt>
</event>
<event>
 4    1  0.8468429E-007  0.1352711E+04  0.7818608E-02  0.9021327E-01
         -2   -1    0    0    0  501 -0.00000000000E+00  0.00000000000E+00  0.23702226236E+04  0.23702226236E+04  0.25500000000E-02 0.  1.
          2   -1    0    0  501    0  0.00000000000E+00 -0.00000000000E+00 -0.72268697830E+03  0.72268697830E+03  0.25500000000E-02 0. -1.
    8880023    1    1    2    0    0 -0.10704224092E+04 -0.50021175947E+03  0.50996051872E+03  0.14456437581E+04  0.65864270000E+03 0.  0.
    8880022    1    1    2    0    0  0.10704224092E+04  0.50021175947E+03  0.11375751266E+04  0.16472658438E+04  0.15294330000E+03 0.  0.
<mgrwt>
<rscale>  0 0.13104398E+04</rscale>
<asrwt>0</asrwt>
<pdfrwt beam="1">  1        2 0.11118261E+00 0.13527107E+04</pdfrwt>
<pdfrwt beam="2">  1       -2 0.36464964E+00 0.13527107E+04</pdfrwt>
<totfact> 0.47956403E-01</totfact>
</mgrwt>
</event>
<event>
 4    1  0.8468429E-007  0.1037541E+04  0.7818608E-02  0.9334011E-01
         -2   -1    0    0    0  501 -0.00000000000E+00  0.00000000000E+00  0.84848363494E+03  0.84848363494E+03  0.25500000000E-02 0.  1.
          2   -1    0    0  501    0  0.00000000000E+00 -0.00000000000E+00 -0.15557768653E+04  0.15557768653E+04  0.25500000000E-02 0. -1.
    8880023    1    1    2    0    0  0.40269333503E+03  0.69319458482E+03 -0.10882545299E+04  0.15035919601E+04  0.65864270000E+03 0.  0.
    8880022    1    1    2    0    0 -0.40269333503E+03 -0.69319458482E+03  0.38096129947E+03  0.90066854015E+03  0.15294330000E+03 0.  0.
<mgrwt>
<rscale>  0 0.97711134E+03</rscale>
<asrwt>0</asrwt>
<pdfrwt beam="1">  1        2 0.23935029E+00 0.10375408E+04</pdfrwt>
<pdfrwt beam="2">  1       -2 0.13053594E+00 0.10375408E+04</pdfrwt>
<totfact> 0.50225127E+00</totfact>
</mgrwt>
</event>
<event>
 4    1  0.8468429E-007  0.8735083E+03  0.7818608E-02  0.9569972E-01
         -2   -1    0    0    0  501 -0.00000000000E+00  0.00000000000E+00  0.30909305060E+03  0.30909305061E+03  0.25500000000E-02 0.  1.
          2   -1    0    0  501    0  0.00000000000E+00 -0.00000000000E+00 -0.29446031381E+04  0.29446031381E+04  0.25500000000E-02 0. -1.
    8880023    1    1    2    0    0  0.23875017735E+03  0.52173254988E+03 -0.43760771690E+03  0.97699397181E+03  0.65864270000E+03 0.  0.
    8880022    1    1    2    0    0 -0.23875017735E+03 -0.52173254988E+03 -0.21979023706E+04  0.22767022169E+04  0.15294330000E+03 0.  0.
<mgrwt>
<rscale>  0 0.79315903E+03</rscale>
<asrwt>0</asrwt>
<pdfrwt beam="1">  1        2 0.45301585E+00 0.87350828E+03</pdfrwt>
<pdfrwt beam="2">  1       -2 0.47552779E-01 0.87350828E+03</pdfrwt>
<totfact> 0.82216125E+00</totfact>
</mgrwt>
</event>
<event>
 4    1  0.8468429E-007  0.9055412E+03  0.7818608E-02  0.9517194E-01
          2   -1    0    0  501    0  0.00000000000E+00  0.00000000000E+00  0.71624570254E+03  0.71624570255E+03  0.25500000000E-02 0. -1.
         -2   -1    0    0    0  501 -0.00000000000E+00 -0.00000000000E+00 -0.12409491071E+04  0.12409491071E+04  0.25500000000E-02 0.  1.
    8880023    1    1    2    0    0  0.52776723503E+03  0.32811044817E+03 -0.84762431893E+03  0.12403515279E+04  0.65864270000E+03 0.  0.
    8880022    1    1    2    0    0 -0.52776723503E+03 -0.32811044817E+03  0.32292091438E+03  0.71684328170E+03  0.15294330000E+03 0. -1.
<mgrwt>
<rscale>  0 0.83027959E+03</rscale>
<asrwt>0</asrwt>
<pdfrwt beam="1">  1        2 0.11019165E+00 0.90554123E+03</pdfrwt>
<pdfrwt beam="2">  1       -2 0.19091525E+00 0.90554123E+03</pdfrwt>
<totfact> 0.60939759E+00</totfact>
</mgrwt>
</event>
<event>
 4    1  0.8468429E-007  0.9610265E+03  0.7818608E-02  0.9434424E-01
         -2   -1    0    0    0  501 -0.00000000000E+00  0.00000000000E+00  0.55717246592E+03  0.55717246593E+03  0.25500000000E-02 0.  1.
          2   -1    0    0  501    0  0.00000000000E+00 -0.00000000000E+00 -0.13031110802E+04  0.13031110802E+04  0.25500000000E-02 0. -1.
    8880023    1    1    2    0    0  0.56092663944E+03  0.41847706517E+03 -0.58830198252E+03  0.11267968663E+04  0.65864270000E+03 0. -1.
    8880022    1    1    2    0    0 -0.56092663944E+03 -0.41847706517E+03 -0.15763663180E+03  0.73348667991E+03  0.15294330000E+03 0.  0.
<mgrwt>
<rscale>  0 0.89296087E+03</rscale>
<asrwt>0</asrwt>
<pdfrwt beam="1">  1        2 0.20047863E+00 0.96102651E+03</pdfrwt>
<pdfrwt beam="2">  1       -2 0.85718841E-01 0.96102651E+03</pdfrwt>
<totfact> 0.19439406E+01</totfact>
</mgrwt>
</event>
<event>
 4    1  0.8468429E-007  0.6620772E+03  0.7818608E-02  0.1022122E+00
          2   -1    0    0  501    0  0.00000000000E+00  0.00000000000E+00  0.81341424888E+03  0.81341424888E+03  0.25500000000E-02 0. -1.
         -2   -1    0    0    0  501 -0.00000000000E+00 -0.00000000000E+00 -0.63413253730E+03  0.63413253731E+03  0.25500000000E-02 0.  1.
    8880023    1    1    2    0    0 -0.51024664493E+02  0.43960683797E+02  0.66227562371E+03  0.93645889719E+03  0.65864270000E+03 0. -1.
    8880022    1    1    2    0    0  0.51024664493E+02 -0.43960683797E+02 -0.48299391213E+03  0.51108788900E+03  0.15294330000E+03 0.  0.
<mgrwt>
<rscale>  0 0.46928417E+03</rscale>
<asrwt>0</asrwt>
<pdfrwt beam="1">  1        2 0.12514065E+00 0.66207723E+03</pdfrwt>
<pdfrwt beam="2">  1       -2 0.97558852E-01 0.66207723E+03</pdfrwt>
<totfact> 0.30172470E+01</totfact>
</mgrwt>
</event>
<event>
 4    1  0.8468429E-007  0.6593371E+03  0.7818608E-02  0.1024846E+00
         -2   -1    0    0    0  501 -0.00000000000E+00  0.00000000000E+00  0.10932599797E+03  0.10932599800E+03  0.25500000000E-02 0.  1.
          2   -1    0    0  501    0  0.00000000000E+00 -0.00000000000E+00 -0.20653213959E+04  0.20653213959E+04  0.25500000000E-02 0. -1.
    8880023    1    1    2    0    0  0.29801711534E+02  0.52016674953E+01 -0.18963817294E+04  0.20077323202E+04  0.65864270000E+03 0. -1.
    8880022    1    1    2    0    0 -0.29801711534E+02 -0.52016674953E+01 -0.59613668476E+02  0.16691507373E+03  0.15294330000E+03 0.  0.
<mgrwt>
<rscale>  0 0.45977645E+03</rscale>
<asrwt>0</asrwt>
<pdfrwt beam="1">  1        2 0.31774172E+00 0.65933710E+03</pdfrwt>
<pdfrwt beam="2">  1       -2 0.16819386E-01 0.65933710E+03</pdfrwt>
<totfact> 0.18328115E+02</totfact>
</mgrwt>
</event>
<event>
 4    1  0.8468429E-007  0.7346535E+03  0.7818608E-02  0.9875804E-01
         -2   -1    0    0    0  501 -0.00000000000E+00  0.00000000000E+00  0.19385346057E+03  0.19385346058E+03  0.25500000000E-02 0.  1.
          2   -1    0    0  501    0  0.00000000000E+00 -0.00000000000E+00 -0.19745735472E+04  0.19745735472E+04  0.25500000000E-02 0. -1.
    8880023    1    1    2    0    0 -0.11725866954E+03 -0.30357200432E+03 -0.64662709846E+03  0.97869421584E+03  0.65864270000E+03 0.  1.
    8880022    1    1    2    0    0  0.11725866954E+03  0.30357200432E+03 -0.11340929881E+04  0.11897327919E+04  0.15294330000E+03 0.  0.
<mgrwt>
<rscale>  0 0.61448397E+03</rscale>
<asrwt>0</asrwt>
<pdfrwt beam="1">  1        2 0.30378053E+00 0.73465350E+03</pdfrwt>
<pdfrwt beam="2">  1       -2 0.29823611E-01 0.73465350E+03</pdfrwt>
<totfact> 0.73620719E+01</totfact>
</mgrwt>
</event>
<event>
 4    1  0.8468429E-007  0.7658594E+03  0.7818608E-02  0.9790168E-01
          2   -1    0    0  501    0  0.00000000000E+00  0.00000000000E+00  0.25064043961E+04  0.25064043961E+04  0.25500000000E-02 0. -1.
         -2   -1    0    0    0  501 -0.00000000000E+00 -0.00000000000E+00 -0.14971161103E+03  0.14971161105E+03  0.25500000000E-02 0.  1.
    8880023    1    1    2    0    0 -0.38750422539E+03 -0.50704269809E+02  0.11792562166E+04  0.14061244178E+04  0.65864270000E+03 0.  0.
    8880022    1    1    2    0    0  0.38750422539E+03  0.50704269809E+02  0.11774365685E+04  0.12499915894E+04  0.15294330000E+03 0.  0.
<mgrwt>
<rscale>  0 0.65892886E+03</rscale>
<asrwt>0</asrwt>
<pdfrwt beam="1">  1        2 0.38560070E+00 0.76585942E+03</pdfrwt>
<pdfrwt beam="2">  1       -2 0.23032554E-01 0.76585942E+03</pdfrwt>
<totfact> 0.59526941E+01</totfact>
</mgrwt>
</event>
<event>
 4    1  0.8468429E-007  0.7847372E+03  0.7818608E-02  0.9744825E-01
          2   -1    0    0  501    0  0.00000000000E+00  0.00000000000E+00  0.44986256953E+04  0.44986256953E+04  0.25500000000E-02 0. -1.
         -2   -1    0    0    0  501 -0.00000000000E+00 -0.00000000000E+00 -0.14790327859E+03  0.14790327861E+03  0.25500000000E-02 0.  1.
    8880023    1    1    2    0    0 -0.28788510054E+03  0.31484038911E+03  0.39923780121E+04  0.40687706619E+04  0.65864270000E+03 0. -1.
    8880022    1    1    2    0    0  0.28788510054E+03 -0.31484038911E+03  0.35834440464E+03  0.57775831200E+03  0.15294330000E+03 0.  0.
<mgrwt>
<rscale>  0 0.68409536E+03</rscale>
<asrwt>0</asrwt>
<pdfrwt beam="1">  1        2 0.69209626E+00 0.78473722E+03</pdfrwt>
<pdfrwt beam="2">  1       -2 0.22754351E-01 0.78473722E+03</pdfrwt>
<totfact> 0.23570008E+00</totfact>
</mgrwt>
</event>
<event>
 4    1  0.8468429E-007  0.9097473E+03  0.7818608E-02  0.9510562E-01
         -2   -1    0    0    0  501 -0.00000000000E+00  0.00000000000E+00  0.26902675642E+04  0.26902675642E+04  0.25500000000E-02 0.  1.
          2   -1    0    0  501    0  0.00000000000E+00 -0.00000000000E+00 -0.66428886988E+03  0.66428886988E+03  0.25500000000E-02 0. -1.
    8880023    1    1    2    0    0 -0.44443951918E+03  0.44306147447E+03 -0.28631578100E+03  0.95373837559E+03  0.65864270000E+03 0.  0.
    8880022    1    1    2    0    0  0.44443951918E+03 -0.44306147447E+03  0.23122944753E+04  0.24008180585E+04  0.15294330000E+03 0.  0.
<mgrwt>
<rscale>  0 0.83509606E+03</rscale>
<asrwt>0</asrwt>
<pdfrwt beam="1">  1        2 0.10219829E+00 0.90974731E+03</pdfrwt>
<pdfrwt beam="2">  1       -2 0.41388732E+00 0.90974731E+03</pdfrwt>
<totfact> 0.27242570E-01</totfact>
</mgrwt>
</event>
<event>
 4    1  0.8468429E-007  0.7991650E+03  0.7818608E-02  0.9712604E-01
          2   -1    0    0  501    0  0.00000000000E+00  0.00000000000E+00  0.32568345164E+04  0.32568345164E+04  0.25500000000E-02 0. -1.
         -2   -1    0    0    0  501 -0.00000000000E+00 -0.00000000000E+00 -0.41888274123E+03  0.41888274124E+03  0.25500000000E-02 0.  1.
    8880023    1    1    2    0    0 -0.34357669089E+02  0.45130269207E+03  0.30500439924E+04  0.31530038267E+04  0.65864270000E+03 0. -1.
    8880022    1    1    2    0    0  0.34357669089E+02 -0.45130269207E+03 -0.21209221722E+03  0.52271343097E+03  0.15294330000E+03 0.  0.
<mgrwt>
<rscale>  0 0.70271271E+03</rscale>
<asrwt>0</asrwt>
<pdfrwt beam="1">  1        2 0.50105150E+00 0.79916505E+03</pdfrwt>
<pdfrwt beam="2">  1       -2 0.64443495E-01 0.79916505E+03</pdfrwt>
<totfact> 0.28210044E+00</totfact>
</mgrwt>
</event>
<event>
 4    1  0.8468429E-007  0.1343464E+04  0.7818608E-02  0.9028907E-01
         -2   -1    0    0    0  501 -0.00000000000E+00  0.00000000000E+00  0.73469437828E+03  0.73469437829E+03  0.25500000000E-02 0.  1.
          2   -1    0    0  501    0  0.00000000000E+00 -0.00000000000E+00 -0.22402486906E+04  0.22402486906E+04  0.25500000000E-02 0. -1.
    8880023    1    1    2    0    0 -0.48126812929E+03 -0.10674572570E+04 -0.53376763818E+03  0.14456147847E+04  0.65864270000E+03 0.  0.
    8880022    1    1    2    0    0  0.48126812929E+03  0.10674572570E+04 -0.97178667412E+03  0.15293282842E+04  0.15294330000E+03 0.  0.
<mgrwt>
<rscale>  0 0.13008307E+04</rscale>
<asrwt>0</asrwt>
<pdfrwt beam="1">  1        2 0.34465364E+00 0.13434635E+04</pdfrwt>
<pdfrwt beam="2">  1       -2 0.11302991E+00 0.13434635E+04</pdfrwt>
<totfact> 0.29070966E+00</totfact>
</mgrwt>
</event>
<event>
 4    1  0.8468429E-007  0.8652843E+03  0.7818608E-02  0.9584232E-01
          2   -1    0    0  501    0  0.00000000000E+00  0.00000000000E+00  0.14764928318E+04  0.14764928318E+04  0.25500000000E-02 0. -1.
         -2   -1    0    0    0  501 -0.00000000000E+00 -0.00000000000E+00 -0.45770331447E+03  0.45770331448E+03  0.25500000000E-02 0.  1.
    8880023    1    1    2    0    0  0.15149770863E+03 -0.54032870371E+03  0.10391088977E+04  0.13522071481E+04  0.65864270000E+03 0.  0.
    8880022    1    1    2    0    0 -0.15149770863E+03  0.54032870371E+03 -0.20319380392E+02  0.58198899818E+03  0.15294330000E+03 0.  0.
<mgrwt>
<rscale>  0 0.78348662E+03</rscale>
<asrwt>0</asrwt>
<pdfrwt beam="1">  1        2 0.22715274E+00 0.86528427E+03</pdfrwt>
<pdfrwt beam="2">  1       -2 0.70415896E-01 0.86528427E+03</pdfrwt>
<totfact> 0.24268430E+01</totfact>
</mgrwt>
</event>
<event>
 4    1  0.8468429E-007  0.9019433E+03  0.7818608E-02  0.9522919E-01
          2   -1    0    0  501    0  0.00000000000E+00  0.00000000000E+00  0.16929932289E+04  0.16929932289E+04  0.25500000000E-02 0. -1.
         -2   -1    0    0    0  501 -0.00000000000E+00 -0.00000000000E+00 -0.50529086549E+03  0.50529086549E+03  0.25500000000E-02 0.  1.
    8880023    1    1    2    0    0  0.50879390170E+03 -0.34759214301E+03  0.12704161111E+04  0.15580304342E+04  0.65864270000E+03 0. -1.
    8880022    1    1    2    0    0 -0.50879390170E+03  0.34759214301E+03 -0.82713747704E+02  0.64025366017E+03  0.15294330000E+03 0.  0.
<mgrwt>
<rscale>  0 0.82614973E+03</rscale>
<asrwt>0</asrwt>
<pdfrwt beam="1">  1        2 0.26046049E+00 0.90194331E+03</pdfrwt>
<pdfrwt beam="2">  1       -2 0.77737057E-01 0.90194331E+03</pdfrwt>
<totfact> 0.14722219E+01</totfact>
</mgrwt>
</event>
<event>
 4    1  0.8468429E-007  0.7042665E+03  0.7818608E-02  0.9979942E-01
         -2   -1    0    0    0  501 -0.00000000000E+00  0.00000000000E+00  0.10324908874E+04  0.10324908874E+04  0.25500000000E-02 0.  1.
          2   -1    0    0  501    0  0.00000000000E+00 -0.00000000000E+00 -0.13479837094E+04  0.13479837095E+04  0.25500000000E-02 0. -1.
    8880023    1    1    2    0    0 -0.83410729565E+02  0.23499720201E+03 -0.12316296697E+04  0.14187680869E+04  0.65864270000E+03 0. -1.
    8880022    1    1    2    0    0  0.83410729565E+02 -0.23499720201E+03  0.91613684766E+03  0.96170651002E+03  0.15294330000E+03 0.  0.
<mgrwt>
<rscale>  0 0.56538548E+03</rscale>
<asrwt>0</asrwt>
<pdfrwt beam="1">  1        2 0.20738211E+00 0.70426646E+03</pdfrwt>
<pdfrwt beam="2">  1       -2 0.15884475E+00 0.70426646E+03</pdfrwt>
<totfact> 0.41097379E+00</totfact>
</mgrwt>
</event>
<event>
 4    1  0.8468429E-007  0.1233864E+04  0.7818608E-02  0.9124887E-01
         -2   -1    0    0    0  501 -0.00000000000E+00  0.00000000000E+00  0.14457759791E+04  0.14457759791E+04  0.25500000000E-02 0.  1.
          2   -1    0    0  501    0  0.00000000000E+00 -0.00000000000E+00 -0.10005867285E+04  0.10005867285E+04  0.25500000000E-02 0. -1.
    8880023    1    1    2    0    0  0.94410267151E+03  0.44416178142E+03 -0.13761347280E+03  0.12415140823E+04  0.65864270000E+03 0.  0.
    8880022    1    1    2    0    0 -0.94410267151E+03 -0.44416178142E+03  0.58280272337E+03  0.12048486253E+04  0.15294330000E+03 0.  0.
<mgrwt>
<rscale>  0 0.11863520E+04</rscale>
<asrwt>0</asrwt>
<pdfrwt beam="1">  1        2 0.15393642E+00 0.12338637E+04</pdfrwt>
<pdfrwt beam="2">  1       -2 0.22242707E+00 0.12338637E+04</pdfrwt>
<totfact> 0.23284025E+00</totfact>
</mgrwt>
</event>
<event>
 4    1  0.8468429E-007  0.8404562E+03  0.7818608E-02  0.9629321E-01
         -2   -1    0    0    0  501 -0.00000000000E+00  0.00000000000E+00  0.38259338747E+03  0.38259338748E+03  0.25500000000E-02 0.  1.
          2   -1    0    0  501    0  0.00000000000E+00 -0.00000000000E+00 -0.14418731703E+04  0.14418731703E+04  0.25500000000E-02 0. -1.
    8880023    1    1    2    0    0 -0.30713564420E+03  0.42216593788E+03 -0.95212374141E+03  0.12700024442E+04  0.65864270000E+03 0. -1.
    8880022    1    1    2    0    0  0.30713564420E+03 -0.42216593788E+03 -0.10715604144E+03  0.55446411361E+03  0.15294330000E+03 0.  0.
<mgrwt>
<rscale>  0 0.75385573E+03</rscale>
<asrwt>0</asrwt>
<pdfrwt beam="1">  1        2 0.22182664E+00 0.84045618E+03</pdfrwt>
<pdfrwt beam="2">  1       -2 0.58860522E-01 0.84045618E+03</pdfrwt>
<totfact> 0.37393904E+01</totfact>
</mgrwt>
</event>
<event>
 4    1  0.8468429E-007  0.6748149E+03  0.7818608E-02  0.1012423E+00
          2   -1    0    0  501    0  0.00000000000E+00  0.00000000000E+00  0.77495766108E+03  0.77495766108E+03  0.25500000000E-02 0. -1.
         -2   -1    0    0    0  501 -0.00000000000E+00 -0.00000000000E+00 -0.93063685239E+03  0.93063685239E+03  0.25500000000E-02 0.  1.
    8880023    1    1    2    0    0  0.14399434193E+03  0.28820303252E+02  0.61088310495E+03  0.91024906183E+03  0.65864270000E+03 0. -1.
    8880022    1    1    2    0    0 -0.14399434193E+03 -0.28820303252E+02 -0.76656229626E+03  0.79534545165E+03  0.15294330000E+03 0.  0.
<mgrwt>
<rscale>  0 0.50522837E+03</rscale>
<asrwt>0</asrwt>
<pdfrwt beam="1">  1        2 0.11922426E+00 0.67481493E+03</pdfrwt>
<pdfrwt beam="2">  1       -2 0.14317490E+00 0.67481493E+03</pdfrwt>
<totfact> 0.12464655E+01</totfact>
</mgrwt>
</event>
<event>
 4    1  0.8468429E-007  0.6835637E+03  0.7818608E-02  0.1007376E+00
         -2   -1    0    0    0  501 -0.00000000000E+00  0.00000000000E+00  0.10204075106E+04  0.10204075106E+04  0.25500000000E-02 0.  1.
          2   -1    0    0  501    0  0.00000000000E+00 -0.00000000000E+00 -0.54185796181E+03  0.54185796181E+03  0.25500000000E-02 0. -1.
    8880023    1    1    2    0    0 -0.12850158478E+03 -0.13014003560E+03 -0.30112716892E+03  0.74695171483E+03  0.65864270000E+03 0.  0.
    8880022    1    1    2    0    0  0.12850158478E+03  0.13014003560E+03  0.77967671774E+03  0.81531375762E+03  0.15294330000E+03 0.  1.
<mgrwt>
<rscale>  0 0.52531124E+03</rscale>
<asrwt>0</asrwt>
<pdfrwt beam="1">  1        2 0.83362764E-01 0.68356367E+03</pdfrwt>
<pdfrwt beam="2">  1       -2 0.15698577E+00 0.68356367E+03</pdfrwt>
<totfact> 0.15178601E+01</totfact>
</mgrwt>
</event>
<event>
 4    1  0.8468429E-007  0.6692894E+03  0.7818608E-02  0.1016177E+00
         -2   -1    0    0    0  501 -0.00000000000E+00  0.00000000000E+00  0.10413467110E+03  0.10413467113E+03  0.25500000000E-02 0.  1.
          2   -1    0    0  501    0  0.00000000000E+00 -0.00000000000E+00 -0.21364869184E+04  0.21364869184E+04  0.25500000000E-02 0. -1.
    8880023    1    1    2    0    0 -0.73263033600E+02 -0.93651939341E+02 -0.18755459900E+04  0.19913867341E+04  0.65864270000E+03 0. -1.
    8880022    1    1    2    0    0  0.73263033600E+02  0.93651939341E+02 -0.15680625736E+03  0.24923485550E+03  0.15294330000E+03 0.  0.
<mgrwt>
<rscale>  0 0.49091639E+03</rscale>
<asrwt>0</asrwt>
<pdfrwt beam="1">  1        2 0.32869026E+00 0.66928945E+03</pdfrwt>
<pdfrwt beam="2">  1       -2 0.16020720E-01 0.66928945E+03</pdfrwt>
<totfact> 0.18189966E+02</totfact>
</mgrwt>
</event>
<event>
 4    1  0.8468429E-007  0.9052505E+03  0.7818608E-02  0.9517655E-01
         -2   -1    0    0    0  501 -0.00000000000E+00  0.00000000000E+00  0.18218465194E+03  0.18218465195E+03  0.25500000000E-02 0.  1.
          2   -1    0    0  501    0  0.00000000000E+00 -0.00000000000E+00 -0.53860329735E+04  0.53860329735E+04  0.25500000000E-02 0. -1.
    8880023    1    1    2    0    0 -0.62090845916E+03 -0.11873279038E+02 -0.46013281809E+04  0.46895308426E+04  0.65864270000E+03 0.  0.
    8880022    1    1    2    0    0  0.62090845916E+03  0.11873279038E+02 -0.60252014070E+03  0.87868678286E+03  0.15294330000E+03 0.  0.
<mgrwt>
<rscale>  0 0.82994623E+03</rscale>
<asrwt>0</asrwt>
<pdfrwt beam="1">  1        2 0.82862034E+00 0.90525052E+03</pdfrwt>
<pdfrwt beam="2">  1       -2 0.28028412E-01 0.90525052E+03</pdfrwt>
<totfact> 0.12823436E-01</totfact>
</mgrwt>
</event>
<event>
 4    1  0.8468429E-007  0.6983654E+03  0.7818608E-02  0.1000405E+00
          2   -1    0    0  501    0  0.00000000000E+00  0.00000000000E+00  0.45586275317E+03  0.45586275318E+03  0.25500000000E-02 0. -1.
         -2   -1    0    0    0  501 -0.00000000000E+00 -0.00000000000E+00 -0.54746450218E+03  0.54746450219E+03  0.25500000000E-02 0.  1.
    8880023    1    1    2    0    0 -0.20363180290E+03  0.11152612211E+03  0.31935733684E+02  0.69909518981E+03  0.65864270000E+03 0.  0.
    8880022    1    1    2    0    0  0.20363180290E+03 -0.11152612211E+03 -0.12353748269E+03  0.30423206555E+03  0.15294330000E+03 0.  0.
<mgrwt>
<rscale>  0 0.55472967E+03</rscale>
<asrwt>0</asrwt>
<pdfrwt beam="1">  1        2 0.70132731E-01 0.69836537E+03</pdfrwt>
<pdfrwt beam="2">  1       -2 0.84225308E-01 0.69836537E+03</pdfrwt>
<totfact> 0.85477860E+01</totfact>
</mgrwt>
</event>
<event>
 4    1  0.8468429E-007  0.1178043E+04  0.7818608E-02  0.9178767E-01
          2   -1    0    0  501    0  0.00000000000E+00  0.00000000000E+00  0.17107824694E+04  0.17107824694E+04  0.25500000000E-02 0. -1.
         -2   -1    0    0    0  501 -0.00000000000E+00 -0.00000000000E+00 -0.20351206886E+04  0.20351206886E+04  0.25500000000E-02 0.  1.
    8880023    1    1    2    0    0 -0.50576479909E+02  0.97540603199E+03  0.13560375443E+04  0.17962803054E+04  0.65864270000E+03 0. -1.
    8880022    1    1    2    0    0  0.50576479909E+02 -0.97540603199E+03 -0.16803757636E+04  0.19496228526E+04  0.15294330000E+03 0.  0.
<mgrwt>
<rscale>  0 0.11275298E+04</rscale>
<asrwt>0</asrwt>
<pdfrwt beam="1">  1        2 0.26319730E+00 0.11780429E+04</pdfrwt>
<pdfrwt beam="2">  1       -2 0.31309549E+00 0.11780429E+04</pdfrwt>
<totfact> 0.25039235E-01</totfact>
</mgrwt>
</event>
<event>
 4    1  0.8468429E-007  0.8259830E+03  0.7818608E-02  0.9657199E-01
          2   -1    0    0  501    0  0.00000000000E+00  0.00000000000E+00  0.13229381971E+04  0.13229381971E+04  0.25500000000E-02 0. -1.
         -2   -1    0    0    0  501 -0.00000000000E+00 -0.00000000000E+00 -0.67956070565E+03  0.67956070565E+03  0.25500000000E-02 0.  1.
    8880023    1    1    2    0    0  0.40392405701E+03  0.29203251322E+03  0.10538232871E+04  0.13389515896E+04  0.65864270000E+03 0.  0.
    8880022    1    1    2    0    0 -0.40392405701E+03 -0.29203251322E+03 -0.41044579564E+03  0.66354731315E+03  0.15294330000E+03 0.  0.
<mgrwt>
<rscale>  0 0.73623311E+03</rscale>
<asrwt>0</asrwt>
<pdfrwt beam="1">  1        2 0.20352895E+00 0.82598295E+03</pdfrwt>
<pdfrwt beam="2">  1       -2 0.10454780E+00 0.82598295E+03</pdfrwt>
<totfact> 0.12051766E+01</totfact>
</mgrwt>
</event>
<event>
 4    1  0.8468429E-007  0.9876271E+03  0.7818608E-02  0.9397927E-01
         -2   -1    0    0    0  501 -0.00000000000E+00  0.00000000000E+00  0.47731589668E+03  0.47731589669E+03  0.25500000000E-02 0.  1.
          2   -1    0    0  501    0  0.00000000000E+00 -0.00000000000E+00 -0.18181486662E+04  0.18181486662E+04  0.25500000000E-02 0. -1.
    8880023    1    1    2    0    0  0.17194313819E+03 -0.71556450901E+03 -0.11578622753E+04  0.15218581617E+04  0.65864270000E+03 0. -1.
    8880022    1    1    2    0    0 -0.17194313819E+03  0.71556450901E+03 -0.18297049425E+03  0.77360640128E+03  0.15294330000E+03 0.  1.
<mgrwt>
<rscale>  0 0.92246459E+03</rscale>
<asrwt>0</asrwt>
<pdfrwt beam="1">  1        2 0.27971518E+00 0.98762706E+03</pdfrwt>
<pdfrwt beam="2">  1       -2 0.73433215E-01 0.98762706E+03</pdfrwt>
<totfact> 0.14131918E+01</totfact>
</mgrwt>
</event>
<event>
 4    1  0.8468429E-007  0.7512687E+03  0.7818608E-02  0.9828260E-01
          2   -1    0    0  501    0  0.00000000000E+00  0.00000000000E+00  0.59896627947E+03  0.59896627948E+03  0.25500000000E-02 0. -1.
         -2   -1    0    0    0  501 -0.00000000000E+00 -0.00000000000E+00 -0.82873374632E+03  0.82873374632E+03  0.25500000000E-02 0.  1.
    8880023    1    1    2    0    0 -0.13385187561E+03 -0.33567559248E+03  0.26461690586E+03  0.79650909670E+03  0.65864270000E+03 0. -1.
    8880022    1    1    2    0    0  0.13385187561E+03  0.33567559248E+03 -0.49438437271E+03  0.63119092911E+03  0.15294330000E+03 0.  1.
<mgrwt>
<rscale>  0 0.63867755E+03</rscale>
<asrwt>0</asrwt>
<pdfrwt beam="1">  1        2 0.92148658E-01 0.75126868E+03</pdfrwt>
<pdfrwt beam="2">  1       -2 0.12749750E+00 0.75126868E+03</pdfrwt>
<totfact> 0.22969027E+01</totfact>
</mgrwt>
</event>
<event>
 4    1  0.8468429E-007  0.6906980E+03  0.7818608E-02  0.1003823E+00
         -2   -1    0    0    0  501 -0.00000000000E+00  0.00000000000E+00  0.12909186757E+03  0.12909186760E+03  0.25500000000E-02 0.  1.
          2   -1    0    0  501    0  0.00000000000E+00 -0.00000000000E+00 -0.18651332891E+04  0.18651332891E+04  0.25500000000E-02 0. -1.
    8880023    1    1    2    0    0 -0.79603175646E+01 -0.20782245909E+03 -0.10094298442E+04  0.12231158399E+04  0.65864270000E+03 0.  0.
    8880022    1    1    2    0    0  0.79603175646E+01  0.20782245909E+03 -0.72661157730E+03  0.77110931679E+03  0.15294330000E+03 0.  0.
<mgrwt>
<rscale>  0 0.54005409E+03</rscale>
<asrwt>0</asrwt>
<pdfrwt beam="1">  1        2 0.28694356E+00 0.69069801E+03</pdfrwt>
<pdfrwt beam="2">  1       -2 0.19860289E-01 0.69069801E+03</pdfrwt>
<totfact> 0.17616298E+02</totfact>
</mgrwt>
</event>
<event>
 4    1  0.8468429E-007  0.7598586E+03  0.7818608E-02  0.9805474E-01
         -2   -1    0    0    0  501 -0.00000000000E+00  0.00000000000E+00  0.40169572820E+03  0.40169572821E+03  0.25500000000E-02 0.  1.
          2   -1    0    0  501    0  0.00000000000E+00 -0.00000000000E+00 -0.19190759781E+04  0.19190759781E+04  0.25500000000E-02 0. -1.
    8880023    1    1    2    0    0 -0.34963984901E+03  0.14603736974E+03 -0.17083612245E+04  0.18697281131E+04  0.65864270000E+03 0. -1.
    8880022    1    1    2    0    0  0.34963984901E+03 -0.14603736974E+03  0.19098097452E+03  0.45104359326E+03  0.15294330000E+03 0.  0.
<mgrwt>
<rscale>  0 0.65069624E+03</rscale>
<asrwt>0</asrwt>
<pdfrwt beam="1">  1        2 0.29524245E+00 0.75985863E+03</pdfrwt>
<pdfrwt beam="2">  1       -2 0.61799344E-01 0.75985863E+03</pdfrwt>
<totfact> 0.18585403E+01</totfact>
</mgrwt>
</event>
<event>
 4    1  0.8468429E-007  0.1110060E+04  0.7818608E-02  0.9249937E-01
          2   -1    0    0  501    0  0.00000000000E+00  0.00000000000E+00  0.14230475627E+04  0.14230475627E+04  0.25500000000E-02 0. -1.
         -2   -1    0    0    0  501 -0.00000000000E+00 -0.00000000000E+00 -0.24542462039E+04  0.24542462039E+04  0.25500000000E-02 0.  1.
    8880023    1    1    2    0    0  0.64925996580E+03  0.61390955092E+03  0.10990985996E+04  0.15621303972E+04  0.65864270000E+03 0.  0.
    8880022    1    1    2    0    0 -0.64925996580E+03 -0.61390955092E+03 -0.21302972408E+04  0.23151633694E+04  0.15294330000E+03 0.  0.
<mgrwt>
<rscale>  0 0.10552532E+04</rscale>
<asrwt>0</asrwt>
<pdfrwt beam="1">  1        2 0.21893039E+00 0.11100602E+04</pdfrwt>
<pdfrwt beam="2">  1       -2 0.37757634E+00 0.11100602E+04</pdfrwt>
<totfact> 0.14519068E-01</totfact>
</mgrwt>
</event>
<event>
 4    1  0.8468430E-007  0.7205837E+03  0.7818608E-02  0.9920616E-01
         -2   -1    0    0    0  501 -0.00000000000E+00  0.00000000000E+00  0.10436267645E+04  0.10436267645E+04  0.25500000000E-02 0.  1.
          2   -1    0    0  501    0  0.00000000000E+00 -0.00000000000E+00 -0.13542958648E+04  0.13542958648E+04  0.25500000000E-02 0. -1.
    8880023    1    1    2    0    0  0.84771187495E+02  0.27972223285E+03 -0.12275971202E+04  0.14234590186E+04  0.65864270000E+03 0. -1.
    8880022    1    1    2    0    0 -0.84771187495E+02 -0.27972223285E+03  0.91692801991E+03  0.97446361066E+03  0.15294330000E+03 0.  0.
<mgrwt>
<rscale>  0 0.59272478E+03</rscale>
<asrwt>0</asrwt>
<pdfrwt beam="1">  1        2 0.20835321E+00 0.72058371E+03</pdfrwt>
<pdfrwt beam="2">  1       -2 0.16055796E+00 0.72058371E+03</pdfrwt>
<totfact> 0.39487658E+00</totfact>
</mgrwt>
</event>
<event>
 4    1  0.8468429E-007  0.7432151E+03  0.7818608E-02  0.9850679E-01
          2   -1    0    0  501    0  0.00000000000E+00  0.00000000000E+00  0.21040749205E+04  0.21040749205E+04  0.25500000000E-02 0. -1.
         -2   -1    0    0    0  501 -0.00000000000E+00 -0.00000000000E+00 -0.17690866273E+03  0.17690866275E+03  0.25500000000E-02 0.  1.
    8880023    1    1    2    0    0  0.78346592671E+02  0.33529127562E+03  0.16609763213E+04  0.18196733152E+04  0.65864270000E+03 0.  1.
    8880022    1    1    2    0    0 -0.78346592671E+02 -0.33529127562E+03  0.26618993655E+03  0.46131026807E+03  0.15294330000E+03 0.  0.
<mgrwt>
<rscale>  0 0.62712315E+03</rscale>
<asrwt>0</asrwt>
<pdfrwt beam="1">  1        2 0.32370384E+00 0.74321507E+03</pdfrwt>
<pdfrwt beam="2">  1       -2 0.27216716E-01 0.74321507E+03</pdfrwt>
<totfact> 0.73951319E+01</totfact>
</mgrwt>
</event>
<event>
 4    1  0.8468429E-007  0.7077314E+03  0.7818608E-02  0.9966524E-01
          2   -1    0    0  501    0  0.00000000000E+00  0.00000000000E+00  0.27833024219E+04  0.27833024219E+04  0.25500000000E-02 0. -1.
         -2   -1    0    0    0  501 -0.00000000000E+00 -0.00000000000E+00 -0.11879669958E+03  0.11879669960E+03  0.25500000000E-02 0.  1.
    8880023    1    1    2    0    0  0.22998631756E+03  0.11907895747E+03  0.23979420015E+04  0.25002019025E+04  0.65864270000E+03 0. -1.
    8880022    1    1    2    0    0 -0.22998631756E+03 -0.11907895747E+03  0.26656372081E+03  0.40189721900E+03  0.15294330000E+03 0.  1.
<mgrwt>
<rscale>  0 0.57142799E+03</rscale>
<asrwt>0</asrwt>
<pdfrwt beam="1">  1        2 0.42820039E+00 0.70773138E+03</pdfrwt>
<pdfrwt beam="2">  1       -2 0.18276415E-01 0.70773138E+03</pdfrwt>
<totfact> 0.62307216E+01</totfact>
</mgrwt>
</event>
<event>
 4    1  0.8468429E-007  0.7448289E+03  0.7818608E-02  0.9846098E-01
          2   -1    0    0  501    0  0.00000000000E+00  0.00000000000E+00  0.28870737476E+04  0.28870737476E+04  0.25500000000E-02 0. -1.
         -2   -1    0    0    0  501 -0.00000000000E+00 -0.00000000000E+00 -0.23874315799E+03  0.23874315800E+03  0.25500000000E-02 0.  1.
    8880023    1    1    2    0    0 -0.42999541005E+02 -0.34512459788E+03  0.26428916537E+04  0.27458416648E+04  0.65864270000E+03 0. -1.
    8880022    1    1    2    0    0  0.42999541005E+02  0.34512459788E+03  0.54389359053E+01  0.37997524081E+03  0.15294330000E+03 0.  0.
<mgrwt>
<rscale>  0 0.62946286E+03</rscale>
<asrwt>0</asrwt>
<pdfrwt beam="1">  1        2 0.44416518E+00 0.74482894E+03</pdfrwt>
<pdfrwt beam="2">  1       -2 0.36729718E-01 0.74482894E+03</pdfrwt>
<totfact> 0.15121887E+01</totfact>
</mgrwt>
</event>
<event>
 4    1  0.8468429E-007  0.6940479E+03  0.7818608E-02  0.1002285E+00
         -2   -1    0    0    0  501 -0.00000000000E+00  0.00000000000E+00  0.68154972611E+03  0.68154972611E+03  0.25500000000E-02 0.  1.
          2   -1    0    0  501    0  0.00000000000E+00 -0.00000000000E+00 -0.37290288029E+03  0.37290288030E+03  0.25500000000E-02 0. -1.
    8880023    1    1    2    0    0  0.14516360887E+03  0.16376768972E+03  0.72162856566E+02  0.69778937629E+03  0.65864270000E+03 0.  0.
    8880022    1    1    2    0    0 -0.14516360887E+03 -0.16376768972E+03  0.23648398925E+03  0.35666323012E+03  0.15294330000E+03 0.  0.
<mgrwt>
<rscale>  0 0.54659555E+03</rscale>
<asrwt>0</asrwt>
<pdfrwt beam="1">  1        2 0.57369674E-01 0.69404793E+03</pdfrwt>
<pdfrwt beam="2">  1       -2 0.10485380E+00 0.69404793E+03</pdfrwt>
<totfact> 0.64366035E+01</totfact>
</mgrwt>
</event>
<event>
 4    1  0.8468429E-007  0.9566179E+03  0.7818608E-02  0.9440656E-01
         -2   -1    0    0    0  501 -0.00000000000E+00  0.00000000000E+00  0.53912483562E+03  0.53912483562E+03  0.25500000000E-02 0.  1.
          2   -1    0    0  501    0  0.00000000000E+00 -0.00000000000E+00 -0.17874189006E+04  0.17874189006E+04  0.25500000000E-02 0. -1.
    8880023    1    1    2    0    0 -0.30479504104E+03  0.62322347870E+03 -0.13002334884E+04  0.16142257748E+04  0.65864270000E+03 0. -1.
    8880022    1    1    2    0    0  0.30479504104E+03 -0.62322347870E+03  0.51939423400E+02  0.71231796143E+03  0.15294330000E+03 0.  0.
<mgrwt>
<rscale>  0 0.88804084E+03</rscale>
<asrwt>0</asrwt>
<pdfrwt beam="1">  1        2 0.27498752E+00 0.95661786E+03</pdfrwt>
<pdfrwt beam="2">  1       -2 0.82942284E-01 0.95661786E+03</pdfrwt>
<totfact> 0.11216317E+01</totfact>
</mgrwt>
</event>
<event>
 4    1  0.8468429E-007  0.7066194E+03  0.7818608E-02  0.9970775E-01
          2   -1    0    0  501    0  0.00000000000E+00  0.00000000000E+00  0.20969134919E+04  0.20969134919E+04  0.25500000000E-02 0. -1.
         -2   -1    0    0    0  501 -0.00000000000E+00 -0.00000000000E+00 -0.19836055746E+03  0.19836055748E+03  0.25500000000E-02 0.  1.
    8880023    1    1    2    0    0 -0.61800707535E+02 -0.24835760275E+03  0.18660514186E+04  0.19953593484E+04  0.65864270000E+03 0.  0.
    8880022    1    1    2    0    0  0.61800707535E+02  0.24835760275E+03  0.32501515841E+02  0.29991470094E+03  0.15294330000E+03 0.  0.
<mgrwt>
<rscale>  0 0.56950470E+03</rscale>
<asrwt>0</asrwt>
<pdfrwt beam="1">  1        2 0.32260208E+00 0.70661944E+03</pdfrwt>
<pdfrwt beam="2">  1       -2 0.30517009E-01 0.70661944E+03</pdfrwt>
<totfact> 0.60693775E+01</totfact>
</mgrwt>
</event>
<event>
 4    1  0.8468429E-007  0.1022967E+04  0.7818608E-02  0.9352107E-01
          2   -1    0    0  501    0  0.00000000000E+00  0.00000000000E+00  0.12460502744E+04  0.12460502744E+04  0.25500000000E-02 0. -1.
         -2   -1    0    0    0  501 -0.00000000000E+00 -0.00000000000E+00 -0.77613055016E+03  0.77613055017E+03  0.25500000000E-02 0.  1.
    8880023    1    1    2    0    0  0.24454814402E+03  0.74353774526E+03  0.64006645133E+03  0.12067093444E+04  0.65864270000E+03 0. -1.
    8880022    1    1    2    0    0 -0.24454814402E+03 -0.74353774526E+03 -0.17014672705E+03  0.81547148026E+03  0.15294330000E+03 0.  0.
<mgrwt>
<rscale>  0 0.96124089E+03</rscale>
<asrwt>0</asrwt>
<pdfrwt beam="1">  1        2 0.19170004E+00 0.10229674E+04</pdfrwt>
<pdfrwt beam="2">  1       -2 0.11940470E+00 0.10229674E+04</pdfrwt>
<totfact> 0.94712386E+00</totfact>
</mgrwt>
</event>
<event>
 4    1  0.8468429E-007  0.8420028E+03  0.7818608E-02  0.9626415E-01
          2   -1    0    0  501    0  0.00000000000E+00  0.00000000000E+00  0.90102520094E+03  0.90102520094E+03  0.25500000000E-02 0. -1.
         -2   -1    0    0    0  501 -0.00000000000E+00 -0.00000000000E+00 -0.67167262589E+03  0.67167262589E+03  0.25500000000E-02 0.  1.
    8880023    1    1    2    0    0  0.11974820636E+03 -0.51070437046E+03  0.48256102232E+03  0.97048128960E+03  0.65864270000E+03 0. -1.
    8880022    1    1    2    0    0 -0.11974820636E+03  0.51070437046E+03 -0.25320844727E+03  0.60221653723E+03  0.15294330000E+03 0.  0.
<mgrwt>
<rscale>  0 0.75572249E+03</rscale>
<asrwt>0</asrwt>
<pdfrwt beam="1">  1        2 0.13861926E+00 0.84200285E+03</pdfrwt>
<pdfrwt beam="2">  1       -2 0.10333425E+00 0.84200285E+03</pdfrwt>
<totfact> 0.22510991E+01</totfact>
</mgrwt>
</event>
<event>
 4    1  0.8468429E-007  0.1216658E+04  0.7818608E-02  0.9141097E-01
         -2   -1    0    0    0  501 -0.00000000000E+00  0.00000000000E+00  0.76656485479E+03  0.76656485479E+03  0.25500000000E-02 0.  1.
          2   -1    0    0  501    0  0.00000000000E+00 -0.00000000000E+00 -0.30056493292E+04  0.30056493292E+04  0.25500000000E-02 0. -1.
    8880023    1    1    2    0    0  0.80511340950E+03 -0.63106174801E+03 -0.24326443126E+04  0.27199292436E+04  0.65864270000E+03 0. -1.
    8880022    1    1    2    0    0 -0.80511340950E+03  0.63106174801E+03  0.19355983818E+03  0.10522849405E+04  0.15294330000E+03 0.  0.
<mgrwt>
<rscale>  0 0.11682644E+04</rscale>
<asrwt>0</asrwt>
<pdfrwt beam="1">  1        2 0.46240758E+00 0.12166580E+04</pdfrwt>
<pdfrwt beam="2">  1       -2 0.11793306E+00 0.12166580E+04</pdfrwt>
<totfact> 0.94400124E-01</totfact>
</mgrwt>
</event>
<event>
 4    1  0.8468429E-007  0.9124997E+03  0.7818608E-02  0.9506256E-01
         -2   -1    0    0    0  501 -0.00000000000E+00  0.00000000000E+00  0.69631167176E+03  0.69631167177E+03  0.25500000000E-02 0.  1.
          2   -1    0    0  501    0  0.00000000000E+00 -0.00000000000E+00 -0.23121938658E+04  0.23121938658E+04  0.25500000000E-02 0. -1.
    8880023    1    1    2    0    0 -0.52095871010E+03 -0.35699801250E+03 -0.20384663284E+04  0.22333832490E+04  0.65864270000E+03 0. -1.
    8880022    1    1    2    0    0  0.52095871010E+03  0.35699801250E+03  0.42258413439E+03  0.77512228856E+03  0.15294330000E+03 0.  0.
<mgrwt>
<rscale>  0 0.83824143E+03</rscale>
<asrwt>0</asrwt>
<pdfrwt beam="1">  1        2 0.35572213E+00 0.91249973E+03</pdfrwt>
<pdfrwt beam="2">  1       -2 0.10712487E+00 0.91249973E+03</pdfrwt>
<totfact> 0.31791606E+00</totfact>
</mgrwt>
</event>
<event>
 4    1  0.8468429E-007  0.7252239E+03  0.7818608E-02  0.9905291E-01
         -2   -1    0    0    0  501 -0.00000000000E+00  0.00000000000E+00  0.23666216750E+03  0.23666216751E+03  0.25500000000E-02 0.  1.
          2   -1    0    0  501    0  0.00000000000E+00 -0.00000000000E+00 -0.19130652822E+04  0.19130652822E+04  0.25500000000E-02 0. -1.
    8880023    1    1    2    0    0 -0.30354202300E+03 -0.13079349758E+01 -0.16576037990E+04  0.18093092690E+04  0.65864270000E+03 0.  0.
    8880022    1    1    2    0    0  0.30354202300E+03  0.13079349758E+01 -0.18799315697E+02  0.34041818063E+03  0.15294330000E+03 0.  0.
<mgrwt>
<rscale>  0 0.60005554E+03</rscale>
<asrwt>0</asrwt>
<pdfrwt beam="1">  1        2 0.29431773E+00 0.72522388E+03</pdfrwt>
<pdfrwt beam="2">  1       -2 0.36409565E-01 0.72522388E+03</pdfrwt>
<totfact> 0.54660499E+01</totfact>
</mgrwt>
</event>
<event>
 4    1  0.8468429E-007  0.8422045E+03  0.7818608E-02  0.9626037E-01
         -2   -1    0    0    0  501 -0.00000000000E+00  0.00000000000E+00  0.61473513974E+03  0.61473513974E+03  0.25500000000E-02 0.  1.
          2   -1    0    0  501    0  0.00000000000E+00 -0.00000000000E+00 -0.95091951821E+03  0.95091951822E+03  0.25500000000E-02 0. -1.
    8880023    1    1    2    0    0 -0.34929396255E+03 -0.39178053463E+03 -0.51889637909E+03  0.98922288595E+03  0.65864270000E+03 0.  0.
    8880022    1    1    2    0    0  0.34929396255E+03  0.39178053463E+03  0.18271200062E+03  0.57643177200E+03  0.15294330000E+03 0.  0.
<mgrwt>
<rscale>  0 0.75596569E+03</rscale>
<asrwt>0</asrwt>
<pdfrwt beam="1">  1        2 0.14629531E+00 0.84220453E+03</pdfrwt>
<pdfrwt beam="2">  1       -2 0.94574636E-01 0.84220453E+03</pdfrwt>
<totfact> 0.25717641E+01</totfact>
</mgrwt>
</event>
<event>
 4    1  0.8468429E-007  0.7062012E+03  0.7818608E-02  0.9972388E-01
          2   -1    0    0  501    0  0.00000000000E+00  0.00000000000E+00  0.10409419884E+04  0.10409419884E+04  0.25500000000E-02 0. -1.
         -2   -1    0    0    0  501 -0.00000000000E+00 -0.00000000000E+00 -0.52303425208E+03  0.52303425209E+03  0.25500000000E-02 0.  1.
    8880023    1    1    2    0    0  0.12810039342E+03  0.22022757332E+03  0.85872022146E+03  0.11118095700E+04  0.65864270000E+03 0.  0.
    8880022    1    1    2    0    0 -0.12810039342E+03 -0.22022757332E+03 -0.34081248518E+03  0.45216667050E+03  0.15294330000E+03 0.  0.
<mgrwt>
<rscale>  0 0.56877745E+03</rscale>
<asrwt>0</asrwt>
<pdfrwt beam="1">  1        2 0.16014492E+00 0.70620118E+03</pdfrwt>
<pdfrwt beam="2">  1       -2 0.80466809E-01 0.70620118E+03</pdfrwt>
<totfact> 0.33036903E+01</totfact>
</mgrwt>
</event>
<event>
 4    1  0.8468429E-007  0.1170916E+04  0.7818608E-02  0.9185926E-01
         -2   -1    0    0    0  501 -0.00000000000E+00  0.00000000000E+00  0.19039162830E+04  0.19039162830E+04  0.25500000000E-02 0.  1.
          2   -1    0    0  501    0  0.00000000000E+00 -0.00000000000E+00 -0.88167202009E+03  0.88167202009E+03  0.25500000000E-02 0. -1.
    8880023    1    1    2    0    0 -0.84844674364E+03 -0.46623215246E+03  0.13168628991E+04  0.17621499363E+04  0.65864270000E+03 0.  0.
    8880022    1    1    2    0    0  0.84844674364E+03  0.46623215246E+03 -0.29461863619E+03  0.10234383668E+04  0.15294330000E+03 0.  0.
<mgrwt>
<rscale>  0 0.11199886E+04</rscale>
<asrwt>0</asrwt>
<pdfrwt beam="1">  1        2 0.13564185E+00 0.11709161E+04</pdfrwt>
<pdfrwt beam="2">  1       -2 0.29291019E+00 0.11709161E+04</pdfrwt>
<totfact> 0.10408814E+00</totfact>
</mgrwt>
</event>
<event>
 4    1  0.8468429E-007  0.8390809E+03  0.7818608E-02  0.9631916E-01
          2   -1    0    0  501    0  0.00000000000E+00  0.00000000000E+00  0.10053091333E+04  0.10053091333E+04  0.25500000000E-02 0. -1.
         -2   -1    0    0    0  501 -0.00000000000E+00 -0.00000000000E+00 -0.77600863225E+03  0.77600863226E+03  0.25500000000E-02 0.  1.
    8880023    1    1    2    0    0  0.71072150707E+02  0.51497116936E+03  0.67721700132E+03  0.10782762304E+04  0.65864270000E+03 0.  0.
    8880022    1    1    2    0    0 -0.71072150707E+02 -0.51497116936E+03 -0.44791650030E+03  0.70304153514E+03  0.15294330000E+03 0.  0.
<mgrwt>
<rscale>  0 0.75219328E+03</rscale>
<asrwt>0</asrwt>
<pdfrwt beam="1">  1        2 0.15466294E+00 0.83908090E+03</pdfrwt>
<pdfrwt beam="2">  1       -2 0.11938594E+00 0.83908090E+03</pdfrwt>
<totfact> 0.13540105E+01</totfact>
</mgrwt>
</event>
<event>
 4    1  0.8468429E-007  0.8242986E+03  0.7818608E-02  0.9660529E-01
          2   -1    0    0  501    0  0.00000000000E+00  0.00000000000E+00  0.17332733855E+04  0.17332733855E+04  0.25500000000E-02 0. -1.
         -2   -1    0    0    0  501 -0.00000000000E+00 -0.00000000000E+00 -0.33294773641E+03  0.33294773642E+03  0.25500000000E-02 0.  1.
    8880023    1    1    2    0    0  0.49212993820E+03  0.58874130355E+02  0.12978545290E+04  0.15374962192E+04  0.65864270000E+03 0.  1.
    8880022    1    1    2    0    0 -0.49212993820E+03 -0.58874130355E+02  0.10247112008E+03  0.52872490273E+03  0.15294330000E+03 0.  0.
<mgrwt>
<rscale>  0 0.73416301E+03</rscale>
<asrwt>0</asrwt>
<pdfrwt beam="1">  1        2 0.26665745E+00 0.82429864E+03</pdfrwt>
<pdfrwt beam="2">  1       -2 0.51222728E-01 0.82429864E+03</pdfrwt>
<totfact> 0.34464035E+01</totfact>
</mgrwt>
</event>
<event>
 4    1  0.8468429E-007  0.6886736E+03  0.7818608E-02  0.1004789E+00
          2   -1    0    0  501    0  0.00000000000E+00  0.00000000000E+00  0.86064024446E+03  0.86064024447E+03  0.25500000000E-02 0. -1.
         -2   -1    0    0    0  501 -0.00000000000E+00 -0.00000000000E+00 -0.42417842644E+03  0.42417842645E+03  0.25500000000E-02 0.  1.
    8880023    1    1    2    0    0 -0.59236339518E+02 -0.19222951844E+03  0.65523536606E+03  0.95058125527E+03  0.65864270000E+03 0.  0.
    8880022    1    1    2    0    0  0.59236339518E+02  0.19222951844E+03 -0.21877354804E+03  0.33423741564E+03  0.15294330000E+03 0.  0.
<mgrwt>
<rscale>  0 0.53599108E+03</rscale>
<asrwt>0</asrwt>
<pdfrwt beam="1">  1        2 0.13240619E+00 0.68867361E+03</pdfrwt>
<pdfrwt beam="2">  1       -2 0.65258219E-01 0.68867361E+03</pdfrwt>
<totfact> 0.68791279E+01</totfact>
</mgrwt>
</event>
<event>
 4    1  0.8468429E-007  0.7345515E+03  0.7818608E-02  0.9876112E-01
         -2   -1    0    0    0  501 -0.00000000000E+00  0.00000000000E+00  0.56435554754E+03  0.56435554755E+03  0.25500000000E-02 0.  1.
          2   -1    0    0  501    0  0.00000000000E+00 -0.00000000000E+00 -0.95877617786E+03  0.95877617786E+03  0.25500000000E-02 0. -1.
    8880023    1    1    2    0    0 -0.56982566904E+02  0.32016979762E+03 -0.72699687820E+03  0.10334845811E+04  0.65864270000E+03 0. -1.
    8880022    1    1    2    0    0  0.56982566904E+02 -0.32016979762E+03  0.33257624788E+03  0.48964714429E+03  0.15294330000E+03 0.  0.
<mgrwt>
<rscale>  0 0.61433093E+03</rscale>
<asrwt>0</asrwt>
<pdfrwt beam="1">  1        2 0.14750403E+00 0.73455151E+03</pdfrwt>
<pdfrwt beam="2">  1       -2 0.86823930E-01 0.73455151E+03</pdfrwt>
<totfact> 0.31279453E+01</totfact>
</mgrwt>
</event>
<event>
 4    1  0.8468429E-007  0.9175749E+03  0.7818608E-02  0.9498387E-01
         -2   -1    0    0    0  501 -0.00000000000E+00  0.00000000000E+00  0.14990713612E+03  0.14990713614E+03  0.25500000000E-02 0.  1.
          2   -1    0    0  501    0  0.00000000000E+00 -0.00000000000E+00 -0.43858070868E+04  0.43858070868E+04  0.25500000000E-02 0. -1.
    8880023    1    1    2    0    0 -0.22923960676E+03 -0.59630756224E+03 -0.19123613207E+04  0.21211010191E+04  0.65864270000E+03 0.  0.
    8880022    1    1    2    0    0  0.22923960676E+03  0.59630756224E+03 -0.23235386299E+04  0.24146132038E+04  0.15294330000E+03 0.  0.
<mgrwt>
<rscale>  0 0.84402811E+03</rscale>
<asrwt>0</asrwt>
<pdfrwt beam="1">  1        2 0.67473945E+00 0.91757491E+03</pdfrwt>
<pdfrwt beam="2">  1       -2 0.23062640E-01 0.91757491E+03</pdfrwt>
<totfact> 0.28504739E+00</totfact>
</mgrwt>
</event>
<event>
 4    1  0.8468429E-007  0.7583351E+03  0.7818608E-02  0.9809437E-01
         -2   -1    0    0    0  501 -0.00000000000E+00  0.00000000000E+00  0.12412927191E+04  0.12412927191E+04  0.25500000000E-02 0.  1.
          2   -1    0    0  501    0  0.00000000000E+00 -0.00000000000E+00 -0.28428837516E+03  0.28428837517E+03  0.25500000000E-02 0. -1.
    8880023    1    1    2    0    0 -0.26918589894E+03  0.26229928558E+03  0.47204087458E+03  0.89324954909E+03  0.65864270000E+03 0.  0.
    8880022    1    1    2    0    0  0.26918589894E+03 -0.26229928558E+03  0.48496346937E+03  0.63233154519E+03  0.15294330000E+03 0. -1.
<mgrwt>
<rscale>  0 0.64858558E+03</rscale>
<asrwt>0</asrwt>
<pdfrwt beam="1">  1        2 0.43736672E-01 0.75833513E+03</pdfrwt>
<pdfrwt beam="2">  1       -2 0.19096811E+00 0.75833513E+03</pdfrwt>
<totfact> 0.18072941E+01</totfact>
</mgrwt>
</event>
<event>
 4    1  0.8468429E-007  0.6652234E+03  0.7818608E-02  0.1019347E+00
         -2   -1    0    0    0  501 -0.00000000000E+00  0.00000000000E+00  0.62969476358E+03  0.62969476359E+03  0.25500000000E-02 0.  1.
          2   -1    0    0  501    0  0.00000000000E+00 -0.00000000000E+00 -0.60795423911E+03  0.60795423911E+03  0.25500000000E-02 0. -1.
    8880023    1    1    2    0    0  0.92403959486E+02 -0.13168655847E+02 -0.40222854338E+03  0.77737372775E+03  0.65864270000E+03 0. -1.
    8880022    1    1    2    0    0 -0.92403959486E+02  0.13168655847E+02  0.42396906785E+03  0.46027527495E+03  0.15294330000E+03 0.  0.
<mgrwt>
<rscale>  0 0.47923084E+03</rscale>
<asrwt>0</asrwt>
<pdfrwt beam="1">  1        2 0.93531421E-01 0.66522335E+03</pdfrwt>
<pdfrwt beam="2">  1       -2 0.96876117E-01 0.66522335E+03</pdfrwt>
<totfact> 0.44285673E+01</totfact>
</mgrwt>
</event>
<event>
 4    1  0.8468429E-007  0.8405450E+03  0.7818608E-02  0.9629153E-01
          2   -1    0    0  501    0  0.00000000000E+00  0.00000000000E+00  0.20087006225E+04  0.20087006225E+04  0.25500000000E-02 0. -1.
         -2   -1    0    0    0  501 -0.00000000000E+00 -0.00000000000E+00 -0.29559265003E+03  0.29559265004E+03  0.25500000000E-02 0.  1.
    8880023    1    1    2    0    0  0.51937234098E+03  0.54388048702E+02  0.15008860443E+04  0.17202252215E+04  0.65864270000E+03 0.  0.
    8880022    1    1    2    0    0 -0.51937234098E+03 -0.54388048702E+02  0.21222192812E+03  0.58406805101E+03  0.15294330000E+03 0. -1.
<mgrwt>
<rscale>  0 0.75396301E+03</rscale>
<asrwt>0</asrwt>
<pdfrwt beam="1">  1        2 0.30903085E+00 0.84054500E+03</pdfrwt>
<pdfrwt beam="2">  1       -2 0.45475794E-01 0.84054500E+03</pdfrwt>
<totfact> 0.30937608E+01</totfact>
</mgrwt>
</event>
<event>
 4    1  0.8468429E-007  0.7712652E+03  0.7818608E-02  0.9776770E-01
          2   -1    0    0  501    0  0.00000000000E+00  0.00000000000E+00  0.16603679359E+04  0.16603679359E+04  0.25500000000E-02 0. -1.
         -2   -1    0    0    0  501 -0.00000000000E+00 -0.00000000000E+00 -0.27331682930E+03  0.27331682931E+03  0.25500000000E-02 0.  1.
    8880023    1    1    2    0    0  0.19318175718E+03  0.35173934951E+03  0.12745468676E+04  0.14897381264E+04  0.65864270000E+03 0. -1.
    8880022    1    1    2    0    0 -0.19318175718E+03 -0.35173934951E+03  0.11250423899E+03  0.44394663880E+03  0.15294330000E+03 0.  0.
<mgrwt>
<rscale>  0 0.66624222E+03</rscale>
<asrwt>0</asrwt>
<pdfrwt beam="1">  1        2 0.25544122E+00 0.77126517E+03</pdfrwt>
<pdfrwt beam="2">  1       -2 0.42048743E-01 0.77126517E+03</pdfrwt>
<totfact> 0.56484008E+01</totfact>
</mgrwt>
</event>
<event>
 4    1  0.8468429E-007  0.7082119E+03  0.7818608E-02  0.9964702E-01
         -2   -1    0    0    0  501 -0.00000000000E+00  0.00000000000E+00  0.14987057338E+03  0.14987057341E+03  0.25500000000E-02 0.  1.
          2   -1    0    0  501    0  0.00000000000E+00 -0.00000000000E+00 -0.17434701377E+04  0.17434701377E+04  0.25500000000E-02 0. -1.
    8880023    1    1    2    0    0  0.21882700404E+03 -0.14095601482E+03 -0.12436251508E+04  0.14311420536E+04  0.65864270000E+03 0. -1.
    8880022    1    1    2    0    0 -0.21882700404E+03  0.14095601482E+03 -0.34997441355E+03  0.46219865747E+03  0.15294330000E+03 0.  0.
<mgrwt>
<rscale>  0 0.57225463E+03</rscale>
<asrwt>0</asrwt>
<pdfrwt beam="1">  1        2 0.26822616E+00 0.70821188E+03</pdfrwt>
<pdfrwt beam="2">  1       -2 0.23057012E-01 0.70821188E+03</pdfrwt>
<totfact> 0.15742183E+02</totfact>
</mgrwt>
</event>
<event>
 4    1  0.8468429E-007  0.6669572E+03  0.7818608E-02  0.1017945E+00
         -2   -1    0    0    0  501 -0.00000000000E+00  0.00000000000E+00  0.95269553537E+03  0.95269553537E+03  0.25500000000E-02 0.  1.
          2   -1    0    0  501    0  0.00000000000E+00 -0.00000000000E+00 -0.59946231596E+03  0.59946231596E+03  0.25500000000E-02 0. -1.
    8880023    1    1    2    0    0  0.83661681819E+02 -0.63422208844E+02 -0.39912976572E+03  0.77726213707E+03  0.65864270000E+03 0. -1.
    8880022    1    1    2    0    0 -0.83661681819E+02  0.63422208844E+02  0.75236298513E+03  0.77489571427E+03  0.15294330000E+03 0.  0.
<mgrwt>
<rscale>  0 0.48435552E+03</rscale>
<asrwt>0</asrwt>
<pdfrwt beam="1">  1        2 0.92224972E-01 0.66695716E+03</pdfrwt>
<pdfrwt beam="2">  1       -2 0.14656854E+00 0.66695716E+03</pdfrwt>
<totfact> 0.16174770E+01</totfact>
</mgrwt>
</event>
<event>
 4    1  0.8468429E-007  0.9866732E+03  0.7818608E-02  0.9399205E-01
          2   -1    0    0  501    0  0.00000000000E+00  0.00000000000E+00  0.10717817082E+04  0.10717817082E+04  0.25500000000E-02 0. -1.
         -2   -1    0    0    0  501 -0.00000000000E+00 -0.00000000000E+00 -0.13980234678E+04  0.13980234678E+04  0.25500000000E-02 0.  1.
    8880023    1    1    2    0    0 -0.53962187254E+03  0.49851987082E+03  0.69183642921E+03  0.12050567115E+04  0.65864270000E+03 0.  0.
    8880022    1    1    2    0    0  0.53962187254E+03 -0.49851987082E+03 -0.10180781888E+04  0.12647484645E+04  0.15294330000E+03 0.  0.
<mgrwt>
<rscale>  0 0.92141170E+03</rscale>
<asrwt>0</asrwt>
<pdfrwt beam="1">  1        2 0.16488949E+00 0.98667321E+03</pdfrwt>
<pdfrwt beam="2">  1       -2 0.21508053E+00 0.98667321E+03</pdfrwt>
<totfact> 0.23969438E+00</totfact>
</mgrwt>
</event>
<event>
 4    1  0.8468429E-007  0.6591762E+03  0.7818608E-02  0.1025017E+00
          2   -1    0    0  501    0  0.00000000000E+00  0.00000000000E+00  0.15345672700E+03  0.15345672702E+03  0.25500000000E-02 0. -1.
         -2   -1    0    0    0  501 -0.00000000000E+00 -0.00000000000E+00 -0.10958467285E+04  0.10958467285E+04  0.25500000000E-02 0.  1.
    8880023    1    1    2    0    0  0.26177876681E+02  0.42106844639E+01 -0.81698500474E+03  0.10497512636E+04  0.65864270000E+03 0.  1.
    8880022    1    1    2    0    0 -0.26177876681E+02 -0.42106844639E+01 -0.12540499676E+03  0.19955219197E+03  0.15294330000E+03 0.  0.
<mgrwt>
<rscale>  0 0.45918874E+03</rscale>
<asrwt>0</asrwt>
<pdfrwt beam="1">  1        2 0.23608728E-01 0.65917617E+03</pdfrwt>
<pdfrwt beam="2">  1       -2 0.16859180E+00 0.65917617E+03</pdfrwt>
<totfact> 0.51969834E+01</totfact>
</mgrwt>
</event>
<event>
 4    1  0.8468429E-007  0.7421930E+03  0.7818608E-02  0.9853604E-01
          2   -1    0    0  501    0  0.00000000000E+00  0.00000000000E+00  0.24371378892E+04  0.24371378892E+04  0.25500000000E-02 0. -1.
         -2   -1    0    0    0  501 -0.00000000000E+00 -0.00000000000E+00 -0.31214706095E+03  0.31214706096E+03  0.25500000000E-02 0.  1.
    8880023    1    1    2    0    0  0.92867106116E+02 -0.32926581159E+03  0.22380124194E+04  0.23578698161E+04  0.65864270000E+03 0. -1.
    8880022    1    1    2    0    0 -0.92867106116E+02  0.32926581159E+03 -0.11302159115E+03  0.39141513405E+03  0.15294330000E+03 0.  0.
<mgrwt>
<rscale>  0 0.62563478E+03</rscale>
<asrwt>0</asrwt>
<pdfrwt beam="1">  1        2 0.37494430E+00 0.74219302E+03</pdfrwt>
<pdfrwt beam="2">  1       -2 0.48022624E-01 0.74219302E+03</pdfrwt>
<totfact> 0.16270468E+01</totfact>
</mgrwt>
</event>
<event>
 4    1  0.8468429E-007  0.8951175E+03  0.7818608E-02  0.9533915E-01
          2   -1    0    0  501    0  0.00000000000E+00  0.00000000000E+00  0.29712845472E+04  0.29712845472E+04  0.25500000000E-02 0. -1.
         -2   -1    0    0    0  501 -0.00000000000E+00 -0.00000000000E+00 -0.21405089701E+03  0.21405089703E+03  0.25500000000E-02 0.  1.
    8880023    1    1    2    0    0  0.58185468332E+03 -0.16991269064E+03  0.20758616794E+04  0.22606275927E+04  0.65864270000E+03 0.  1.
    8880022    1    1    2    0    0 -0.58185468332E+03  0.16991269064E+03  0.68137197077E+03  0.92470785143E+03  0.15294330000E+03 0.  0.
<mgrwt>
<rscale>  0 0.81828899E+03</rscale>
<asrwt>0</asrwt>
<pdfrwt beam="1">  1        2 0.45712067E+00 0.89511753E+03</pdfrwt>
<pdfrwt beam="2">  1       -2 0.32930909E-01 0.89511753E+03</pdfrwt>
<totfact> 0.16176946E+01</totfact>
</mgrwt>
</event>
<event>
 4    1  0.8468429E-007  0.6630815E+03  0.7818608E-02  0.1021200E+00
          2   -1    0    0  501    0  0.00000000000E+00  0.00000000000E+00  0.89534138902E+03  0.89534138902E+03  0.25500000000E-02 0. -1.
         -2   -1    0    0    0  501 -0.00000000000E+00 -0.00000000000E+00 -0.36138736827E+03  0.36138736828E+03  0.25500000000E-02 0.  1.
    8880023    1    1    2    0    0  0.51200947467E+02 -0.56967722300E+02  0.73690086087E+03  0.99131223306E+03  0.65864270000E+03 0. -1.
    8880022    1    1    2    0    0 -0.51200947467E+02  0.56967722300E+02 -0.20294684012E+03  0.26541652424E+03  0.15294330000E+03 0.  0.
<mgrwt>
<rscale>  0 0.47255973E+03</rscale>
<asrwt>0</asrwt>
<pdfrwt beam="1">  1        2 0.13774483E+00 0.66308149E+03</pdfrwt>
<pdfrwt beam="2">  1       -2 0.55598057E-01 0.66308149E+03</pdfrwt>
<totfact> 0.91561629E+01</totfact>
</mgrwt>
</event>
<event>
 4    1  0.8468429E-007  0.6647832E+03  0.7818608E-02  0.1019716E+00
          2   -1    0    0  501    0  0.00000000000E+00  0.00000000000E+00  0.42648153176E+03  0.42648153177E+03  0.25500000000E-02 0. -1.
         -2   -1    0    0    0  501 -0.00000000000E+00 -0.00000000000E+00 -0.44087839116E+03  0.44087839117E+03  0.25500000000E-02 0.  1.
    8880023    1    1    2    0    0 -0.12302822439E+02  0.89303429840E+02  0.74264811754E+02  0.66891847825E+03  0.65864270000E+03 0. -1.
    8880022    1    1    2    0    0  0.12302822439E+02 -0.89303429840E+02 -0.88661671158E+02  0.19844144468E+03  0.15294330000E+03 0.  1.
<mgrwt>
<rscale>  0 0.47789231E+03</rscale>
<asrwt>0</asrwt>
<pdfrwt beam="1">  1        2 0.65612543E-01 0.66478317E+03</pdfrwt>
<pdfrwt beam="2">  1       -2 0.67827445E-01 0.66478317E+03</pdfrwt>
<totfact> 0.14928608E+02</totfact>
</mgrwt>
</event>
<event>
 4    1  0.8468429E-007  0.6848681E+03  0.7818608E-02  0.1006694E+00
         -2   -1    0    0    0  501 -0.00000000000E+00  0.00000000000E+00  0.40454139150E+03  0.40454139151E+03  0.25500000000E-02 0.  1.
          2   -1    0    0  501    0  0.00000000000E+00 -0.00000000000E+00 -0.14817936640E+04  0.14817936640E+04  0.25500000000E-02 0. -1.
    8880023    1    1    2    0    0  0.76349745943E+02  0.17147840191E+03 -0.13547693597E+04  0.15180396405E+04  0.65864270000E+03 0.  0.
    8880022    1    1    2    0    0 -0.76349745943E+02 -0.17147840191E+03  0.27751708716E+03  0.36829541500E+03  0.15294330000E+03 0.  1.
<mgrwt>
<rscale>  0 0.52810015E+03</rscale>
<asrwt>0</asrwt>
<pdfrwt beam="1">  1        2 0.22796825E+00 0.68486811E+03</pdfrwt>
<pdfrwt beam="2">  1       -2 0.62237138E-01 0.68486811E+03</pdfrwt>
<totfact> 0.32102834E+01</totfact>
</mgrwt>
</event>
<event>
 4    1  0.8468429E-007  0.7228580E+03  0.7818608E-02  0.9913031E-01
         -2   -1    0    0    0  501 -0.00000000000E+00  0.00000000000E+00  0.35464483546E+03  0.35464483547E+03  0.25500000000E-02 0.  1.
          2   -1    0    0  501    0  0.00000000000E+00 -0.00000000000E+00 -0.12003251458E+04  0.12003251458E+04  0.25500000000E-02 0. -1.
    8880023    1    1    2    0    0 -0.78180091115E+02 -0.28740454617E+03 -0.95951253903E+03  0.12013276067E+04  0.65864270000E+03 0. -1.
    8880022    1    1    2    0    0  0.78180091115E+02  0.28740454617E+03  0.11383222868E+03  0.35364237459E+03  0.15294330000E+03 0.  0.
<mgrwt>
<rscale>  0 0.59633863E+03</rscale>
<asrwt>0</asrwt>
<pdfrwt beam="1">  1        2 0.18466541E+00 0.72285801E+03</pdfrwt>
<pdfrwt beam="2">  1       -2 0.54560744E-01 0.72285801E+03</pdfrwt>
<totfact> 0.61028138E+01</totfact>
</mgrwt>
</event>
<event>
 4    1  0.8468429E-007  0.8618622E+03  0.7818608E-02  0.9590260E-01
         -2   -1    0    0    0  501 -0.00000000000E+00  0.00000000000E+00  0.29167682160E+03  0.29167682161E+03  0.25500000000E-02 0.  1.
          2   -1    0    0  501    0  0.00000000000E+00 -0.00000000000E+00 -0.19403195858E+04  0.19403195858E+04  0.25500000000E-02 0. -1.
    8880023    1    1    2    0    0 -0.33579058646E+03 -0.44299079725E+03 -0.12952080154E+04  0.15557538924E+04  0.65864270000E+03 0. -1.
    8880022    1    1    2    0    0  0.33579058646E+03  0.44299079725E+03 -0.35343474885E+03  0.67624251502E+03  0.15294330000E+03 0.  0.
<mgrwt>
<rscale>  0 0.77944234E+03</rscale>
<asrwt>0</asrwt>
<pdfrwt beam="1">  1        2 0.29851070E+00 0.86186215E+03</pdfrwt>
<pdfrwt beam="2">  1       -2 0.44873358E-01 0.86186215E+03</pdfrwt>
<totfact> 0.34552320E+01</totfact>
</mgrwt>
</event>
<event>
 4    1  0.8468429E-007  0.6672882E+03  0.7818608E-02  0.1017686E+00
          2   -1    0    0  501    0  0.00000000000E+00  0.00000000000E+00  0.15140097340E+04  0.15140097340E+04  0.25500000000E-02 0. -1.
         -2   -1    0    0    0  501 -0.00000000000E+00 -0.00000000000E+00 -0.33960698456E+03  0.33960698457E+03  0.25500000000E-02 0.  1.
    8880023    1    1    2    0    0  0.70350275316E+02  0.80710276696E+02  0.14058974094E+04  0.15562201136E+04  0.65864270000E+03 0. -1.
    8880022    1    1    2    0    0 -0.70350275316E+02 -0.80710276696E+02 -0.23149465999E+03  0.29739660493E+03  0.15294330000E+03 0.  0.
<mgrwt>
<rscale>  0 0.48530878E+03</rscale>
<asrwt>0</asrwt>
<pdfrwt beam="1">  1        2 0.23292458E+00 0.66728818E+03</pdfrwt>
<pdfrwt beam="2">  1       -2 0.52247228E-01 0.66728818E+03</pdfrwt>
<totfact> 0.44483393E+01</totfact>
</mgrwt>
</event>
<event>
 4    1  0.8468429E-007  0.1432558E+04  0.7818608E-02  0.8958788E-01
          2   -1    0    0  501    0  0.00000000000E+00  0.00000000000E+00  0.26980895830E+04  0.26980895830E+04  0.25500000000E-02 0. -1.
         -2   -1    0    0    0  501 -0.00000000000E+00 -0.00000000000E+00 -0.12679362150E+04  0.12679362150E+04  0.25500000000E-02 0.  1.
    8880023    1    1    2    0    0 -0.10089486445E+04  0.77487776238E+03  0.20829233425E+04  0.25280017347E+04  0.65864270000E+03 0.  0.
    8880022    1    1    2    0    0  0.10089486445E+04 -0.77487776238E+03 -0.65276997449E+03  0.14380240633E+04  0.15294330000E+03 0.  0.
<mgrwt>
<rscale>  0 0.13931549E+04</rscale>
<asrwt>0</asrwt>
<pdfrwt beam="1">  1        2 0.41509070E+00 0.14325582E+04</pdfrwt>
<pdfrwt beam="2">  1       -2 0.19506711E+00 0.14325582E+04</pdfrwt>
<totfact> 0.36205592E-01</totfact>
</mgrwt>
</event>
<event>
 4    1  0.8468429E-007  0.6845139E+03  0.7818608E-02  0.1006878E+00
          2   -1    0    0  501    0  0.00000000000E+00  0.00000000000E+00  0.22604397030E+04  0.22604397030E+04  0.25500000000E-02 0. -1.
         -2   -1    0    0    0  501 -0.00000000000E+00 -0.00000000000E+00 -0.33932605829E+03  0.33932605829E+03  0.25500000000E-02 0.  1.
    8880023    1    1    2    0    0  0.10103796845E+03  0.15665355090E+03  0.21566608704E+04  0.22626854228E+04  0.65864270000E+03 0. -1.
    8880022    1    1    2    0    0 -0.10103796845E+03 -0.15665355090E+03 -0.23554722571E+03  0.33708033854E+03  0.15294330000E+03 0.  0.
<mgrwt>
<rscale>  0 0.52734724E+03</rscale>
<asrwt>0</asrwt>
<pdfrwt beam="1">  1        2 0.34775995E+00 0.68451385E+03</pdfrwt>
<pdfrwt beam="2">  1       -2 0.52204009E-01 0.68451385E+03</pdfrwt>
<totfact> 0.17382345E+01</totfact>
</mgrwt>
</event>
<event>
 4    1  0.8468429E-007  0.7259839E+03  0.7818608E-02  0.9902835E-01
          2   -1    0    0  501    0  0.00000000000E+00  0.00000000000E+00  0.30243335553E+04  0.30243335553E+04  0.25500000000E-02 0. -1.
         -2   -1    0    0    0  501 -0.00000000000E+00 -0.00000000000E+00 -0.15705856133E+03  0.15705856135E+03  0.25500000000E-02 0.  1.
    8880023    1    1    2    0    0  0.79852106303E+02 -0.29473043930E+03  0.27097138008E+04  0.28052809983E+04  0.65864270000E+03 0.  0.
    8880022    1    1    2    0    0 -0.79852106303E+02  0.29473043930E+03  0.15756119310E+03  0.37611111831E+03  0.15294330000E+03 0.  1.
<mgrwt>
<rscale>  0 0.60124074E+03</rscale>
<asrwt>0</asrwt>
<pdfrwt beam="1">  1        2 0.46528207E+00 0.72598388E+03</pdfrwt>
<pdfrwt beam="2">  1       -2 0.24162856E-01 0.72598388E+03</pdfrwt>
<totfact> 0.27227351E+01</totfact>
</mgrwt>
</event>
<event>
 4    1  0.8468429E-007  0.1164183E+04  0.7818608E-02  0.9192751E-01
         -2   -1    0    0    0  501 -0.00000000000E+00  0.00000000000E+00  0.11738289407E+04  0.11738289407E+04  0.25500000000E-02 0.  1.
          2   -1    0    0  501    0  0.00000000000E+00 -0.00000000000E+00 -0.14293543730E+04  0.14293543730E+04  0.25500000000E-02 0. -1.
    8880023    1    1    2    0    0  0.86781007383E+03 -0.41038633443E+03 -0.86986124700E+03  0.14532653106E+04  0.65864270000E+03 0.  0.
    8880022    1    1    2    0    0 -0.86781007383E+03  0.41038633443E+03  0.61433581471E+03  0.11499180032E+04  0.15294330000E+03 0.  0.
<mgrwt>
<rscale>  0 0.11128568E+04</rscale>
<asrwt>0</asrwt>
<pdfrwt beam="1">  1        2 0.21990067E+00 0.11641827E+04</pdfrwt>
<pdfrwt beam="2">  1       -2 0.18058907E+00 0.11641827E+04</pdfrwt>
<totfact> 0.24361159E+00</totfact>
</mgrwt>
</event>
<event>
 4    1  0.8468429E-007  0.6783785E+03  0.7818608E-02  0.1010256E+00
         -2   -1    0    0    0  501 -0.00000000000E+00  0.00000000000E+00  0.69187994818E+03  0.69187994819E+03  0.25500000000E-02 0.  1.
          2   -1    0    0  501    0  0.00000000000E+00 -0.00000000000E+00 -0.92756951723E+03  0.92756951724E+03  0.25500000000E-02 0. -1.
    8880023    1    1    2    0    0  0.12312334574E+03 -0.10596140862E+03 -0.77848582889E+03  0.10325878028E+04  0.65864270000E+03 0. -1.
    8880022    1    1    2    0    0 -0.12312334574E+03  0.10596140862E+03  0.54279625984E+03  0.58686166265E+03  0.15294330000E+03 0.  0.
<mgrwt>
<rscale>  0 0.51372966E+03</rscale>
<asrwt>0</asrwt>
<pdfrwt beam="1">  1        2 0.14270300E+00 0.67837850E+03</pdfrwt>
<pdfrwt beam="2">  1       -2 0.10644307E+00 0.67837850E+03</pdfrwt>
<totfact> 0.20456539E+01</totfact>
</mgrwt>
</event>
<event>
 4    1  0.8468429E-007  0.7199204E+03  0.7818608E-02  0.9922855E-01
         -2   -1    0    0    0  501 -0.00000000000E+00  0.00000000000E+00  0.44900664698E+03  0.44900664699E+03  0.25500000000E-02 0.  1.
          2   -1    0    0  501    0  0.00000000000E+00 -0.00000000000E+00 -0.69557275818E+03  0.69557275819E+03  0.25500000000E-02 0. -1.
    8880023    1    1    2    0    0  0.15673418492E+03  0.24476431082E+03 -0.34966816455E+03  0.80034567790E+03  0.65864270000E+03 0. -1.
    8880022    1    1    2    0    0 -0.15673418492E+03 -0.24476431082E+03  0.10310205334E+03  0.34423372727E+03  0.15294330000E+03 0.  1.
<mgrwt>
<rscale>  0 0.59166291E+03</rscale>
<asrwt>0</asrwt>
<pdfrwt beam="1">  1        2 0.10701119E+00 0.71992040E+03</pdfrwt>
<pdfrwt beam="2">  1       -2 0.69077946E-01 0.71992040E+03</pdfrwt>
<totfact> 0.80168933E+01</totfact>
</mgrwt>
</event>
<event>
 4    1  0.8468429E-007  0.6593387E+03  0.7818608E-02  0.1024844E+00
         -2   -1    0    0    0  501 -0.00000000000E+00  0.00000000000E+00  0.75984921625E+03  0.75984921625E+03  0.25500000000E-02 0.  1.
          2   -1    0    0  501    0  0.00000000000E+00 -0.00000000000E+00 -0.73624891456E+03  0.73624891456E+03  0.25500000000E-02 0. -1.
    8880023    1    1    2    0    0  0.10831663515E+02  0.28285083254E+02 -0.57664973334E+03  0.87592950178E+03  0.65864270000E+03 0. -1.
    8880022    1    1    2    0    0 -0.10831663515E+02 -0.28285083254E+02  0.60025003503E+03  0.62016862903E+03  0.15294330000E+03 0.  0.
<mgrwt>
<rscale>  0 0.45978245E+03</rscale>
<asrwt>0</asrwt>
<pdfrwt beam="1">  1        2 0.11326906E+00 0.65933874E+03</pdfrwt>
<pdfrwt beam="2">  1       -2 0.11689988E+00 0.65933874E+03</pdfrwt>
<totfact> 0.22261085E+01</totfact>
</mgrwt>
</event>
<event>
 4    1  0.8468429E-007  0.1379009E+04  0.7818608E-02  0.9000167E-01
         -2   -1    0    0    0  501 -0.00000000000E+00  0.00000000000E+00  0.76405017806E+03  0.76405017806E+03  0.25500000000E-02 0.  1.
          2   -1    0    0  501    0  0.00000000000E+00 -0.00000000000E+00 -0.36557220778E+04  0.36557220778E+04  0.25500000000E-02 0. -1.
    8880023    1    1    2    0    0  0.73367011726E+03 -0.96414962757E+03 -0.11183784850E+03  0.13835368647E+04  0.65864270000E+03 0.  1.
    8880022    1    1    2    0    0 -0.73367011726E+03  0.96414962757E+03 -0.27798340512E+04  0.30362353912E+04  0.15294330000E+03 0.  0.
<mgrwt>
<rscale>  0 0.13377320E+04</rscale>
<asrwt>0</asrwt>
<pdfrwt beam="1">  1        2 0.56241877E+00 0.13790093E+04</pdfrwt>
<pdfrwt beam="2">  1       -2 0.11754618E+00 0.13790093E+04</pdfrwt>
<totfact> 0.34313257E-01</totfact>
</mgrwt>
</event>
<event>
 4    1  0.8468429E-007  0.7989696E+03  0.7818608E-02  0.9713028E-01
          2   -1    0    0  501    0  0.00000000000E+00  0.00000000000E+00  0.32825906060E+03  0.32825906061E+03  0.25500000000E-02 0. -1.
         -2   -1    0    0    0  501 -0.00000000000E+00 -0.00000000000E+00 -0.14442607170E+04  0.14442607170E+04  0.25500000000E-02 0.  1.
    8880023    1    1    2    0    0  0.38927664378E+03  0.23023012145E+03 -0.10022341899E+04  0.12817276590E+04  0.65864270000E+03 0. -1.
    8880022    1    1    2    0    0 -0.38927664378E+03 -0.23023012145E+03 -0.11376746648E+03  0.49079211858E+03  0.15294330000E+03 0.  0.
<mgrwt>
<rscale>  0 0.70246356E+03</rscale>
<asrwt>0</asrwt>
<pdfrwt beam="1">  1        2 0.50501395E-01 0.79896960E+03</pdfrwt>
<pdfrwt beam="2">  1       -2 0.22219395E+00 0.79896960E+03</pdfrwt>
<totfact> 0.96633507E+00</totfact>
</mgrwt>
</event>
<event>
 4    1  0.8468429E-007  0.6946179E+03  0.7818608E-02  0.1002031E+00
         -2   -1    0    0    0  501 -0.00000000000E+00  0.00000000000E+00  0.19919310281E+03  0.19919310283E+03  0.25500000000E-02 0.  1.
          2   -1    0    0  501    0  0.00000000000E+00 -0.00000000000E+00 -0.17065766231E+04  0.17065766231E+04  0.25500000000E-02 0. -1.
    8880023    1    1    2    0    0 -0.13651514411E+03 -0.17334178049E+03 -0.14812521168E+04  0.16360323338E+04  0.65864270000E+03 0. -1.
    8880022    1    1    2    0    0  0.13651514411E+03  0.17334178049E+03 -0.26131403453E+02  0.26973739210E+03  0.15294330000E+03 0.  0.
<mgrwt>
<rscale>  0 0.54768752E+03</rscale>
<asrwt>0</asrwt>
<pdfrwt beam="1">  1        2 0.26255024E+00 0.69461785E+03</pdfrwt>
<pdfrwt beam="2">  1       -2 0.30645094E-01 0.69461785E+03</pdfrwt>
<totfact> 0.98385962E+01</totfact>
</mgrwt>
</event>
<event>
 4    1  0.8468429E-007  0.7529480E+03  0.7818608E-02  0.9823719E-01
         -2   -1    0    0    0  501 -0.00000000000E+00  0.00000000000E+00  0.69844925150E+03  0.69844925150E+03  0.25500000000E-02 0.  1.
          2   -1    0    0  501    0  0.00000000000E+00 -0.00000000000E+00 -0.81810978476E+03  0.81810978476E+03  0.25500000000E-02 0. -1.
    8880023    1    1    2    0    0 -0.28807954805E+03  0.22389882755E+03 -0.54967689553E+03  0.93224213953E+03  0.65864270000E+03 0. -1.
    8880022    1    1    2    0    0  0.28807954805E+03 -0.22389882755E+03  0.43001636227E+03  0.58431689674E+03  0.15294330000E+03 0.  0.
<mgrwt>
<rscale>  0 0.64105052E+03</rscale>
<asrwt>0</asrwt>
<pdfrwt beam="1">  1        2 0.12586304E+00 0.75294802E+03</pdfrwt>
<pdfrwt beam="2">  1       -2 0.10745373E+00 0.75294802E+03</pdfrwt>
<totfact> 0.23575263E+01</totfact>
</mgrwt>
</event>
<event>
 4    1  0.8468429E-007  0.6797210E+03  0.7818608E-02  0.1009482E+00
          2   -1    0    0  501    0  0.00000000000E+00  0.00000000000E+00  0.32827096383E+03  0.32827096384E+03  0.25500000000E-02 0. -1.
         -2   -1    0    0    0  501 -0.00000000000E+00 -0.00000000000E+00 -0.96033125621E+03  0.96033125622E+03  0.25500000000E-02 0.  1.
    8880023    1    1    2    0    0 -0.14979346529E+03  0.75976372582E+02 -0.71144778900E+02  0.68343417917E+03  0.65864270000E+03 0. -1.
    8880022    1    1    2    0    0  0.14979346529E+03 -0.75976372582E+02 -0.56091551348E+03  0.60516804089E+03  0.15294330000E+03 0.  0.
<mgrwt>
<rscale>  0 0.51681071E+03</rscale>
<asrwt>0</asrwt>
<pdfrwt beam="1">  1        2 0.50503226E-01 0.67972104E+03</pdfrwt>
<pdfrwt beam="2">  1       -2 0.14774327E+00 0.67972104E+03</pdfrwt>
<totfact> 0.31499690E+01</totfact>
</mgrwt>
</event>
<event>
 4    1  0.8468429E-007  0.7641673E+03  0.7818608E-02  0.9794436E-01
          2   -1    0    0  501    0  0.00000000000E+00  0.00000000000E+00  0.96808850931E+03  0.96808850932E+03  0.25500000000E-02 0. -1.
         -2   -1    0    0    0  501 -0.00000000000E+00 -0.00000000000E+00 -0.51525804351E+03  0.51525804352E+03  0.25500000000E-02 0.  1.
    8880023    1    1    2    0    0 -0.62656396570E+02  0.38238145887E+03  0.66756071883E+03  0.10146866135E+04  0.65864270000E+03 0. -1.
    8880022    1    1    2    0    0  0.62656396570E+02 -0.38238145887E+03 -0.21473025303E+03  0.46865993929E+03  0.15294330000E+03 0.  0.
<mgrwt>
<rscale>  0 0.65661999E+03</rscale>
<asrwt>0</asrwt>
<pdfrwt beam="1">  1        2 0.14893669E+00 0.76416727E+03</pdfrwt>
<pdfrwt beam="2">  1       -2 0.79270469E-01 0.76416727E+03</pdfrwt>
<totfact> 0.37808262E+01</totfact>
</mgrwt>
</event>
<event>
 4    1  0.8468429E-007  0.6667127E+03  0.7818608E-02  0.1018138E+00
          2   -1    0    0  501    0  0.00000000000E+00  0.00000000000E+00  0.99122858889E+03  0.99122858889E+03  0.25500000000E-02 0. -1.
         -2   -1    0    0    0  501 -0.00000000000E+00 -0.00000000000E+00 -0.41151001989E+03  0.41151001990E+03  0.25500000000E-02 0.  1.
    8880023    1    1    2    0    0  0.10014198443E+03 -0.25829908690E+02  0.84698040443E+03  0.10779061244E+04  0.65864270000E+03 0. -1.
    8880022    1    1    2    0    0 -0.10014198443E+03  0.25829908690E+02 -0.26726183543E+03  0.32483248440E+03  0.15294330000E+03 0.  0.
<mgrwt>
<rscale>  0 0.48364649E+03</rscale>
<asrwt>0</asrwt>
<pdfrwt beam="1">  1        2 0.15249670E+00 0.66671269E+03</pdfrwt>
<pdfrwt beam="2">  1       -2 0.63309235E-01 0.66671269E+03</pdfrwt>
<totfact> 0.60280342E+01</totfact>
</mgrwt>
</event>
<event>
 4    1  0.8468429E-007  0.6746601E+03  0.7818608E-02  0.1012521E+00
          2   -1    0    0  501    0  0.00000000000E+00  0.00000000000E+00  0.60955619155E+03  0.60955619156E+03  0.25500000000E-02 0. -1.
         -2   -1    0    0    0  501 -0.00000000000E+00 -0.00000000000E+00 -0.40368647767E+03  0.40368647768E+03  0.25500000000E-02 0.  1.
    8880023    1    1    2    0    0 -0.90268091437E+01  0.14585786364E+03  0.34727840562E+03  0.75879410708E+03  0.65864270000E+03 0.  0.
    8880022    1    1    2    0    0  0.90268091437E+01 -0.14585786364E+03 -0.14140869173E+03  0.25444856215E+03  0.15294330000E+03 0.  0.
<mgrwt>
<rscale>  0 0.50484730E+03</rscale>
<asrwt>0</asrwt>
<pdfrwt beam="1">  1        2 0.93777875E-01 0.67466007E+03</pdfrwt>
<pdfrwt beam="2">  1       -2 0.62105612E-01 0.67466007E+03</pdfrwt>
<totfact> 0.11892111E+02</totfact>
</mgrwt>
</event>
<event>
 4    1  0.8468429E-007  0.6709844E+03  0.7818608E-02  0.1014967E+00
         -2   -1    0    0    0  501 -0.00000000000E+00  0.00000000000E+00  0.19942368413E+03  0.19942368415E+03  0.25500000000E-02 0.  1.
          2   -1    0    0  501    0  0.00000000000E+00 -0.00000000000E+00 -0.13711923212E+04  0.13711923212E+04  0.25500000000E-02 0. -1.
    8880023    1    1    2    0    0 -0.49996117593E+02 -0.11794177515E+03 -0.11942634384E+04  0.13698486196E+04  0.65864270000E+03 0. -1.
    8880022    1    1    2    0    0  0.49996117593E+02  0.11794177515E+03  0.22494801270E+02  0.20076738580E+03  0.15294330000E+03 0.  0.
<mgrwt>
<rscale>  0 0.49547505E+03</rscale>
<asrwt>0</asrwt>
<pdfrwt beam="1">  1        2 0.21095266E+00 0.67098441E+03</pdfrwt>
<pdfrwt beam="2">  1       -2 0.30680568E-01 0.67098441E+03</pdfrwt>
<totfact> 0.15090289E+02</totfact>
</mgrwt>
</event>
<event>
 4    1  0.8468429E-007  0.1076627E+04  0.7818608E-02  0.9287536E-01
         -2   -1    0    0    0  501 -0.00000000000E+00  0.00000000000E+00  0.56767505190E+03  0.56767505191E+03  0.25500000000E-02 0.  1.
          2   -1    0    0  501    0  0.00000000000E+00 -0.00000000000E+00 -0.34629509981E+04  0.34629509981E+04  0.25500000000E-02 0. -1.
    8880023    1    1    2    0    0  0.27415443221E+03 -0.80632240120E+03 -0.29729266331E+04  0.31618696114E+04  0.65864270000E+03 0. -1.
    8880022    1    1    2    0    0 -0.27415443221E+03  0.80632240120E+03  0.77650686940E+02  0.86875643858E+03  0.15294330000E+03 0.  0.
<mgrwt>
<rscale>  0 0.10193848E+04</rscale>
<asrwt>0</asrwt>
<pdfrwt beam="1">  1        2 0.53276168E+00 0.10766275E+04</pdfrwt>
<pdfrwt beam="2">  1       -2 0.87334625E-01 0.10766275E+04</pdfrwt>
<totfact> 0.99698461E-01</totfact>
</mgrwt>
</event>
<event>
 4    1  0.8468429E-007  0.6896171E+03  0.7818608E-02  0.1004335E+00
          2   -1    0    0  501    0  0.00000000000E+00  0.00000000000E+00  0.12840784516E+04  0.12840784516E+04  0.25500000000E-02 0. -1.
         -2   -1    0    0    0  501 -0.00000000000E+00 -0.00000000000E+00 -0.25362760666E+03  0.25362760667E+03  0.25500000000E-02 0.  1.
    8880023    1    1    2    0    0 -0.16381863051E+03  0.12216807405E+03  0.10763903781E+04  0.12783536421E+04  0.65864270000E+03 0. -1.
    8880022    1    1    2    0    0  0.16381863051E+03 -0.12216807405E+03 -0.45939533193E+02  0.25935241611E+03  0.15294330000E+03 0.  0.
<mgrwt>
<rscale>  0 0.53789565E+03</rscale>
<asrwt>0</asrwt>
<pdfrwt beam="1">  1        2 0.19755053E+00 0.68961713E+03</pdfrwt>
<pdfrwt beam="2">  1       -2 0.39019632E-01 0.68961713E+03</pdfrwt>
<totfact> 0.10704220E+02</totfact>
</mgrwt>
</event>
<event>
 4    1  0.8468429E-007  0.6593251E+03  0.7818608E-02  0.1024859E+00
         -2   -1    0    0    0  501 -0.00000000000E+00  0.00000000000E+00  0.16697153544E+03  0.16697153546E+03  0.25500000000E-02 0.  1.
          2   -1    0    0  501    0  0.00000000000E+00 -0.00000000000E+00 -0.20966675234E+04  0.20966675234E+04  0.25500000000E-02 0. -1.
    8880023    1    1    2    0    0 -0.95265975971E+01  0.28435378734E+02 -0.19901095595E+04  0.20964841024E+04  0.65864270000E+03 0. -1.
    8880022    1    1    2    0    0  0.95265975971E+01 -0.28435378734E+02  0.60413571501E+02  0.16715495644E+03  0.15294330000E+03 0.  0.
<mgrwt>
<rscale>  0 0.45973262E+03</rscale>
<asrwt>0</asrwt>
<pdfrwt beam="1">  1        2 0.32256422E+00 0.65932506E+03</pdfrwt>
<pdfrwt beam="2">  1       -2 0.25687930E-01 0.65932506E+03</pdfrwt>
<totfact> 0.83760965E+01</totfact>
</mgrwt>
</event>
<event>
 4    1  0.8468429E-007  0.1216437E+04  0.7818608E-02  0.9141308E-01
          2   -1    0    0  501    0  0.00000000000E+00  0.00000000000E+00  0.21316000450E+04  0.21316000451E+04  0.25500000000E-02 0. -1.
         -2   -1    0    0    0  501 -0.00000000000E+00 -0.00000000000E+00 -0.14768436262E+04  0.14768436262E+04  0.25500000000E-02 0.  1.
    8880023    1    1    2    0    0  0.38857979266E+03 -0.94599937858E+03  0.17311648698E+04  0.21158097959E+04  0.65864270000E+03 0.  0.
    8880022    1    1    2    0    0 -0.38857979266E+03  0.94599937858E+03 -0.10764084510E+04  0.14926338754E+04  0.15294330000E+03 0.  0.
<mgrwt>
<rscale>  0 0.11680320E+04</rscale>
<asrwt>0</asrwt>
<pdfrwt beam="1">  1        2 0.32793847E+00 0.12164371E+04</pdfrwt>
<pdfrwt beam="2">  1       -2 0.22720671E+00 0.12164371E+04</pdfrwt>
<totfact> 0.48738777E-01</totfact>
</mgrwt>
</event>
<event>
 4    1  0.8468429E-007  0.6945844E+03  0.7818608E-02  0.1002045E+00
         -2   -1    0    0    0  501 -0.00000000000E+00  0.00000000000E+00  0.16902717227E+03  0.16902717229E+03  0.25500000000E-02 0.  1.
          2   -1    0    0  501    0  0.00000000000E+00 -0.00000000000E+00 -0.18938221349E+04  0.18938221349E+04  0.25500000000E-02 0. -1.
    8880023    1    1    2    0    0  0.20882692602E+03  0.70912132734E+02 -0.16405902205E+04  0.17815677628E+04  0.65864270000E+03 0.  0.
    8880022    1    1    2    0    0 -0.20882692602E+03 -0.70912132734E+02 -0.84204742145E+02  0.28128154439E+03  0.15294330000E+03 0.  1.
<mgrwt>
<rscale>  0 0.54762349E+03</rscale>
<asrwt>0</asrwt>
<pdfrwt beam="1">  1        2 0.29135724E+00 0.69458435E+03</pdfrwt>
<pdfrwt beam="2">  1       -2 0.26004182E-01 0.69458435E+03</pdfrwt>
<totfact> 0.10519243E+02</totfact>
</mgrwt>
</event>
<event>
 4    1  0.8468429E-007  0.7509053E+03  0.7818608E-02  0.9829248E-01
          2   -1    0    0  501    0  0.00000000000E+00  0.00000000000E+00  0.15816209806E+04  0.15816209806E+04  0.25500000000E-02 0. -1.
         -2   -1    0    0    0  501 -0.00000000000E+00 -0.00000000000E+00 -0.24370987028E+03  0.24370987030E+03  0.25500000000E-02 0.  1.
    8880023    1    1    2    0    0  0.17951911908E+03 -0.31276423234E+03  0.11890045591E+04  0.14062683339E+04  0.65864270000E+03 0. -1.
    8880022    1    1    2    0    0 -0.17951911908E+03  0.31276423234E+03  0.14890655124E+03  0.41906251701E+03  0.15294330000E+03 0.  0.
<mgrwt>
<rscale>  0 0.63816251E+03</rscale>
<asrwt>0</asrwt>
<pdfrwt beam="1">  1        2 0.24332630E+00 0.75090531E+03</pdfrwt>
<pdfrwt beam="2">  1       -2 0.37493826E-01 0.75090531E+03</pdfrwt>
<totfact> 0.78193835E+01</totfact>
</mgrwt>
</event>
<event>
 4    1  0.8468429E-007  0.6646511E+03  0.7818608E-02  0.1019828E+00
          2   -1    0    0  501    0  0.00000000000E+00  0.00000000000E+00  0.34674742102E+03  0.34674742103E+03  0.25500000000E-02 0. -1.
         -2   -1    0    0    0  501 -0.00000000000E+00 -0.00000000000E+00 -0.88377484887E+03  0.88377484887E+03  0.25500000000E-02 0.  1.
    8880023    1    1    2    0    0  0.16005521155E+02  0.87719764584E+02  0.43641729197E+00  0.66465128491E+03  0.65864270000E+03 0. -1.
    8880022    1    1    2    0    0 -0.16005521155E+02 -0.87719764584E+02 -0.53746384514E+03  0.56587098499E+03  0.15294330000E+03 0.  0.
<mgrwt>
<rscale>  0 0.47748768E+03</rscale>
<asrwt>0</asrwt>
<pdfrwt beam="1">  1        2 0.53345758E-01 0.66465114E+03</pdfrwt>
<pdfrwt beam="2">  1       -2 0.13596536E+00 0.66465114E+03</pdfrwt>
<totfact> 0.36812995E+01</totfact>
</mgrwt>
</event>
<event>
 4    1  0.8468429E-007  0.7062581E+03  0.7818608E-02  0.9972168E-01
         -2   -1    0    0    0  501 -0.00000000000E+00  0.00000000000E+00  0.36618895744E+03  0.36618895744E+03  0.25500000000E-02 0.  1.
          2   -1    0    0  501    0  0.00000000000E+00 -0.00000000000E+00 -0.89667245814E+03  0.89667245815E+03  0.25500000000E-02 0. -1.
    8880023    1    1    2    0    0 -0.15415142458E+03  0.20304585885E+03 -0.63297676743E+03  0.94839869088E+03  0.65864270000E+03 0. -1.
    8880022    1    1    2    0    0  0.15415142458E+03 -0.20304585885E+03  0.10249326672E+03  0.31446272471E+03  0.15294330000E+03 0.  0.
<mgrwt>
<rscale>  0 0.56887653E+03</rscale>
<asrwt>0</asrwt>
<pdfrwt beam="1">  1        2 0.13794961E+00 0.70625809E+03</pdfrwt>
<pdfrwt beam="2">  1       -2 0.56336763E-01 0.70625809E+03</pdfrwt>
<totfact> 0.88598655E+01</totfact>
</mgrwt>
</event>
<event>
 4    1  0.8468429E-007  0.8072221E+03  0.7818608E-02  0.9695392E-01
         -2   -1    0    0    0  501 -0.00000000000E+00  0.00000000000E+00  0.31803791932E+03  0.31803791933E+03  0.25500000000E-02 0.  1.
          2   -1    0    0  501    0  0.00000000000E+00 -0.00000000000E+00 -0.13371026120E+04  0.13371026120E+04  0.25500000000E-02 0. -1.
    8880023    1    1    2    0    0  0.41935780697E+03  0.20478377909E+03 -0.70869696819E+03  0.10741782745E+04  0.65864270000E+03 0.  0.
    8880022    1    1    2    0    0 -0.41935780697E+03 -0.20478377909E+03 -0.31036772452E+03  0.58096225685E+03  0.15294330000E+03 0. -1.
<mgrwt>
<rscale>  0 0.71291785E+03</rscale>
<asrwt>0</asrwt>
<pdfrwt beam="1">  1        2 0.20570809E+00 0.80722213E+03</pdfrwt>
<pdfrwt beam="2">  1       -2 0.48928912E-01 0.80722213E+03</pdfrwt>
<totfact> 0.63042123E+01</totfact>
</mgrwt>
</event>
<event>
 4    1  0.8468429E-007  0.7471942E+03  0.7818608E-02  0.9839466E-01
          2   -1    0    0  501    0  0.00000000000E+00  0.00000000000E+00  0.18653756863E+04  0.18653756863E+04  0.25500000000E-02 0. -1.
         -2   -1    0    0    0  501 -0.00000000000E+00 -0.00000000000E+00 -0.22972103129E+03  0.22972103130E+03  0.25500000000E-02 0.  1.
    8880023    1    1    2    0    0 -0.33551365256E+03  0.10917670155E+03  0.15196807392E+04  0.16934369544E+04  0.65864270000E+03 0. -1.
    8880022    1    1    2    0    0  0.33551365256E+03 -0.10917670155E+03  0.11597391584E+03  0.40165976321E+03  0.15294330000E+03 0.  0.
<mgrwt>
<rscale>  0 0.63286929E+03</rscale>
<asrwt>0</asrwt>
<pdfrwt beam="1">  1        2 0.28698089E+00 0.74719420E+03</pdfrwt>
<pdfrwt beam="2">  1       -2 0.35341696E-01 0.74719420E+03</pdfrwt>
<totfact> 0.61272644E+01</totfact>
</mgrwt>
</event>
<event>
 4    1  0.8468429E-007  0.7366991E+03  0.7818608E-02  0.9869669E-01
         -2   -1    0    0    0  501 -0.00000000000E+00  0.00000000000E+00  0.40270292030E+03  0.40270292031E+03  0.25500000000E-02 0.  1.
          2   -1    0    0  501    0  0.00000000000E+00 -0.00000000000E+00 -0.95757563793E+03  0.95757563793E+03  0.25500000000E-02 0. -1.
    8880023    1    1    2    0    0 -0.32268007747E+03  0.69230903100E+02 -0.65201150518E+03  0.98379091249E+03  0.65864270000E+03 0.  0.
    8880022    1    1    2    0    0  0.32268007747E+03 -0.69230903100E+02  0.97138787560E+02  0.37648764575E+03  0.15294330000E+03 0.  0.
<mgrwt>
<rscale>  0 0.61754052E+03</rscale>
<asrwt>0</asrwt>
<pdfrwt beam="1">  1        2 0.14731933E+00 0.73669910E+03</pdfrwt>
<pdfrwt beam="2">  1       -2 0.61954296E-01 0.73669910E+03</pdfrwt>
<totfact> 0.65951345E+01</totfact>
</mgrwt>
</event>
<event>
 4    1  0.1537206E-006  0.7012503E+03  0.7818608E-02  0.9992053E-01
          2   -1    0    0  501    0  0.00000000000E+00  0.00000000000E+00  0.17781805261E+04  0.17781805261E+04  0.25500000000E-02 0. -1.
         -2   -1    0    0    0  501 -0.00000000000E+00 -0.00000000000E+00 -0.12961569004E+04  0.12961569004E+04  0.25500000000E-02 0.  1.
    8880023    1    1    2    0    0 -0.71171256356E+02  0.22994884627E+03  0.16918127091E+04  0.18313880715E+04  0.65864270000E+03 0. -1.
    8880022    1    1    2    0    0  0.71171256356E+02 -0.22994884627E+03 -0.12097890834E+04  0.12429493549E+04  0.15294330000E+03 0.  0.
<mgrwt>
<rscale>  0 0.56000058E+03</rscale>
<asrwt>0</asrwt>
<pdfrwt beam="1">  1        2 0.27356623E+00 0.70125033E+03</pdfrwt>
<pdfrwt beam="2">  1       -2 0.19940875E+00 0.70125033E+03</pdfrwt>
<totfact> 0.12484706E+00</totfact>
</mgrwt>
</event>
<event>
 4    1  0.8468429E-007  0.1092367E+04  0.7818608E-02  0.9269602E-01
          2   -1    0    0  501    0  0.00000000000E+00  0.00000000000E+00  0.21391747171E+04  0.21391747171E+04  0.25500000000E-02 0. -1.
         -2   -1    0    0    0  501 -0.00000000000E+00 -0.00000000000E+00 -0.50042880549E+03  0.50042880550E+03  0.25500000000E-02 0.  1.
    8880023    1    1    2    0    0  0.10821370390E+02 -0.87140051536E+03  0.51040607667E+03  0.12057282155E+04  0.65864270000E+03 0.  1.
    8880022    1    1    2    0    0 -0.10821370390E+02  0.87140051536E+03  0.11283398349E+04  0.14338753071E+04  0.15294330000E+03 0.  0.
<mgrwt>
<rscale>  0 0.10363016E+04</rscale>
<asrwt>0</asrwt>
<pdfrwt beam="1">  1        2 0.32910381E+00 0.10923672E+04</pdfrwt>
<pdfrwt beam="2">  1       -2 0.76989045E-01 0.10923672E+04</pdfrwt>
<totfact> 0.83655386E+00</totfact>
</mgrwt>
</event>
<event>
 4    1  0.8468429E-007  0.8138637E+03  0.7818608E-02  0.9681585E-01
          2   -1    0    0  501    0  0.00000000000E+00  0.00000000000E+00  0.60847602154E+03  0.60847602155E+03  0.25500000000E-02 0. -1.
         -2   -1    0    0    0  501 -0.00000000000E+00 -0.00000000000E+00 -0.95469754453E+03  0.95469754453E+03  0.25500000000E-02 0.  1.
    8880023    1    1    2    0    0  0.45416740725E+03 -0.14931786363E+03  0.18256062020E+03  0.83408779185E+03  0.65864270000E+03 0. -1.
    8880022    1    1    2    0    0 -0.45416740725E+03  0.14931786363E+03 -0.52878214319E+03  0.72908577422E+03  0.15294330000E+03 0.  0.
<mgrwt>
<rscale>  0 0.72123904E+03</rscale>
<asrwt>0</asrwt>
<pdfrwt beam="1">  1        2 0.93611696E-01 0.81386366E+03</pdfrwt>
<pdfrwt beam="2">  1       -2 0.14687655E+00 0.81386366E+03</pdfrwt>
<totfact> 0.15573825E+01</totfact>
</mgrwt>
</event>
<event>
 4    1  0.8468429E-007  0.9851930E+03  0.7818608E-02  0.9401191E-01
          2   -1    0    0  501    0  0.00000000000E+00  0.00000000000E+00  0.11752221250E+04  0.11752221250E+04  0.25500000000E-02 0. -1.
         -2   -1    0    0    0  501 -0.00000000000E+00 -0.00000000000E+00 -0.95460858417E+03  0.95460858417E+03  0.25500000000E-02 0.  1.
    8880023    1    1    2    0    0  0.67666720751E+03 -0.28092079194E+03  0.72853441048E+03  0.12253030623E+04  0.65864270000E+03 0.  0.
    8880022    1    1    2    0    0 -0.67666720751E+03  0.28092079194E+03 -0.50792086964E+03  0.90452764684E+03  0.15294330000E+03 0.  0.
<mgrwt>
<rscale>  0 0.91977707E+03</rscale>
<asrwt>0</asrwt>
<pdfrwt beam="1">  1        2 0.18080340E+00 0.98519298E+03</pdfrwt>
<pdfrwt beam="2">  1       -2 0.14686286E+00 0.98519298E+03</pdfrwt>
<totfact> 0.61665833E+00</totfact>
</mgrwt>
</event>
<event>
 4    1  0.8468429E-007  0.1259499E+04  0.7818608E-02  0.9101349E-01
         -2   -1    0    0    0  501 -0.00000000000E+00  0.00000000000E+00  0.51600257732E+03  0.51600257732E+03  0.25500000000E-02 0.  1.
          2   -1    0    0  501    0  0.00000000000E+00 -0.00000000000E+00 -0.26963134944E+04  0.26963134944E+04  0.25500000000E-02 0. -1.
    8880023    1    1    2    0    0  0.10135596893E+04  0.35387122171E+03 -0.98917330578E+03  0.16014999595E+04  0.65864270000E+03 0.  1.
    8880022    1    1    2    0    0 -0.10135596893E+04 -0.35387122171E+03 -0.11911376113E+04  0.16108161122E+04  0.15294330000E+03 0. -1.
<mgrwt>
<rscale>  0 0.12132370E+04</rscale>
<asrwt>0</asrwt>
<pdfrwt beam="1">  1        2 0.41481745E+00 0.12594992E+04</pdfrwt>
<pdfrwt beam="2">  1       -2 0.79385013E-01 0.12594992E+04</pdfrwt>
<totfact> 0.36873039E+00</totfact>
</mgrwt>
</event>
<event>
 4    1  0.8468429E-007  0.9686631E+03  0.7818608E-02  0.9423756E-01
         -2   -1    0    0    0  501 -0.00000000000E+00  0.00000000000E+00  0.52423477527E+03  0.52423477528E+03  0.25500000000E-02 0.  1.
          2   -1    0    0  501    0  0.00000000000E+00 -0.00000000000E+00 -0.18034695487E+04  0.18034695487E+04  0.25500000000E-02 0. -1.
    8880023    1    1    2    0    0  0.47914056784E+03  0.52433026852E+03 -0.12748775996E+04  0.16011311672E+04  0.65864270000E+03 0. -1.
    8880022    1    1    2    0    0 -0.47914056784E+03 -0.52433026852E+03 -0.43571738251E+01  0.72657315682E+03  0.15294330000E+03 0.  0.
<mgrwt>
<rscale>  0 0.90146203E+03</rscale>
<asrwt>0</asrwt>
<pdfrwt beam="1">  1        2 0.27745685E+00 0.96866306E+03</pdfrwt>
<pdfrwt beam="2">  1       -2 0.80651505E-01 0.96866306E+03</pdfrwt>
<totfact> 0.11695921E+01</totfact>
</mgrwt>
</event>
<event>
 4    1  0.8468429E-007  0.1423859E+04  0.7818608E-02  0.8965362E-01
          2   -1    0    0  501    0  0.00000000000E+00  0.00000000000E+00  0.14208441760E+04  0.14208441760E+04  0.25500000000E-02 0. -1.
         -2   -1    0    0    0  501 -0.00000000000E+00 -0.00000000000E+00 -0.17776613408E+04  0.17776613408E+04  0.25500000000E-02 0.  1.
    8880023    1    1    2    0    0  0.12570437750E+04 -0.11578320572E+03  0.66092619967E+03  0.15697765608E+04  0.65864270000E+03 0.  0.
    8880022    1    1    2    0    0 -0.12570437750E+04  0.11578320572E+03 -0.10177433645E+04  0.16287289560E+04  0.15294330000E+03 0.  0.
<mgrwt>
<rscale>  0 0.13841641E+04</rscale>
<asrwt>0</asrwt>
<pdfrwt beam="1">  1        2 0.21859141E+00 0.14238592E+04</pdfrwt>
<pdfrwt beam="2">  1       -2 0.27348636E+00 0.14238592E+04</pdfrwt>
<totfact> 0.61637491E-01</totfact>
</mgrwt>
</event>
<event>
 4    1  0.8468429E-007  0.6730122E+03  0.7818608E-02  0.1013590E+00
          2   -1    0    0  501    0  0.00000000000E+00  0.00000000000E+00  0.25172476543E+04  0.25172476543E+04  0.25500000000E-02 0. -1.
         -2   -1    0    0    0  501 -0.00000000000E+00 -0.00000000000E+00 -0.10145660081E+03  0.10145660084E+03  0.25500000000E-02 0.  1.
    8880023    1    1    2    0    0 -0.49917006115E+02 -0.12900959440E+03  0.22659772928E+04  0.23638101618E+04  0.65864270000E+03 0. -1.
    8880022    1    1    2    0    0  0.49917006115E+02  0.12900959440E+03  0.14981376066E+03  0.25489409339E+03  0.15294330000E+03 0. -1.
<mgrwt>
<rscale>  0 0.50072592E+03</rscale>
<asrwt>0</asrwt>
<pdfrwt beam="1">  1        2 0.38726885E+00 0.67301218E+03</pdfrwt>
<pdfrwt beam="2">  1       -2 0.15608709E-01 0.67301218E+03</pdfrwt>
<totfact> 0.11677783E+02</totfact>
</mgrwt>
</event>
<event>
 4    1  0.8468429E-007  0.9418831E+03  0.7818608E-02  0.9461890E-01
          2   -1    0    0  501    0  0.00000000000E+00  0.00000000000E+00  0.17086821412E+04  0.17086821412E+04  0.25500000000E-02 0. -1.
         -2   -1    0    0    0  501 -0.00000000000E+00 -0.00000000000E+00 -0.50186461135E+03  0.50186461135E+03  0.25500000000E-02 0.  1.
    8880023    1    1    2    0    0 -0.58374525422E+03 -0.33552214703E+03  0.15827042760E+03  0.95508814645E+03  0.65864270000E+03 0.  1.
    8880022    1    1    2    0    0  0.58374525422E+03  0.33552214703E+03  0.10485471022E+04  0.12554586061E+04  0.15294330000E+03 0.  0.
<mgrwt>
<rscale>  0 0.87152789E+03</rscale>
<asrwt>0</asrwt>
<pdfrwt beam="1">  1        2 0.26287418E+00 0.94188313E+03</pdfrwt>
<pdfrwt beam="2">  1       -2 0.77209940E-01 0.94188313E+03</pdfrwt>
<totfact> 0.14590393E+01</totfact>
</mgrwt>
</event>
<event>
 4    1  0.8468429E-007  0.7862569E+03  0.7818608E-02  0.9741339E-01
          2   -1    0    0  501    0  0.00000000000E+00  0.00000000000E+00  0.20593010128E+04  0.20593010128E+04  0.25500000000E-02 0. -1.
         -2   -1    0    0    0  501 -0.00000000000E+00 -0.00000000000E+00 -0.35951289245E+03  0.35951289245E+03  0.25500000000E-02 0.  1.
    8880023    1    1    2    0    0  0.99543815931E+02 -0.41770891658E+03  0.17891632058E+04  0.19543041968E+04  0.65864270000E+03 0.  0.
    8880022    1    1    2    0    0 -0.99543815931E+02  0.41770891658E+03 -0.89375085517E+02  0.46450970841E+03  0.15294330000E+03 0.  0.
<mgrwt>
<rscale>  0 0.68607908E+03</rscale>
<asrwt>0</asrwt>
<pdfrwt beam="1">  1        2 0.31681554E+00 0.78625690E+03</pdfrwt>
<pdfrwt beam="2">  1       -2 0.55309676E-01 0.78625690E+03</pdfrwt>
<totfact> 0.19601877E+01</totfact>
</mgrwt>
</event>
<event>
 4    1  0.8468429E-007  0.8963727E+03  0.7818608E-02  0.9531880E-01
          2   -1    0    0  501    0  0.00000000000E+00  0.00000000000E+00  0.20454483657E+04  0.20454483657E+04  0.25500000000E-02 0. -1.
         -2   -1    0    0    0  501 -0.00000000000E+00 -0.00000000000E+00 -0.34341141757E+03  0.34341141758E+03  0.25500000000E-02 0.  1.
    8880023    1    1    2    0    0  0.18339507366E+03 -0.57968967026E+03  0.14672463508E+04  0.17193882421E+04  0.65864270000E+03 0.  0.
    8880022    1    1    2    0    0 -0.18339507366E+03  0.57968967026E+03  0.23479059733E+03  0.66947154119E+03  0.15294330000E+03 0.  0.
<mgrwt>
<rscale>  0 0.81973711E+03</rscale>
<asrwt>0</asrwt>
<pdfrwt beam="1">  1        2 0.31468436E+00 0.89637273E+03</pdfrwt>
<pdfrwt beam="2">  1       -2 0.52832527E-01 0.89637273E+03</pdfrwt>
<totfact> 0.21636971E+01</totfact>
</mgrwt>
</event>
<event>
 4    1  0.8609686E-007  0.7505538E+03  0.7818608E-02  0.9830207E-01
         -2   -1    0    0    0  501 -0.00000000000E+00  0.00000000000E+00  0.51330284726E+03  0.51330284727E+03  0.25500000000E-02 0.  1.
          2   -1    0    0  501    0  0.00000000000E+00 -0.00000000000E+00 -0.18358339189E+04  0.18358339189E+04  0.25500000000E-02 0. -1.
    8880023    1    1    2    0    0 -0.30235076348E+03 -0.19520469324E+03 -0.16668968163E+04  0.18280798830E+04  0.65864270000E+03 0. -1.
    8880022    1    1    2    0    0  0.30235076348E+03  0.19520469324E+03  0.34436574459E+03  0.52105688317E+03  0.15294330000E+03 0.  0.
<mgrwt>
<rscale>  0 0.63766380E+03</rscale>
<asrwt>0</asrwt>
<pdfrwt beam="1">  1        2 0.28243598E+00 0.75055384E+03</pdfrwt>
<pdfrwt beam="2">  1       -2 0.78969670E-01 0.75055384E+03</pdfrwt>
<totfact> 0.12097254E+01</totfact>
</mgrwt>
</event>
<event>
 4    1  0.8468429E-007  0.6839342E+03  0.7818608E-02  0.1007180E+00
         -2   -1    0    0    0  501 -0.00000000000E+00  0.00000000000E+00  0.20332084665E+03  0.20332084667E+03  0.25500000000E-02 0.  1.
          2   -1    0    0  501    0  0.00000000000E+00 -0.00000000000E+00 -0.11332686904E+04  0.11332686904E+04  0.25500000000E-02 0. -1.
    8880023    1    1    2    0    0  0.84445806298E+02 -0.16378237118E+03 -0.50996338532E+03  0.85312872413E+03  0.65864270000E+03 0.  0.
    8880022    1    1    2    0    0 -0.84445806298E+02  0.16378237118E+03 -0.41998445844E+03  0.48346081295E+03  0.15294330000E+03 0.  0.
<mgrwt>
<rscale>  0 0.52610807E+03</rscale>
<asrwt>0</asrwt>
<pdfrwt beam="1">  1        2 0.17434903E+00 0.68393418E+03</pdfrwt>
<pdfrwt beam="2">  1       -2 0.31280131E-01 0.68393418E+03</pdfrwt>
<totfact> 0.20006161E+02</totfact>
</mgrwt>
</event>
<event>
 4    1  0.8468429E-007  0.8264496E+03  0.7818608E-02  0.9656280E-01
          2   -1    0    0  501    0  0.00000000000E+00  0.00000000000E+00  0.10128325536E+04  0.10128325536E+04  0.25500000000E-02 0. -1.
         -2   -1    0    0    0  501 -0.00000000000E+00 -0.00000000000E+00 -0.66266339477E+03  0.66266339477E+03  0.25500000000E-02 0.  1.
    8880023    1    1    2    0    0 -0.49914282133E+03  0.80768167675E+01  0.66938753876E+03  0.10635312287E+04  0.65864270000E+03 0. -1.
    8880022    1    1    2    0    0  0.49914282133E+03 -0.80768167675E+01 -0.31921837993E+03  0.61196471970E+03  0.15294330000E+03 0.  0.
<mgrwt>
<rscale>  0 0.73680593E+03</rscale>
<asrwt>0</asrwt>
<pdfrwt beam="1">  1        2 0.15582039E+00 0.82644963E+03</pdfrwt>
<pdfrwt beam="2">  1       -2 0.10194822E+00 0.82644963E+03</pdfrwt>
<totfact> 0.19671805E+01</totfact>
</mgrwt>
</event>
<event>
 4    1  0.8468429E-007  0.8700818E+03  0.7818608E-02  0.9575876E-01
          2   -1    0    0  501    0  0.00000000000E+00  0.00000000000E+00  0.23919661898E+04  0.23919661898E+04  0.25500000000E-02 0. -1.
         -2   -1    0    0    0  501 -0.00000000000E+00 -0.00000000000E+00 -0.45431855421E+03  0.45431855421E+03  0.25500000000E-02 0.  1.
    8880023    1    1    2    0    0  0.56730695374E+03  0.37347981388E+02  0.20677328353E+04  0.22433370982E+04  0.65864270000E+03 0. -1.
    8880022    1    1    2    0    0 -0.56730695374E+03 -0.37347981388E+02 -0.13008519970E+03  0.60294764588E+03  0.15294330000E+03 0.  0.
<mgrwt>
<rscale>  0 0.78913686E+03</rscale>
<asrwt>0</asrwt>
<pdfrwt beam="1">  1        2 0.36799479E+00 0.87008175E+03</pdfrwt>
<pdfrwt beam="2">  1       -2 0.69895163E-01 0.87008175E+03</pdfrwt>
<totfact> 0.76932809E+00</totfact>
</mgrwt>
</event>
<event>
 4    1  0.8468429E-007  0.6665396E+03  0.7818608E-02  0.1018275E+00
          2   -1    0    0  501    0  0.00000000000E+00  0.00000000000E+00  0.14525410627E+04  0.14525410627E+04  0.25500000000E-02 0. -1.
         -2   -1    0    0    0  501 -0.00000000000E+00 -0.00000000000E+00 -0.17665005060E+03  0.17665005062E+03  0.25500000000E-02 0.  1.
    8880023    1    1    2    0    0 -0.10020988928E+02 -0.10180553784E+03  0.12821810522E+04  0.14450824352E+04  0.65864270000E+03 0. -1.
    8880022    1    1    2    0    0  0.10020988928E+02  0.10180553784E+03 -0.62900400245E+01  0.18410867815E+03  0.15294330000E+03 0.  0.
<mgrwt>
<rscale>  0 0.48314180E+03</rscale>
<asrwt>0</asrwt>
<pdfrwt beam="1">  1        2 0.22346787E+00 0.66653957E+03</pdfrwt>
<pdfrwt beam="2">  1       -2 0.27176930E-01 0.66653957E+03</pdfrwt>
<totfact> 0.16987596E+02</totfact>
</mgrwt>
</event>
<event>
 4    1  0.8468429E-007  0.6804955E+03  0.7818608E-02  0.1009045E+00
         -2   -1    0    0    0  501 -0.00000000000E+00  0.00000000000E+00  0.32794206914E+03  0.32794206915E+03  0.25500000000E-02 0.  1.
          2   -1    0    0  501    0  0.00000000000E+00 -0.00000000000E+00 -0.10375302494E+04  0.10375302494E+04  0.25500000000E-02 0. -1.
    8880023    1    1    2    0    0  0.80984467492E+02  0.15068302894E+03 -0.85580534162E+03  0.10933786390E+04  0.65864270000E+03 0. -1.
    8880022    1    1    2    0    0 -0.80984467492E+02 -0.15068302894E+03  0.14621716135E+03  0.27209367959E+03  0.15294330000E+03 0.  0.
<mgrwt>
<rscale>  0 0.51856046E+03</rscale>
<asrwt>0</asrwt>
<pdfrwt beam="1">  1        2 0.15962004E+00 0.68049546E+03</pdfrwt>
<pdfrwt beam="2">  1       -2 0.50452627E-01 0.68049546E+03</pdfrwt>
<totfact> 0.90321521E+01</totfact>
</mgrwt>
</event>
<event>
 4    1  0.8468429E-007  0.1154671E+04  0.7818608E-02  0.9202497E-01
          2   -1    0    0  501    0  0.00000000000E+00  0.00000000000E+00  0.14359055871E+04  0.14359055871E+04  0.25500000000E-02 0. -1.
         -2   -1    0    0    0  501 -0.00000000000E+00 -0.00000000000E+00 -0.15214565086E+04  0.15214565086E+04  0.25500000000E-02 0.  1.
    8880023    1    1    2    0    0  0.40304411663E+03 -0.85849273637E+03  0.98590490254E+03  0.15183125572E+04  0.65864270000E+03 0. -1.
    8880022    1    1    2    0    0 -0.40304411663E+03  0.85849273637E+03 -0.10714558240E+04  0.14390495385E+04  0.15294330000E+03 0.  0.
<mgrwt>
<rscale>  0 0.11027696E+04</rscale>
<asrwt>0</asrwt>
<pdfrwt beam="1">  1        2 0.22090855E+00 0.11546708E+04</pdfrwt>
<pdfrwt beam="2">  1       -2 0.23407023E+00 0.11546708E+04</pdfrwt>
<totfact> 0.10864853E+00</totfact>
</mgrwt>
</event>
<event>
 4    1  0.8468429E-007  0.7585101E+03  0.7818608E-02  0.9808980E-01
          2   -1    0    0  501    0  0.00000000000E+00  0.00000000000E+00  0.30298227105E+04  0.30298227105E+04  0.25500000000E-02 0. -1.
         -2   -1    0    0    0  501 -0.00000000000E+00 -0.00000000000E+00 -0.17775928050E+03  0.17775928052E+03  0.25500000000E-02 0.  1.
    8880023    1    1    2    0    0  0.34131361150E+03  0.15821629953E+03  0.26452493670E+04  0.27518506135E+04  0.65864270000E+03 0. -1.
    8880022    1    1    2    0    0 -0.34131361150E+03 -0.15821629953E+03  0.20681406298E+03  0.45573137757E+03  0.15294330000E+03 0.  0.
<mgrwt>
<rscale>  0 0.64882844E+03</rscale>
<asrwt>0</asrwt>
<pdfrwt beam="1">  1        2 0.46612654E+00 0.75851011E+03</pdfrwt>
<pdfrwt beam="2">  1       -2 0.27347584E-01 0.75851011E+03</pdfrwt>
<totfact> 0.21475657E+01</totfact>
</mgrwt>
</event>
<event>
 4    1  0.8468429E-007  0.6827280E+03  0.7818608E-02  0.1007821E+00
         -2   -1    0    0    0  501 -0.00000000000E+00  0.00000000000E+00  0.99493456066E+03  0.99493456066E+03  0.25500000000E-02 0.  1.
          2   -1    0    0  501    0  0.00000000000E+00 -0.00000000000E+00 -0.87490420806E+03  0.87490420806E+03  0.25500000000E-02 0. -1.
    8880023    1    1    2    0    0 -0.14909223523E+03  0.10039336546E+03 -0.72299342119E+03  0.99440284381E+03  0.65864270000E+03 0.  0.
    8880022    1    1    2    0    0  0.14909223523E+03 -0.10039336546E+03  0.84302377379E+03  0.87543592491E+03  0.15294330000E+03 0.  1.
<mgrwt>
<rscale>  0 0.52350000E+03</rscale>
<asrwt>0</asrwt>
<pdfrwt beam="1">  1        2 0.13460065E+00 0.68272800E+03</pdfrwt>
<pdfrwt beam="2">  1       -2 0.15306685E+00 0.68272800E+03</pdfrwt>
<totfact> 0.88823448E+00</totfact>
</mgrwt>
</event>
<event>
 4    1  0.8468429E-007  0.1053531E+04  0.7818608E-02  0.9314648E-01
          2   -1    0    0  501    0  0.00000000000E+00  0.00000000000E+00  0.37316180299E+04  0.37316180299E+04  0.25500000000E-02 0. -1.
         -2   -1    0    0    0  501 -0.00000000000E+00 -0.00000000000E+00 -0.42302550055E+03  0.42302550056E+03  0.25500000000E-02 0.  1.
    8880023    1    1    2    0    0 -0.77765348956E+03 -0.26715780933E+03  0.31257534293E+04  0.32985243598E+04  0.65864270000E+03 0.  0.
    8880022    1    1    2    0    0  0.77765348956E+03  0.26715780933E+03  0.18283910005E+03  0.85611917070E+03  0.15294330000E+03 0.  0.
<mgrwt>
<rscale>  0 0.99445435E+03</rscale>
<asrwt>0</asrwt>
<pdfrwt beam="1">  1        2 0.57409508E+00 0.10535314E+04</pdfrwt>
<pdfrwt beam="2">  1       -2 0.65080847E-01 0.10535314E+04</pdfrwt>
<totfact> 0.12455499E+00</totfact>
</mgrwt>
</event>
<event>
 4    1  0.8468429E-007  0.8583310E+03  0.7818608E-02  0.9596539E-01
          2   -1    0    0  501    0  0.00000000000E+00  0.00000000000E+00  0.25356920363E+04  0.25356920363E+04  0.25500000000E-02 0. -1.
         -2   -1    0    0    0  501 -0.00000000000E+00 -0.00000000000E+00 -0.31926438867E+03  0.31926438868E+03  0.25500000000E-02 0.  1.
    8880023    1    1    2    0    0  0.43849232558E+03  0.33263547341E+03  0.21045660837E+04  0.22728683387E+04  0.65864270000E+03 0. -1.
    8880022    1    1    2    0    0 -0.43849232558E+03 -0.33263547341E+03  0.11186156391E+03  0.58208808634E+03  0.15294330000E+03 0.  1.
<mgrwt>
<rscale>  0 0.77525661E+03</rscale>
<asrwt>0</asrwt>
<pdfrwt beam="1">  1        2 0.39010647E+00 0.85833099E+03</pdfrwt>
<pdfrwt beam="2">  1       -2 0.49117598E-01 0.85833099E+03</pdfrwt>
<totfact> 0.13433528E+01</totfact>
</mgrwt>
</event>
<event>
 4    1  0.8468429E-007  0.8401287E+03  0.7818608E-02  0.9629938E-01
          2   -1    0    0  501    0  0.00000000000E+00  0.00000000000E+00  0.26847998874E+04  0.26847998874E+04  0.25500000000E-02 0. -1.
         -2   -1    0    0    0  501 -0.00000000000E+00 -0.00000000000E+00 -0.81377233215E+03  0.81377233215E+03  0.25500000000E-02 0.  1.
    8880023    1    1    2    0    0 -0.49302433810E+03  0.17009725180E+03  0.25175026358E+04  0.26539848908E+04  0.65864270000E+03 0. -1.
    8880022    1    1    2    0    0  0.49302433810E+03 -0.17009725180E+03 -0.64647508058E+03  0.84458732873E+03  0.15294330000E+03 0.  0.
<mgrwt>
<rscale>  0 0.75346012E+03</rscale>
<asrwt>0</asrwt>
<pdfrwt beam="1">  1        2 0.41304613E+00 0.84012873E+03</pdfrwt>
<pdfrwt beam="2">  1       -2 0.12519575E+00 0.84012873E+03</pdfrwt>
<totfact> 0.13446750E+00</totfact>
</mgrwt>
</event>
<event>
 4    1  0.8468429E-007  0.1130411E+04  0.7818608E-02  0.9227930E-01
          2   -1    0    0  501    0  0.00000000000E+00  0.00000000000E+00  0.22006624060E+04  0.22006624060E+04  0.25500000000E-02 0. -1.
         -2   -1    0    0    0  501 -0.00000000000E+00 -0.00000000000E+00 -0.97998354891E+03  0.97998354891E+03  0.25500000000E-02 0.  1.
    8880023    1    1    2    0    0 -0.86314761429E+03 -0.31463365695E+03  0.17694031401E+04  0.20996704076E+04  0.65864270000E+03 0.  0.
    8880022    1    1    2    0    0  0.86314761429E+03  0.31463365695E+03 -0.54872428300E+03  0.10809755473E+04  0.15294330000E+03 0.  0.
<mgrwt>
<rscale>  0 0.10769740E+04</rscale>
<asrwt>0</asrwt>
<pdfrwt beam="1">  1        2 0.33856345E+00 0.11304107E+04</pdfrwt>
<pdfrwt beam="2">  1       -2 0.15076670E+00 0.11304107E+04</pdfrwt>
<totfact> 0.14992798E+00</totfact>
</mgrwt>
</event>
<event>
 4    1  0.8468429E-007  0.7044054E+03  0.7818608E-02  0.9979394E-01
         -2   -1    0    0    0  501 -0.00000000000E+00  0.00000000000E+00  0.33071766260E+03  0.33071766261E+03  0.25500000000E-02 0.  1.
          2   -1    0    0  501    0  0.00000000000E+00 -0.00000000000E+00 -0.17063971916E+04  0.17063971916E+04  0.25500000000E-02 0. -1.
    8880023    1    1    2    0    0  0.21335524043E+03  0.12983185969E+03 -0.15455852718E+04  0.16985349007E+04  0.65864270000E+03 0. -1.
    8880022    1    1    2    0    0 -0.21335524043E+03 -0.12983185969E+03  0.16990574282E+03  0.33857995343E+03  0.15294330000E+03 0.  0.
<mgrwt>
<rscale>  0 0.56563066E+03</rscale>
<asrwt>0</asrwt>
<pdfrwt beam="1">  1        2 0.26252264E+00 0.70440541E+03</pdfrwt>
<pdfrwt beam="2">  1       -2 0.50879641E-01 0.70440541E+03</pdfrwt>
<totfact> 0.36651205E+01</totfact>
</mgrwt>
</event>
<event>
 4    1  0.8468429E-007  0.7494446E+03  0.7818608E-02  0.9833243E-01
         -2   -1    0    0    0  501 -0.00000000000E+00  0.00000000000E+00  0.13034734319E+03  0.13034734321E+03  0.25500000000E-02 0.  1.
          2   -1    0    0  501    0  0.00000000000E+00 -0.00000000000E+00 -0.25182336985E+04  0.25182336985E+04  0.25500000000E-02 0. -1.
    8880023    1    1    2    0    0  0.80266655714E+02  0.34844542420E+03 -0.17107585409E+04  0.18677157014E+04  0.65864270000E+03 0.  1.
    8880022    1    1    2    0    0 -0.80266655714E+02 -0.34844542420E+03 -0.67712781440E+03  0.78086534032E+03  0.15294330000E+03 0. -1.
<mgrwt>
<rscale>  0 0.63608632E+03</rscale>
<asrwt>0</asrwt>
<pdfrwt beam="1">  1        2 0.38742053E+00 0.74944456E+03</pdfrwt>
<pdfrwt beam="2">  1       -2 0.20053439E-01 0.74944456E+03</pdfrwt>
<totfact> 0.75022085E+01</totfact>
</mgrwt>
</event>
<event>
 4    1  0.8468429E-007  0.8314117E+03  0.7818608E-02  0.9646592E-01
          2   -1    0    0  501    0  0.00000000000E+00  0.00000000000E+00  0.24571857191E+04  0.24571857191E+04  0.25500000000E-02 0. -1.
         -2   -1    0    0    0  501 -0.00000000000E+00 -0.00000000000E+00 -0.33651509973E+03  0.33651509974E+03  0.25500000000E-02 0.  1.
    8880023    1    1    2    0    0 -0.25500664965E+03  0.43864193661E+03  0.21053273765E+04  0.22635478144E+04  0.65864270000E+03 0.  0.
    8880022    1    1    2    0    0  0.25500664965E+03 -0.43864193661E+03  0.15343242874E+02  0.53015300436E+03  0.15294330000E+03 0.  0.
<mgrwt>
<rscale>  0 0.74287698E+03</rscale>
<asrwt>0</asrwt>
<pdfrwt beam="1">  1        2 0.37802859E+00 0.83141166E+03</pdfrwt>
<pdfrwt beam="2">  1       -2 0.51771552E-01 0.83141166E+03</pdfrwt>
<totfact> 0.13422510E+01</totfact>
</mgrwt>
</event>
<event>
 4    1  0.1015012E-006  0.6610685E+03  0.7818608E-02  0.1023087E+00
          2   -1    0    0  501    0  0.00000000000E+00  0.00000000000E+00  0.22796019838E+04  0.22796019838E+04  0.25500000000E-02 0. -1.
         -2   -1    0    0    0  501 -0.00000000000E+00 -0.00000000000E+00 -0.40427850684E+03  0.40427850685E+03  0.25500000000E-02 0.  1.
    8880023    1    1    2    0    0 -0.43901685469E+02  0.35692622453E+02  0.22126026411E+04  0.23092470580E+04  0.65864270000E+03 0. -1.
    8880022    1    1    2    0    0  0.43901685469E+02 -0.35692622453E+02 -0.33727916413E+03  0.37463343264E+03  0.15294330000E+03 0.  0.
<mgrwt>
<rscale>  0 0.46588711E+03</rscale>
<asrwt>0</asrwt>
<pdfrwt beam="1">  1        2 0.35070799E+00 0.66106847E+03</pdfrwt>
<pdfrwt beam="2">  1       -2 0.62196694E-01 0.66106847E+03</pdfrwt>
<totfact> 0.11818264E+01</totfact>
</mgrwt>
</event>
<event>
 4    1  0.8468429E-007  0.6914996E+03  0.7818608E-02  0.1003448E+00
          2   -1    0    0  501    0  0.00000000000E+00  0.00000000000E+00  0.16580748336E+04  0.16580748336E+04  0.25500000000E-02 0. -1.
         -2   -1    0    0    0  501 -0.00000000000E+00 -0.00000000000E+00 -0.38190481779E+03  0.38190481780E+03  0.25500000000E-02 0.  1.
    8880023    1    1    2    0    0 -0.19610412201E+03  0.76841947294E+02  0.15283838600E+04  0.16775365693E+04  0.65864270000E+03 0. -1.
    8880022    1    1    2    0    0  0.19610412201E+03 -0.76841947294E+02 -0.25221384421E+03  0.36244308209E+03  0.15294330000E+03 0.  0.
<mgrwt>
<rscale>  0 0.54163928E+03</rscale>
<asrwt>0</asrwt>
<pdfrwt beam="1">  1        2 0.25508844E+00 0.69149962E+03</pdfrwt>
<pdfrwt beam="2">  1       -2 0.58754587E-01 0.69149962E+03</pdfrwt>
<totfact> 0.28961730E+01</totfact>
</mgrwt>
</event>
<event>
 4    1  0.8468429E-007  0.7181166E+03  0.7818608E-02  0.9929011E-01
         -2   -1    0    0    0  501 -0.00000000000E+00  0.00000000000E+00  0.23382294737E+04  0.23382294737E+04  0.25500000000E-02 0.  1.
          2   -1    0    0  501    0  0.00000000000E+00 -0.00000000000E+00 -0.24190363376E+03  0.24190363378E+03  0.25500000000E-02 0. -1.
    8880023    1    1    2    0    0  0.10081089387E+03  0.26780284096E+03  0.34080973516E+03  0.79488532493E+03  0.65864270000E+03 0. -1.
    8880022    1    1    2    0    0 -0.10081089387E+03 -0.26780284096E+03  0.17555161048E+04  0.17852477826E+04  0.15294330000E+03 0.  0.
<mgrwt>
<rscale>  0 0.58875656E+03</rscale>
<asrwt>0</asrwt>
<pdfrwt beam="1">  1        2 0.37215943E-01 0.71811657E+03</pdfrwt>
<pdfrwt beam="2">  1       -2 0.35972761E+00 0.71811657E+03</pdfrwt>
<totfact> 0.19960387E+00</totfact>
</mgrwt>
</event>
<event>
 4    1  0.8468429E-007  0.7039771E+03  0.7818608E-02  0.9981086E-01
         -2   -1    0    0    0  501 -0.00000000000E+00  0.00000000000E+00  0.61651015715E+03  0.61651015715E+03  0.25500000000E-02 0.  1.
          2   -1    0    0  501    0  0.00000000000E+00 -0.00000000000E+00 -0.85664680005E+03  0.85664680006E+03  0.25500000000E-02 0. -1.
    8880023    1    1    2    0    0  0.16775055096E+03 -0.18339368947E+03 -0.65790946180E+03  0.96354997736E+03  0.65864270000E+03 0. -1.
    8880022    1    1    2    0    0 -0.16775055096E+03  0.18339368947E+03  0.41777281890E+03  0.50960697985E+03  0.15294330000E+03 0.  0.
<mgrwt>
<rscale>  0 0.56487404E+03</rscale>
<asrwt>0</asrwt>
<pdfrwt beam="1">  1        2 0.13179181E+00 0.70397706E+03</pdfrwt>
<pdfrwt beam="2">  1       -2 0.94847717E-01 0.70397706E+03</pdfrwt>
<totfact> 0.29937193E+01</totfact>
</mgrwt>
</event>
<event>
 4    1  0.8468429E-007  0.7302902E+03  0.7818608E-02  0.9889191E-01
         -2   -1    0    0    0  501 -0.00000000000E+00  0.00000000000E+00  0.42984009028E+03  0.42984009029E+03  0.25500000000E-02 0.  1.
          2   -1    0    0  501    0  0.00000000000E+00 -0.00000000000E+00 -0.11750725033E+04  0.11750725033E+04  0.25500000000E-02 0. -1.
    8880023    1    1    2    0    0  0.31353606748E+03 -0.34767074947E+02 -0.95050482824E+03  0.11986589381E+04  0.65864270000E+03 0.  0.
    8880022    1    1    2    0    0 -0.31353606748E+03  0.34767074947E+02  0.20527241524E+03  0.40625365547E+03  0.15294330000E+03 0.  0.
<mgrwt>
<rscale>  0 0.60788011E+03</rscale>
<asrwt>0</asrwt>
<pdfrwt beam="1">  1        2 0.18078038E+00 0.73029023E+03</pdfrwt>
<pdfrwt beam="2">  1       -2 0.66129245E-01 0.73029023E+03</pdfrwt>
<totfact> 0.42055619E+01</totfact>
</mgrwt>
</event>
<event>
 4    1  0.8468429E-007  0.6852536E+03  0.7818608E-02  0.1006495E+00
          2   -1    0    0  501    0  0.00000000000E+00  0.00000000000E+00  0.32942366846E+04  0.32942366846E+04  0.25500000000E-02 0. -1.
         -2   -1    0    0    0  501 -0.00000000000E+00 -0.00000000000E+00 -0.80690645284E+02  0.80690645324E+02  0.25500000000E-02 0.  1.
    8880023    1    1    2    0    0  0.90385545703E+02 -0.16611058212E+03  0.28901768497E+04  0.29703021229E+04  0.65864270000E+03 0. -1.
    8880022    1    1    2    0    0 -0.90385545703E+02  0.16611058212E+03  0.32336918958E+03  0.40462520701E+03  0.15294330000E+03 0.  1.
<mgrwt>
<rscale>  0 0.52891567E+03</rscale>
<asrwt>0</asrwt>
<pdfrwt beam="1">  1        2 0.50680560E+00 0.68525359E+03</pdfrwt>
<pdfrwt beam="2">  1       -2 0.12413947E-01 0.68525359E+03</pdfrwt>
<totfact> 0.58254533E+01</totfact>
</mgrwt>
</event>
<event>
 4    1  0.8468429E-007  0.6942600E+03  0.7818608E-02  0.1002190E+00
         -2   -1    0    0    0  501 -0.00000000000E+00  0.00000000000E+00  0.13577808861E+03  0.13577808864E+03  0.25500000000E-02 0.  1.
          2   -1    0    0  501    0  0.00000000000E+00 -0.00000000000E+00 -0.24350447655E+04  0.24350447655E+04  0.25500000000E-02 0. -1.
    8880023    1    1    2    0    0  0.14210210550E+03  0.16731335931E+03 -0.85204999592E+03  0.10990842417E+04  0.65864270000E+03 0.  1.
    8880022    1    1    2    0    0 -0.14210210550E+03 -0.16731335931E+03 -0.14472166809E+04  0.14717386124E+04  0.15294330000E+03 0.  0.
<mgrwt>
<rscale>  0 0.54700259E+03</rscale>
<asrwt>0</asrwt>
<pdfrwt beam="1">  1        2 0.37462224E+00 0.69426002E+03</pdfrwt>
<pdfrwt beam="2">  1       -2 0.20888938E-01 0.69426002E+03</pdfrwt>
<totfact> 0.78367869E+01</totfact>
</mgrwt>
</event>
<event>
 4    1  0.8468429E-007  0.7315804E+03  0.7818608E-02  0.9885188E-01
          2   -1    0    0  501    0  0.00000000000E+00  0.00000000000E+00  0.49660013393E+03  0.49660013394E+03  0.25500000000E-02 0. -1.
         -2   -1    0    0    0  501 -0.00000000000E+00 -0.00000000000E+00 -0.71799825634E+03  0.71799825634E+03  0.25500000000E-02 0.  1.
    8880023    1    1    2    0    0  0.31188095211E+03 -0.64264485911E+02  0.98300189125E+02  0.73815498771E+03  0.65864270000E+03 0.  0.
    8880022    1    1    2    0    0 -0.31188095211E+03  0.64264485911E+02 -0.31969831153E+03  0.47644340257E+03  0.15294330000E+03 0.  0.
<mgrwt>
<rscale>  0 0.60984516E+03</rscale>
<asrwt>0</asrwt>
<pdfrwt beam="1">  1        2 0.76400021E-01 0.73158038E+03</pdfrwt>
<pdfrwt beam="2">  1       -2 0.11046127E+00 0.73158038E+03</pdfrwt>
<totfact> 0.40905141E+01</totfact>
</mgrwt>
</event>
<event>
 4    1  0.8468429E-007  0.1256291E+04  0.7818608E-02  0.9104256E-01
          2   -1    0    0  501    0  0.00000000000E+00  0.00000000000E+00  0.12078729505E+04  0.12078729505E+04  0.25500000000E-02 0. -1.
         -2   -1    0    0    0  501 -0.00000000000E+00 -0.00000000000E+00 -0.17158856896E+04  0.17158856896E+04  0.25500000000E-02 0.  1.
    8880023    1    1    2    0    0  0.62851273285E+03 -0.86569485068E+03  0.58578536169E+03  0.13861495324E+04  0.65864270000E+03 0. -1.
    8880022    1    1    2    0    0 -0.62851273285E+03  0.86569485068E+03 -0.10937981008E+04  0.15376091077E+04  0.15294330000E+03 0.  0.
<mgrwt>
<rscale>  0 0.12098760E+04</rscale>
<asrwt>0</asrwt>
<pdfrwt beam="1">  1        2 0.18582661E+00 0.12562906E+04</pdfrwt>
<pdfrwt beam="2">  1       -2 0.26398241E+00 0.12562906E+04</pdfrwt>
<totfact> 0.95607124E-01</totfact>
</mgrwt>
</event>
<event>
 4    1  0.8468429E-007  0.7059502E+03  0.7818608E-02  0.9973359E-01
         -2   -1    0    0    0  501 -0.00000000000E+00  0.00000000000E+00  0.34958303914E+03  0.34958303915E+03  0.25500000000E-02 0.  1.
          2   -1    0    0  501    0  0.00000000000E+00 -0.00000000000E+00 -0.18607944178E+04  0.18607944178E+04  0.25500000000E-02 0. -1.
    8880023    1    1    2    0    0  0.23177567200E+03 -0.10409382697E+03 -0.17122688696E+04  0.18520881121E+04  0.65864270000E+03 0. -1.
    8880022    1    1    2    0    0 -0.23177567200E+03  0.10409382697E+03  0.20105749094E+03  0.35828934484E+03  0.15294330000E+03 0.  0.
<mgrwt>
<rscale>  0 0.56834006E+03</rscale>
<asrwt>0</asrwt>
<pdfrwt beam="1">  1        2 0.28627606E+00 0.70595021E+03</pdfrwt>
<pdfrwt beam="2">  1       -2 0.53782007E-01 0.70595021E+03</pdfrwt>
<totfact> 0.26944239E+01</totfact>
</mgrwt>
</event>
<event>
 4    1  0.8468429E-007  0.1226040E+04  0.7818608E-02  0.9132216E-01
         -2   -1    0    0    0  501 -0.00000000000E+00  0.00000000000E+00  0.68395739936E+03  0.68395739937E+03  0.25500000000E-02 0.  1.
          2   -1    0    0  501    0  0.00000000000E+00 -0.00000000000E+00 -0.29456329003E+04  0.29456329003E+04  0.25500000000E-02 0. -1.
    8880023    1    1    2    0    0  0.95516388290E+03  0.39626411374E+03 -0.10206148526E+03  0.12302804737E+04  0.65864270000E+03 0.  0.
    8880022    1    1    2    0    0 -0.95516388290E+03 -0.39626411374E+03 -0.21596140157E+04  0.23993098259E+04  0.15294330000E+03 0.  0.
<mgrwt>
<rscale>  0 0.11781315E+04</rscale>
<asrwt>0</asrwt>
<pdfrwt beam="1">  1        2 0.45317429E+00 0.12260398E+04</pdfrwt>
<pdfrwt beam="2">  1       -2 0.10522422E+00 0.12260398E+04</pdfrwt>
<totfact> 0.13569726E+00</totfact>
</mgrwt>
</event>
<event>
 4    1  0.8468429E-007  0.6922896E+03  0.7818608E-02  0.1003083E+00
         -2   -1    0    0    0  501 -0.00000000000E+00  0.00000000000E+00  0.14044850554E+04  0.14044850554E+04  0.25500000000E-02 0.  1.
          2   -1    0    0  501    0  0.00000000000E+00 -0.00000000000E+00 -0.47403847902E+03  0.47403847903E+03  0.25500000000E-02 0. -1.
    8880023    1    1    2    0    0  0.19914733385E+03 -0.76124840561E+02 -0.19794056680E+03  0.72003147582E+03  0.65864270000E+03 0. -1.
    8880022    1    1    2    0    0 -0.19914733385E+03  0.76124840561E+02  0.11283871432E+04  0.11584920586E+04  0.15294330000E+03 0.  0.
<mgrwt>
<rscale>  0 0.54318895E+03</rscale>
<asrwt>0</asrwt>
<pdfrwt beam="1">  1        2 0.72928998E-01 0.69228958E+03</pdfrwt>
<pdfrwt beam="2">  1       -2 0.21607462E+00 0.69228958E+03</pdfrwt>
<totfact> 0.70568572E+00</totfact>
</mgrwt>
</event>
<event>
 4    1  0.8468429E-007  0.6840413E+03  0.7818608E-02  0.1007124E+00
          2   -1    0    0  501    0  0.00000000000E+00  0.00000000000E+00  0.72321475768E+03  0.72321475769E+03  0.25500000000E-02 0. -1.
         -2   -1    0    0    0  501 -0.00000000000E+00 -0.00000000000E+00 -0.54489776091E+03  0.54489776092E+03  0.25500000000E-02 0.  1.
    8880023    1    1    2    0    0 -0.86688110892E+02  0.16305648454E+03  0.51396750075E+03  0.85561384036E+03  0.65864270000E+03 0. -1.
    8880022    1    1    2    0    0  0.86688110892E+02 -0.16305648454E+03 -0.33565050398E+03  0.41249867825E+03  0.15294330000E+03 0.  0.
<mgrwt>
<rscale>  0 0.52633766E+03</rscale>
<asrwt>0</asrwt>
<pdfrwt beam="1">  1        2 0.11126381E+00 0.68404126E+03</pdfrwt>
<pdfrwt beam="2">  1       -2 0.83830425E-01 0.68404126E+03</pdfrwt>
<totfact> 0.49774232E+01</totfact>
</mgrwt>
</event>
<event>
 4    1  0.8468429E-007  0.6604242E+03  0.7818608E-02  0.1023726E+00
          2   -1    0    0  501    0  0.00000000000E+00  0.00000000000E+00  0.24241104492E+04  0.24241104492E+04  0.25500000000E-02 0. -1.
         -2   -1    0    0    0  501 -0.00000000000E+00 -0.00000000000E+00 -0.17746171487E+03  0.17746171489E+03  0.25500000000E-02 0.  1.
    8880023    1    1    2    0    0  0.47099899682E+02 -0.11465364315E+02  0.23292843822E+04  0.24211001207E+04  0.65864270000E+03 0. -1.
    8880022    1    1    2    0    0 -0.47099899682E+02  0.11465364315E+02 -0.82635647868E+02  0.18047204338E+03  0.15294330000E+03 0.  0.
<mgrwt>
<rscale>  0 0.46365661E+03</rscale>
<asrwt>0</asrwt>
<pdfrwt beam="1">  1        2 0.37294001E+00 0.66042415E+03</pdfrwt>
<pdfrwt beam="2">  1       -2 0.27301807E-01 0.66042415E+03</pdfrwt>
<totfact> 0.49455840E+01</totfact>
</mgrwt>
</event>
<event>
 4    1  0.8468429E-007  0.6849214E+03  0.7818608E-02  0.1006666E+00
         -2   -1    0    0    0  501 -0.00000000000E+00  0.00000000000E+00  0.73703508999E+03  0.73703509000E+03  0.25500000000E-02 0.  1.
          2   -1    0    0  501    0  0.00000000000E+00 -0.00000000000E+00 -0.14756967733E+04  0.14756967733E+04  0.25500000000E-02 0. -1.
    8880023    1    1    2    0    0  0.18561037183E+03 -0.29256094464E+02 -0.13726418396E+04  0.15340348612E+04  0.65864270000E+03 0. -1.
    8880022    1    1    2    0    0 -0.18561037183E+03  0.29256094464E+02  0.63398015626E+03  0.67869700216E+03  0.15294330000E+03 0.  0.
<mgrwt>
<rscale>  0 0.52821313E+03</rscale>
<asrwt>0</asrwt>
<pdfrwt beam="1">  1        2 0.22703027E+00 0.68492141E+03</pdfrwt>
<pdfrwt beam="2">  1       -2 0.11339001E+00 0.68492141E+03</pdfrwt>
<totfact> 0.82699048E+00</totfact>
</mgrwt>
</event>
<event>
 4    1  0.8468429E-007  0.7345882E+03  0.7818608E-02  0.9876001E-01
         -2   -1    0    0    0  501 -0.00000000000E+00  0.00000000000E+00  0.12623513018E+03  0.12623513021E+03  0.25500000000E-02 0.  1.
          2   -1    0    0  501    0  0.00000000000E+00 -0.00000000000E+00 -0.27047575046E+04  0.27047575046E+04  0.25500000000E-02 0. -1.
    8880023    1    1    2    0    0 -0.29361986165E+03  0.13998942933E+03 -0.12053545530E+04  0.14115592330E+04  0.65864270000E+03 0.  0.
    8880022    1    1    2    0    0  0.29361986165E+03 -0.13998942933E+03 -0.13731678214E+04  0.14194334019E+04  0.15294330000E+03 0.  0.
<mgrwt>
<rscale>  0 0.61438604E+03</rscale>
<asrwt>0</asrwt>
<pdfrwt beam="1">  1        2 0.41611650E+00 0.73458823E+03</pdfrwt>
<pdfrwt beam="2">  1       -2 0.19420791E-01 0.73458823E+03</pdfrwt>
<totfact> 0.62101911E+01</totfact>
</mgrwt>
</event>
<event>
 4    1  0.1057507E-006  0.7037056E+03  0.7818608E-02  0.9982163E-01
          2   -1    0    0  501    0  0.00000000000E+00  0.00000000000E+00  0.26350054045E+04  0.26350054045E+04  0.25500000000E-02 0. -1.
         -2   -1    0    0    0  501 -0.00000000000E+00 -0.00000000000E+00 -0.83531783867E+03  0.83531783868E+03  0.25500000000E-02 0.  1.
    8880023    1    1    2    0    0  0.24102873953E+03  0.57414849902E+02  0.25606345280E+04  0.26555697525E+04  0.65864270000E+03 0.  0.
    8880022    1    1    2    0    0 -0.24102873953E+03 -0.57414849902E+02 -0.76094696218E+03  0.81475349065E+03  0.15294330000E+03 0.  0.
<mgrwt>
<rscale>  0 0.56439326E+03</rscale>
<asrwt>0</asrwt>
<pdfrwt beam="1">  1        2 0.40538545E+00 0.70370557E+03</pdfrwt>
<pdfrwt beam="2">  1       -2 0.12851044E+00 0.70370557E+03</pdfrwt>
<totfact> 0.13835933E+00</totfact>
</mgrwt>
</event>
<event>
 4    1  0.8468429E-007  0.1190109E+04  0.7818608E-02  0.9166797E-01
          2   -1    0    0  501    0  0.00000000000E+00  0.00000000000E+00  0.27816214401E+04  0.27816214401E+04  0.25500000000E-02 0. -1.
         -2   -1    0    0    0  501 -0.00000000000E+00 -0.00000000000E+00 -0.47114864807E+03  0.47114864807E+03  0.25500000000E-02 0.  1.
    8880023    1    1    2    0    0 -0.56301951845E+03 -0.81581762635E+03  0.17113507073E+04  0.20844857465E+04  0.65864270000E+03 0.  0.
    8880022    1    1    2    0    0  0.56301951845E+03  0.81581762635E+03  0.59912208472E+03  0.11682843417E+04  0.15294330000E+03 0.  0.
<mgrwt>
<rscale>  0 0.11402803E+04</rscale>
<asrwt>0</asrwt>
<pdfrwt beam="1">  1        2 0.42794176E+00 0.11901091E+04</pdfrwt>
<pdfrwt beam="2">  1       -2 0.72484407E-01 0.11901091E+04</pdfrwt>
<totfact> 0.40537088E+00</totfact>
</mgrwt>
</event>
<event>
 4    1  0.8468429E-007  0.7700817E+03  0.7818608E-02  0.9779673E-01
         -2   -1    0    0    0  501 -0.00000000000E+00  0.00000000000E+00  0.42241316407E+03  0.42241316408E+03  0.25500000000E-02 0.  1.
          2   -1    0    0  501    0  0.00000000000E+00 -0.00000000000E+00 -0.21567695515E+04  0.21567695515E+04  0.25500000000E-02 0. -1.
    8880023    1    1    2    0    0 -0.38633354627E+03 -0.99809937856E+02 -0.19528761350E+04  0.20992262950E+04  0.65864270000E+03 0. -1.
    8880022    1    1    2    0    0  0.38633354627E+03  0.99809937856E+02  0.21851974750E+03  0.47995642065E+03  0.15294330000E+03 0.  0.
<mgrwt>
<rscale>  0 0.66464902E+03</rscale>
<asrwt>0</asrwt>
<pdfrwt beam="1">  1        2 0.33181069E+00 0.77008171E+03</pdfrwt>
<pdfrwt beam="2">  1       -2 0.64986642E-01 0.77008171E+03</pdfrwt>
<totfact> 0.12354330E+01</totfact>
</mgrwt>
</event>
<event>
 4    1  0.8468429E-007  0.8935164E+03  0.7818608E-02  0.9536521E-01
          2   -1    0    0  501    0  0.00000000000E+00  0.00000000000E+00  0.78021258668E+03  0.78021258668E+03  0.25500000000E-02 0. -1.
         -2   -1    0    0    0  501 -0.00000000000E+00 -0.00000000000E+00 -0.73679080250E+03  0.73679080250E+03  0.25500000000E-02 0.  1.
    8880023    1    1    2    0    0 -0.19320594219E+03  0.57204268306E+03  0.23373282806E+02  0.89382206504E+03  0.65864270000E+03 0.  0.
    8880022    1    1    2    0    0  0.19320594219E+03 -0.57204268306E+03  0.20048501376E+02  0.62318132414E+03  0.15294330000E+03 0.  1.
<mgrwt>
<rscale>  0 0.81644003E+03</rscale>
<asrwt>0</asrwt>
<pdfrwt beam="1">  1        2 0.12003271E+00 0.89351641E+03</pdfrwt>
<pdfrwt beam="2">  1       -2 0.11335243E+00 0.89351641E+03</pdfrwt>
<totfact> 0.21789071E+01</totfact>
</mgrwt>
</event>
<event>
 4    1  0.8468429E-007  0.7411439E+03  0.7818608E-02  0.9856628E-01
          2   -1    0    0  501    0  0.00000000000E+00  0.00000000000E+00  0.12951234910E+04  0.12951234910E+04  0.25500000000E-02 0. -1.
         -2   -1    0    0    0  501 -0.00000000000E+00 -0.00000000000E+00 -0.37302241599E+03  0.37302241599E+03  0.25500000000E-02 0.  1.
    8880023    1    1    2    0    0  0.32304797168E+03 -0.10547046055E+03  0.10401932755E+04  0.12772220898E+04  0.65864270000E+03 0. -1.
    8880022    1    1    2    0    0 -0.32304797168E+03  0.10547046055E+03 -0.11809220043E+03  0.39092381723E+03  0.15294330000E+03 0.  0.
<mgrwt>
<rscale>  0 0.62410139E+03</rscale>
<asrwt>0</asrwt>
<pdfrwt beam="1">  1        2 0.19924977E+00 0.74114386E+03</pdfrwt>
<pdfrwt beam="2">  1       -2 0.57388063E-01 0.74114386E+03</pdfrwt>
<totfact> 0.48277457E+01</totfact>
</mgrwt>
</event>
<event>
 4    1  0.8468429E-007  0.6640777E+03  0.7818608E-02  0.1020320E+00
          2   -1    0    0  501    0  0.00000000000E+00  0.00000000000E+00  0.92249195164E+03  0.92249195164E+03  0.25500000000E-02 0. -1.
         -2   -1    0    0    0  501 -0.00000000000E+00 -0.00000000000E+00 -0.28487080257E+03  0.28487080258E+03  0.25500000000E-02 0.  1.
    8880023    1    1    2    0    0 -0.17656654789E+02 -0.82929111668E+02  0.74824668697E+03  0.10004360578E+04  0.65864270000E+03 0. -1.
    8880022    1    1    2    0    0  0.17656654789E+02  0.82929111668E+02 -0.11062553790E+03  0.20692669637E+03  0.15294330000E+03 0.  0.
<mgrwt>
<rscale>  0 0.47571299E+03</rscale>
<asrwt>0</asrwt>
<pdfrwt beam="1">  1        2 0.14192184E+00 0.66407771E+03</pdfrwt>
<pdfrwt beam="2">  1       -2 0.43826278E-01 0.66407771E+03</pdfrwt>
<totfact> 0.14224298E+02</totfact>
</mgrwt>
</event>
<event>
 4    1  0.8468429E-007  0.7502898E+03  0.7818608E-02  0.9830928E-01
         -2   -1    0    0    0  501 -0.00000000000E+00  0.00000000000E+00  0.56586840053E+03  0.56586840053E+03  0.25500000000E-02 0.  1.
          2   -1    0    0  501    0  0.00000000000E+00 -0.00000000000E+00 -0.92351212719E+03  0.92351212719E+03  0.25500000000E-02 0. -1.
    8880023    1    1    2    0    0 -0.34334955131E+03  0.10599843114E+03 -0.65701958866E+03  0.99730112199E+03  0.65864270000E+03 0.  0.
    8880022    1    1    2    0    0  0.34334955131E+03 -0.10599843114E+03  0.29937586200E+03  0.49207940573E+03  0.15294330000E+03 0.  0.
<mgrwt>
<rscale>  0 0.63728881E+03</rscale>
<asrwt>0</asrwt>
<pdfrwt beam="1">  1        2 0.14207879E+00 0.75028980E+03</pdfrwt>
<pdfrwt beam="2">  1       -2 0.87056677E-01 0.75028980E+03</pdfrwt>
<totfact> 0.32744059E+01</totfact>
</mgrwt>
</event>
<event>
 4    1  0.8468429E-007  0.6984104E+03  0.7818608E-02  0.1000386E+00
          2   -1    0    0  501    0  0.00000000000E+00  0.00000000000E+00  0.10333873733E+04  0.10333873733E+04  0.25500000000E-02 0. -1.
         -2   -1    0    0    0  501 -0.00000000000E+00 -0.00000000000E+00 -0.62593648386E+03  0.62593648386E+03  0.25500000000E-02 0.  1.
    8880023    1    1    2    0    0  0.82913011317E+02 -0.21700748338E+03  0.87240646412E+03  0.11175285501E+04  0.65864270000E+03 0. -1.
    8880022    1    1    2    0    0 -0.82913011317E+02  0.21700748338E+03 -0.46495557472E+03  0.54179530707E+03  0.15294330000E+03 0.  0.
<mgrwt>
<rscale>  0 0.55481282E+03</rscale>
<asrwt>0</asrwt>
<pdfrwt beam="1">  1        2 0.15898267E+00 0.69841035E+03</pdfrwt>
<pdfrwt beam="2">  1       -2 0.96297922E-01 0.69841035E+03</pdfrwt>
<totfact> 0.22138127E+01</totfact>
</mgrwt>
</event>
<event>
 4    1  0.8468429E-007  0.7001644E+03  0.7818608E-02  0.9996520E-01
          2   -1    0    0  501    0  0.00000000000E+00  0.00000000000E+00  0.15771772445E+04  0.15771772445E+04  0.25500000000E-02 0. -1.
         -2   -1    0    0    0  501 -0.00000000000E+00 -0.00000000000E+00 -0.21473843392E+03  0.21473843393E+03  0.25500000000E-02 0.  1.
    8880023    1    1    2    0    0  0.23674240436E+03 -0.19314108228E+02  0.13357721578E+04  0.15081503455E+04  0.65864270000E+03 0. -1.
    8880022    1    1    2    0    0 -0.23674240436E+03  0.19314108228E+02  0.26666652794E+02  0.28376533295E+03  0.15294330000E+03 0.  0.
<mgrwt>
<rscale>  0 0.55803099E+03</rscale>
<asrwt>0</asrwt>
<pdfrwt beam="1">  1        2 0.24264265E+00 0.70016441E+03</pdfrwt>
<pdfrwt beam="2">  1       -2 0.33036682E-01 0.70016441E+03</pdfrwt>
<totfact> 0.10058164E+02</totfact>
</mgrwt>
</event>
<event>
 4    1  0.8468429E-007  0.8477778E+03  0.7818608E-02  0.9615685E-01
          2   -1    0    0  501    0  0.00000000000E+00  0.00000000000E+00  0.14666287221E+04  0.14666287221E+04  0.25500000000E-02 0. -1.
         -2   -1    0    0    0  501 -0.00000000000E+00 -0.00000000000E+00 -0.12417298019E+04  0.12417298019E+04  0.25500000000E-02 0.  1.
    8880023    1    1    2    0    0  0.47901501502E+03  0.23550280346E+03  0.12688018560E+04  0.15259702851E+04  0.65864270000E+03 0.  0.
    8880022    1    1    2    0    0 -0.47901501502E+03 -0.23550280346E+03 -0.10439029358E+04  0.11823882389E+04  0.15294330000E+03 0.  0.
<mgrwt>
<rscale>  0 0.76266660E+03</rscale>
<asrwt>0</asrwt>
<pdfrwt beam="1">  1        2 0.22563519E+00 0.84777778E+03</pdfrwt>
<pdfrwt beam="2">  1       -2 0.19103535E+00 0.84777778E+03</pdfrwt>
<totfact> 0.20511342E+00</totfact>
</mgrwt>
</event>
<event>
 4    1  0.8468429E-007  0.8016397E+03  0.7818608E-02  0.9707262E-01
          2   -1    0    0  501    0  0.00000000000E+00  0.00000000000E+00  0.19203385808E+04  0.19203385808E+04  0.25500000000E-02 0. -1.
         -2   -1    0    0    0  501 -0.00000000000E+00 -0.00000000000E+00 -0.36285441244E+03  0.36285441245E+03  0.25500000000E-02 0.  1.
    8880023    1    1    2    0    0 -0.28241872067E+02 -0.45609033019E+03  0.16099263271E+04  0.17984685090E+04  0.65864270000E+03 0. -1.
    8880022    1    1    2    0    0  0.28241872067E+02  0.45609033019E+03 -0.52442158786E+02  0.48472448429E+03  0.15294330000E+03 0.  0.
<mgrwt>
<rscale>  0 0.70586065E+03</rscale>
<asrwt>0</asrwt>
<pdfrwt beam="1">  1        2 0.29543671E+00 0.80163969E+03</pdfrwt>
<pdfrwt beam="2">  1       -2 0.55823755E-01 0.80163969E+03</pdfrwt>
<totfact> 0.22859019E+01</totfact>
</mgrwt>
</event>
<event>
 4    1  0.8468429E-007  0.8470489E+03  0.7818608E-02  0.9617030E-01
          2   -1    0    0  501    0  0.00000000000E+00  0.00000000000E+00  0.13592466183E+04  0.13592466183E+04  0.25500000000E-02 0. -1.
         -2   -1    0    0    0  501 -0.00000000000E+00 -0.00000000000E+00 -0.54001467762E+03  0.54001467762E+03  0.25500000000E-02 0.  1.
    8880023    1    1    2    0    0 -0.25429487830E+03 -0.46799116900E+03  0.10054246914E+04  0.13146751065E+04  0.65864270000E+03 0.  0.
    8880022    1    1    2    0    0  0.25429487830E+03  0.46799116900E+03 -0.18619275072E+03  0.58458618939E+03  0.15294330000E+03 0.  0.
<mgrwt>
<rscale>  0 0.76179236E+03</rscale>
<asrwt>0</asrwt>
<pdfrwt beam="1">  1        2 0.20911486E+00 0.84704889E+03</pdfrwt>
<pdfrwt beam="2">  1       -2 0.83079182E-01 0.84704889E+03</pdfrwt>
<totfact> 0.19590850E+01</totfact>
</mgrwt>
</event>
<event>
 4    1  0.8468429E-007  0.6711993E+03  0.7818608E-02  0.1014817E+00
         -2   -1    0    0    0  501 -0.00000000000E+00  0.00000000000E+00  0.23572367968E+03  0.23572367969E+03  0.25500000000E-02 0.  1.
          2   -1    0    0  501    0  0.00000000000E+00 -0.00000000000E+00 -0.15668717524E+04  0.15668717524E+04  0.25500000000E-02 0. -1.
    8880023    1    1    2    0    0  0.69947466211E+02 -0.10865384850E+03 -0.14297120168E+04  0.15794255171E+04  0.65864270000E+03 0. -1.
    8880022    1    1    2    0    0 -0.69947466211E+02  0.10865384850E+03  0.98563944150E+02  0.22316991492E+03  0.15294330000E+03 0.  0.
<mgrwt>
<rscale>  0 0.49604158E+03</rscale>
<asrwt>0</asrwt>
<pdfrwt beam="1">  1        2 0.24105719E+00 0.67119931E+03</pdfrwt>
<pdfrwt beam="2">  1       -2 0.36265182E-01 0.67119931E+03</pdfrwt>
<totfact> 0.85632074E+01</totfact>
</mgrwt>
</event>
<event>
 4    1  0.8468429E-007  0.7339179E+03  0.7818608E-02  0.9878032E-01
          2   -1    0    0  501    0  0.00000000000E+00  0.00000000000E+00  0.23355771054E+04  0.23355771054E+04  0.25500000000E-02 0. -1.
         -2   -1    0    0    0  501 -0.00000000000E+00 -0.00000000000E+00 -0.75942690675E+03  0.75942690676E+03  0.25500000000E-02 0.  1.
    8880023    1    1    2    0    0 -0.76475664380E+02  0.31460572040E+03  0.22310183526E+04  0.23486333010E+04  0.65864270000E+03 0. -1.
    8880022    1    1    2    0    0  0.76475664380E+02 -0.31460572040E+03 -0.65486815391E+03  0.74637071122E+03  0.15294330000E+03 0.  0.
<mgrwt>
<rscale>  0 0.61337884E+03</rscale>
<asrwt>0</asrwt>
<pdfrwt beam="1">  1        2 0.35931955E+00 0.73391791E+03</pdfrwt>
<pdfrwt beam="2">  1       -2 0.11683491E+00 0.73391791E+03</pdfrwt>
<totfact> 0.25745014E+00</totfact>
</mgrwt>
</event>
<event>
 4    1  0.8468429E-007  0.7551643E+03  0.7818608E-02  0.9817791E-01
          2   -1    0    0  501    0  0.00000000000E+00  0.00000000000E+00  0.27078739890E+04  0.27078739890E+04  0.25500000000E-02 0. -1.
         -2   -1    0    0    0  501 -0.00000000000E+00 -0.00000000000E+00 -0.36028217758E+03  0.36028217759E+03  0.25500000000E-02 0.  1.
    8880023    1    1    2    0    0  0.36634772158E+03 -0.47457657349E+02  0.25214993126E+04  0.26321534667E+04  0.65864270000E+03 0. -1.
    8880022    1    1    2    0    0 -0.36634772158E+03  0.47457657349E+02 -0.17390750120E+03  0.43600269992E+03  0.15294330000E+03 0.  0.
<mgrwt>
<rscale>  0 0.64416437E+03</rscale>
<asrwt>0</asrwt>
<pdfrwt beam="1">  1        2 0.41659598E+00 0.75516428E+03</pdfrwt>
<pdfrwt beam="2">  1       -2 0.55428030E-01 0.75516428E+03</pdfrwt>
<totfact> 0.84712227E+00</totfact>
</mgrwt>
</event>
<event>
 4    1  0.8468429E-007  0.7664917E+03  0.7818608E-02  0.9788582E-01
         -2   -1    0    0    0  501 -0.00000000000E+00  0.00000000000E+00  0.68765916009E+03  0.68765916010E+03  0.25500000000E-02 0.  1.
          2   -1    0    0  501    0  0.00000000000E+00 -0.00000000000E+00 -0.13864150197E+04  0.13864150197E+04  0.25500000000E-02 0. -1.
    8880023    1    1    2    0    0 -0.21840972998E+03  0.32557111769E+03 -0.11973209135E+04  0.14216493727E+04  0.65864270000E+03 0. -1.
    8880022    1    1    2    0    0  0.21840972998E+03 -0.32557111769E+03  0.49856505393E+03  0.65242480703E+03  0.15294330000E+03 0.  0.
<mgrwt>
<rscale>  0 0.65978915E+03</rscale>
<asrwt>0</asrwt>
<pdfrwt beam="1">  1        2 0.21329462E+00 0.76649173E+03</pdfrwt>
<pdfrwt beam="2">  1       -2 0.10579372E+00 0.76649173E+03</pdfrwt>
<totfact> 0.10852806E+01</totfact>
</mgrwt>
</event>
<event>
 4    1  0.8468429E-007  0.1199832E+04  0.7818608E-02  0.9157285E-01
          2   -1    0    0  501    0  0.00000000000E+00  0.00000000000E+00  0.26249694995E+04  0.26249694995E+04  0.25500000000E-02 0. -1.
         -2   -1    0    0    0  501 -0.00000000000E+00 -0.00000000000E+00 -0.62542409883E+03  0.62542409883E+03  0.25500000000E-02 0.  1.
    8880023    1    1    2    0    0 -0.29185870832E+03 -0.95948204539E+03  0.18781290085E+04  0.22286691275E+04  0.65864270000E+03 0.  0.
    8880022    1    1    2    0    0  0.29185870832E+03  0.95948204539E+03  0.12141639222E+03  0.10217244709E+04  0.15294330000E+03 0.  0.
<mgrwt>
<rscale>  0 0.11505401E+04</rscale>
<asrwt>0</asrwt>
<pdfrwt beam="1">  1        2 0.40384146E+00 0.11998323E+04</pdfrwt>
<pdfrwt beam="2">  1       -2 0.96219093E-01 0.11998323E+04</pdfrwt>
<totfact> 0.26225727E+00</totfact>
</mgrwt>
</event>
<event>
 4    1  0.8468429E-007  0.7796573E+03  0.7818608E-02  0.9756643E-01
          2   -1    0    0  501    0  0.00000000000E+00  0.00000000000E+00  0.16074165760E+04  0.16074165760E+04  0.25500000000E-02 0. -1.
         -2   -1    0    0    0  501 -0.00000000000E+00 -0.00000000000E+00 -0.42976326103E+03  0.42976326104E+03  0.25500000000E-02 0.  1.
    8880023    1    1    2    0    0  0.14801585426E+03 -0.39005976820E+03  0.13513133518E+04  0.15601004125E+04  0.65864270000E+03 0. -1.
    8880022    1    1    2    0    0 -0.14801585426E+03  0.39005976820E+03 -0.17366003690E+03  0.47707942453E+03  0.15294330000E+03 0.  0.
<mgrwt>
<rscale>  0 0.67742173E+03</rscale>
<asrwt>0</asrwt>
<pdfrwt beam="1">  1        2 0.24729485E+00 0.77965731E+03</pdfrwt>
<pdfrwt beam="2">  1       -2 0.66117426E-01 0.77965731E+03</pdfrwt>
<totfact> 0.23755869E+01</totfact>
</mgrwt>
</event>
<event>
 4    1  0.8468429E-007  0.7218767E+03  0.7818608E-02  0.9916286E-01
          2   -1    0    0  501    0  0.00000000000E+00  0.00000000000E+00  0.20301429410E+04  0.20301429410E+04  0.25500000000E-02 0. -1.
         -2   -1    0    0    0  501 -0.00000000000E+00 -0.00000000000E+00 -0.35782504082E+03  0.35782504083E+03  0.25500000000E-02 0.  1.
    8880023    1    1    2    0    0 -0.27216754506E+03 -0.11498099707E+03  0.18675548621E+04  0.20022155657E+04  0.65864270000E+03 0.  0.
    8880022    1    1    2    0    0  0.27216754506E+03  0.11498099707E+03 -0.19523696189E+03  0.38575241617E+03  0.15294330000E+03 0.  0.
<mgrwt>
<rscale>  0 0.59478442E+03</rscale>
<asrwt>0</asrwt>
<pdfrwt beam="1">  1        2 0.31232968E+00 0.72187673E+03</pdfrwt>
<pdfrwt beam="2">  1       -2 0.55050006E-01 0.72187673E+03</pdfrwt>
<totfact> 0.20717771E+01</totfact>
</mgrwt>
</event>
<event>
 4    1  0.8468429E-007  0.7816659E+03  0.7818608E-02  0.9751938E-01
         -2   -1    0    0    0  501 -0.00000000000E+00  0.00000000000E+00  0.84034381315E+03  0.84034381315E+03  0.25500000000E-02 0.  1.
          2   -1    0    0  501    0  0.00000000000E+00 -0.00000000000E+00 -0.12072544918E+04  0.12072544918E+04  0.25500000000E-02 0. -1.
    8880023    1    1    2    0    0  0.19780990006E+03  0.37156777411E+03 -0.10017793782E+04  0.12706547510E+04  0.65864270000E+03 0.  0.
    8880022    1    1    2    0    0 -0.19780990006E+03 -0.37156777411E+03  0.63486869958E+03  0.77694355396E+03  0.15294330000E+03 0.  0.
<mgrwt>
<rscale>  0 0.68006848E+03</rscale>
<asrwt>0</asrwt>
<pdfrwt beam="1">  1        2 0.18573146E+00 0.78166590E+03</pdfrwt>
<pdfrwt beam="2">  1       -2 0.12928366E+00 0.78166590E+03</pdfrwt>
<totfact> 0.83925839E+00</totfact>
</mgrwt>
</event>
<event>
 4    1  0.8468429E-007  0.7458033E+03  0.7818608E-02  0.9843354E-01
          2   -1    0    0  501    0  0.00000000000E+00  0.00000000000E+00  0.21718584558E+04  0.21718584558E+04  0.25500000000E-02 0. -1.
         -2   -1    0    0    0  501 -0.00000000000E+00 -0.00000000000E+00 -0.28792260876E+03  0.28792260877E+03  0.25500000000E-02 0.  1.
    8880023    1    1    2    0    0  0.26677702786E+03  0.22636779826E+03  0.19357376670E+04  0.20744403786E+04  0.65864270000E+03 0.  0.
    8880022    1    1    2    0    0 -0.26677702786E+03 -0.22636779826E+03 -0.51801819974E+02  0.38534068595E+03  0.15294330000E+03 0.  0.
<mgrwt>
<rscale>  0 0.63086933E+03</rscale>
<asrwt>0</asrwt>
<pdfrwt beam="1">  1        2 0.33413207E+00 0.74580330E+03</pdfrwt>
<pdfrwt beam="2">  1       -2 0.44295786E-01 0.74580330E+03</pdfrwt>
<totfact> 0.26848210E+01</totfact>
</mgrwt>
</event>
<event>
 4    1  0.8468429E-007  0.7796252E+03  0.7818608E-02  0.9756718E-01
         -2   -1    0    0    0  501 -0.00000000000E+00  0.00000000000E+00  0.54630809198E+03  0.54630809198E+03  0.25500000000E-02 0.  1.
          2   -1    0    0  501    0  0.00000000000E+00 -0.00000000000E+00 -0.88903329655E+03  0.88903329656E+03  0.25500000000E-02 0. -1.
    8880023    1    1    2    0    0 -0.23234210548E+03 -0.34644250293E+03 -0.54086510283E+03  0.94886802430E+03  0.65864270000E+03 0. -1.
    8880022    1    1    2    0    0  0.23234210548E+03  0.34644250293E+03  0.19813989826E+03  0.48647336424E+03  0.15294330000E+03 0.  0.
<mgrwt>
<rscale>  0 0.67737935E+03</rscale>
<asrwt>0</asrwt>
<pdfrwt beam="1">  1        2 0.13677435E+00 0.77962521E+03</pdfrwt>
<pdfrwt beam="2">  1       -2 0.84047399E-01 0.77962521E+03</pdfrwt>
<totfact> 0.37324191E+01</totfact>
</mgrwt>
</event>
<event>
 4    1  0.8468429E-007  0.6788404E+03  0.7818608E-02  0.1009987E+00
         -2   -1    0    0    0  501 -0.00000000000E+00  0.00000000000E+00  0.16703747418E+03  0.16703747420E+03  0.25500000000E-02 0.  1.
          2   -1    0    0  501    0  0.00000000000E+00 -0.00000000000E+00 -0.20268894545E+04  0.20268894545E+04  0.25500000000E-02 0. -1.
    8880023    1    1    2    0    0  0.16276132474E+03 -0.22865432901E+02 -0.18484108460E+04  0.19691233935E+04  0.65864270000E+03 0. -1.
    8880022    1    1    2    0    0 -0.16276132474E+03  0.22865432901E+02 -0.11441134241E+02  0.22480353516E+03  0.15294330000E+03 0.  0.
<mgrwt>
<rscale>  0 0.51479669E+03</rscale>
<asrwt>0</asrwt>
<pdfrwt beam="1">  1        2 0.31182913E+00 0.67884040E+03</pdfrwt>
<pdfrwt beam="2">  1       -2 0.25698074E-01 0.67884040E+03</pdfrwt>
<totfact> 0.91140992E+01</totfact>
</mgrwt>
</event>
<event>
 4    1  0.9600746E-007  0.7622057E+03  0.7818608E-02  0.9799430E-01
          2   -1    0    0  501    0  0.00000000000E+00  0.00000000000E+00  0.18464705676E+04  0.18464705676E+04  0.25500000000E-02 0. -1.
         -2   -1    0    0    0  501 -0.00000000000E+00 -0.00000000000E+00 -0.11958111254E+04  0.11958111254E+04  0.25500000000E-02 0.  1.
    8880023    1    1    2    0    0  0.37504719158E+03 -0.80541590742E+02  0.17279295294E+04  0.18885703611E+04  0.65864270000E+03 0. -1.
    8880022    1    1    2    0    0 -0.37504719158E+03  0.80541590742E+02 -0.10772700872E+04  0.11537113320E+04  0.15294330000E+03 0.  0.
<mgrwt>
<rscale>  0 0.65393128E+03</rscale>
<asrwt>0</asrwt>
<pdfrwt beam="1">  1        2 0.28407240E+00 0.76220571E+03</pdfrwt>
<pdfrwt beam="2">  1       -2 0.18397094E+00 0.76220571E+03</pdfrwt>
<totfact> 0.14334141E+00</totfact>
</mgrwt>
</event>
<event>
 4    1  0.8468429E-007  0.1190302E+04  0.7818608E-02  0.9166607E-01
         -2   -1    0    0    0  501 -0.00000000000E+00  0.00000000000E+00  0.83432677988E+03  0.83432677988E+03  0.25500000000E-02 0.  1.
          2   -1    0    0  501    0  0.00000000000E+00 -0.00000000000E+00 -0.21152803182E+04  0.21152803182E+04  0.25500000000E-02 0. -1.
    8880023    1    1    2    0    0 -0.96863820467E+03  0.21153972583E+03 -0.15078733133E+04  0.19210677141E+04  0.65864270000E+03 0.  0.
    8880022    1    1    2    0    0  0.96863820467E+03 -0.21153972583E+03  0.22691977491E+03  0.10285393840E+04  0.15294330000E+03 0.  0.
<mgrwt>
<rscale>  0 0.11404842E+04</rscale>
<asrwt>0</asrwt>
<pdfrwt beam="1">  1        2 0.32542774E+00 0.11903022E+04</pdfrwt>
<pdfrwt beam="2">  1       -2 0.12835797E+00 0.11903022E+04</pdfrwt>
<totfact> 0.25250154E+00</totfact>
</mgrwt>
</event>
<event>
 4    1  0.8468429E-007  0.7670523E+03  0.7818608E-02  0.9787180E-01
         -2   -1    0    0    0  501 -0.00000000000E+00  0.00000000000E+00  0.13262367204E+03  0.13262367207E+03  0.25500000000E-02 0.  1.
          2   -1    0    0  501    0  0.00000000000E+00 -0.00000000000E+00 -0.26799981704E+04  0.26799981704E+04  0.25500000000E-02 0. -1.
    8880023    1    1    2    0    0  0.29315189617E+03 -0.26195611012E+03 -0.15387999623E+04  0.17193820308E+04  0.65864270000E+03 0.  0.
    8880022    1    1    2    0    0 -0.29315189617E+03  0.26195611012E+03 -0.10085745361E+04  0.10932398117E+04  0.15294330000E+03 0.  1.
<mgrwt>
<rscale>  0 0.66055076E+03</rscale>
<asrwt>0</asrwt>
<pdfrwt beam="1">  1        2 0.41230737E+00 0.76705231E+03</pdfrwt>
<pdfrwt beam="2">  1       -2 0.20403644E-01 0.76705231E+03</pdfrwt>
<totfact> 0.58631818E+01</totfact>
</mgrwt>
</event>
<event>
 4    1  0.8468429E-007  0.9553450E+03  0.7818608E-02  0.9442465E-01
          2   -1    0    0  501    0  0.00000000000E+00  0.00000000000E+00  0.20342586916E+04  0.20342586916E+04  0.25500000000E-02 0. -1.
         -2   -1    0    0    0  501 -0.00000000000E+00 -0.00000000000E+00 -0.45858259091E+03  0.45858259092E+03  0.25500000000E-02 0.  1.
    8880023    1    1    2    0    0  0.43862031846E+03  0.53524386745E+03  0.15023161885E+04  0.17803476958E+04  0.65864270000E+03 0.  0.
    8880022    1    1    2    0    0 -0.43862031846E+03 -0.53524386745E+03  0.73359912202E+02  0.71249358674E+03  0.15294330000E+03 0.  0.
<mgrwt>
<rscale>  0 0.88661857E+03</rscale>
<asrwt>0</asrwt>
<pdfrwt beam="1">  1        2 0.31296288E+00 0.95534496E+03</pdfrwt>
<pdfrwt beam="2">  1       -2 0.70551167E-01 0.95534496E+03</pdfrwt>
<totfact> 0.11782660E+01</totfact>
</mgrwt>
</event>
<event>
 4    1  0.1115081E-006  0.7645019E+03  0.7818608E-02  0.9793589E-01
         -2   -1    0    0    0  501 -0.00000000000E+00  0.00000000000E+00  0.19788674806E+04  0.19788674806E+04  0.25500000000E-02 0.  1.
          2   -1    0    0  501    0  0.00000000000E+00 -0.00000000000E+00 -0.15583252821E+04  0.15583252821E+04  0.25500000000E-02 0. -1.
    8880023    1    1    2    0    0  0.19838815788E+02 -0.38763300097E+03 -0.14400510242E+04  0.16304018157E+04  0.65864270000E+03 0. -1.
    8880022    1    1    2    0    0 -0.19838815788E+02  0.38763300097E+03  0.18605932227E+04  0.19067909470E+04  0.15294330000E+03 0.  0.
<mgrwt>
<rscale>  0 0.65707733E+03</rscale>
<asrwt>0</asrwt>
<pdfrwt beam="1">  1        2 0.23974235E+00 0.76450188E+03</pdfrwt>
<pdfrwt beam="2">  1       -2 0.30444115E+00 0.76450188E+03</pdfrwt>
<totfact> 0.37018583E-01</totfact>
</mgrwt>
</event>
<event>
 4    1  0.8468429E-007  0.1225856E+04  0.7818608E-02  0.9132389E-01
          2   -1    0    0  501    0  0.00000000000E+00  0.00000000000E+00  0.53927204774E+03  0.53927204775E+03  0.25500000000E-02 0. -1.
         -2   -1    0    0    0  501 -0.00000000000E+00 -0.00000000000E+00 -0.37456062120E+04  0.37456062120E+04  0.25500000000E-02 0.  1.
    8880023    1    1    2    0    0 -0.63348834762E+03 -0.81707123212E+03 -0.39875535353E+03  0.12890806504E+04  0.65864270000E+03 0. -1.
    8880022    1    1    2    0    0  0.63348834762E+03  0.81707123212E+03 -0.28075788108E+04  0.29957976094E+04  0.15294330000E+03 0.  0.
<mgrwt>
<rscale>  0 0.11779384E+04</rscale>
<asrwt>0</asrwt>
<pdfrwt beam="1">  1        2 0.82964933E-01 0.12258561E+04</pdfrwt>
<pdfrwt beam="2">  1       -2 0.57624709E+00 0.12258561E+04</pdfrwt>
<totfact> 0.34505607E-02</totfact>
</mgrwt>
</event>
<event>
 4    1  0.8468429E-007  0.9666211E+03  0.7818608E-02  0.9426593E-01
         -2   -1    0    0    0  501 -0.00000000000E+00  0.00000000000E+00  0.13603501598E+04  0.13603501598E+04  0.25500000000E-02 0.  1.
          2   -1    0    0  501    0  0.00000000000E+00 -0.00000000000E+00 -0.59542739194E+03  0.59542739195E+03  0.25500000000E-02 0. -1.
    8880023    1    1    2    0    0  0.30471133889E+03  0.63851170392E+03  0.98063089686E+02  0.97158261199E+03  0.65864270000E+03 0.  0.
    8880022    1    1    2    0    0 -0.30471133889E+03 -0.63851170392E+03  0.66685967820E+03  0.98419493979E+03  0.15294330000E+03 0.  0.
<mgrwt>
<rscale>  0 0.89919148E+03</rscale>
<asrwt>0</asrwt>
<pdfrwt beam="1">  1        2 0.91604215E-01 0.96662113E+03</pdfrwt>
<pdfrwt beam="2">  1       -2 0.20928464E+00 0.96662113E+03</pdfrwt>
<totfact> 0.57822244E+00</totfact>
</mgrwt>
</event>
<event>
 4    1  0.8468429E-007  0.7588143E+03  0.7818608E-02  0.9808187E-01
         -2   -1    0    0    0  501 -0.00000000000E+00  0.00000000000E+00  0.22665665077E+03  0.22665665078E+03  0.25500000000E-02 0.  1.
          2   -1    0    0  501    0  0.00000000000E+00 -0.00000000000E+00 -0.16650069538E+04  0.16650069538E+04  0.25500000000E-02 0. -1.
    8880023    1    1    2    0    0 -0.37297793320E+03  0.53632645437E+02 -0.12014763058E+04  0.14210364242E+04  0.65864270000E+03 0.  0.
    8880022    1    1    2    0    0  0.37297793320E+03 -0.53632645437E+02 -0.23687399724E+03  0.47062718036E+03  0.15294330000E+03 0.  0.
<mgrwt>
<rscale>  0 0.64925041E+03</rscale>
<asrwt>0</asrwt>
<pdfrwt beam="1">  1        2 0.25615491E+00 0.75881434E+03</pdfrwt>
<pdfrwt beam="2">  1       -2 0.34870255E-01 0.75881434E+03</pdfrwt>
<totfact> 0.80778914E+01</totfact>
</mgrwt>
</event>
<event>
 4    1  0.8468429E-007  0.7825533E+03  0.7818608E-02  0.9749873E-01
         -2   -1    0    0    0  501 -0.00000000000E+00  0.00000000000E+00  0.11941131713E+04  0.11941131713E+04  0.25500000000E-02 0.  1.
          2   -1    0    0  501    0  0.00000000000E+00 -0.00000000000E+00 -0.10253792028E+04  0.10253792028E+04  0.25500000000E-02 0. -1.
    8880023    1    1    2    0    0 -0.38891355010E+03 -0.16530501139E+03 -0.81995621273E+03  0.11334539661E+04  0.65864270000E+03 0. -1.
    8880022    1    1    2    0    0  0.38891355010E+03  0.16530501139E+03  0.98869018116E+03  0.10860384080E+04  0.15294330000E+03 0.  0.
<mgrwt>
<rscale>  0 0.68123448E+03</rscale>
<asrwt>0</asrwt>
<pdfrwt beam="1">  1        2 0.15775065E+00 0.78255332E+03</pdfrwt>
<pdfrwt beam="2">  1       -2 0.18370972E+00 0.78255332E+03</pdfrwt>
<totfact> 0.42216018E+00</totfact>
</mgrwt>
</event>
<event>
 4    1  0.8468429E-007  0.1101356E+04  0.7818608E-02  0.9259548E-01
         -2   -1    0    0    0  501 -0.00000000000E+00  0.00000000000E+00  0.72292916831E+03  0.72292916831E+03  0.25500000000E-02 0.  1.
          2   -1    0    0  501    0  0.00000000000E+00 -0.00000000000E+00 -0.20198159596E+04  0.20198159596E+04  0.25500000000E-02 0. -1.
    8880023    1    1    2    0    0  0.86649130165E+03 -0.16842922189E+03 -0.14634042393E+04  0.18315397218E+04  0.65864270000E+03 0. -1.
    8880022    1    1    2    0    0 -0.86649130165E+03  0.16842922189E+03  0.16651744803E+03  0.91120540611E+03  0.15294330000E+03 0.  0.
<mgrwt>
<rscale>  0 0.10459383E+04</rscale>
<asrwt>0</asrwt>
<pdfrwt beam="1">  1        2 0.31074091E+00 0.11013563E+04</pdfrwt>
<pdfrwt beam="2">  1       -2 0.11121987E+00 0.11013563E+04</pdfrwt>
<totfact> 0.41165022E+00</totfact>
</mgrwt>
</event>
<event>
 4    1  0.8468429E-007  0.1323799E+04  0.7818608E-02  0.9045276E-01
         -2   -1    0    0    0  501 -0.00000000000E+00  0.00000000000E+00  0.65472453588E+03  0.65472453588E+03  0.25500000000E-02 0.  1.
          2   -1    0    0  501    0  0.00000000000E+00 -0.00000000000E+00 -0.26222901388E+04  0.26222901388E+04  0.25500000000E-02 0. -1.
    8880023    1    1    2    0    0  0.10661859918E+04 -0.42647423138E+03 -0.15668499163E+04  0.20512098151E+04  0.65864270000E+03 0.  0.
    8880022    1    1    2    0    0 -0.10661859918E+04  0.42647423138E+03 -0.40071568665E+03  0.12258048596E+04  0.15294330000E+03 0.  0.
<mgrwt>
<rscale>  0 0.12803730E+04</rscale>
<asrwt>0</asrwt>
<pdfrwt beam="1">  1        2 0.40342925E+00 0.13237987E+04</pdfrwt>
<pdfrwt beam="2">  1       -2 0.10072685E+00 0.13237987E+04</pdfrwt>
<totfact> 0.23279379E+00</totfact>
</mgrwt>
</event>
<event>
 4    1  0.8468429E-007  0.8472863E+03  0.7818608E-02  0.9616591E-01
          2   -1    0    0  501    0  0.00000000000E+00  0.00000000000E+00  0.80095533630E+03  0.80095533631E+03  0.25500000000E-02 0. -1.
         -2   -1    0    0    0  501 -0.00000000000E+00 -0.00000000000E+00 -0.72964929755E+03  0.72964929755E+03  0.25500000000E-02 0.  1.
    8880023    1    1    2    0    0  0.44455177606E+03  0.29403676738E+03  0.34181406216E+03  0.91363612096E+03  0.65864270000E+03 0. -1.
    8880022    1    1    2    0    0 -0.44455177606E+03 -0.29403676738E+03 -0.27050802341E+03  0.61696851290E+03  0.15294330000E+03 0.  0.
<mgrwt>
<rscale>  0 0.76207720E+03</rscale>
<asrwt>0</asrwt>
<pdfrwt beam="1">  1        2 0.12322390E+00 0.84728632E+03</pdfrwt>
<pdfrwt beam="2">  1       -2 0.11225374E+00 0.84728632E+03</pdfrwt>
<totfact> 0.21631752E+01</totfact>
</mgrwt>
</event>
<event>
 4    1  0.8468429E-007  0.8448456E+03  0.7818608E-02  0.9621110E-01
          2   -1    0    0  501    0  0.00000000000E+00  0.00000000000E+00  0.19525768514E+04  0.19525768514E+04  0.25500000000E-02 0. -1.
         -2   -1    0    0    0  501 -0.00000000000E+00 -0.00000000000E+00 -0.38922663306E+03  0.38922663306E+03  0.25500000000E-02 0.  1.
    8880023    1    1    2    0    0 -0.52324371577E+03  0.78548498231E+02  0.15790019765E+04  0.17908130279E+04  0.65864270000E+03 0.  0.
    8880022    1    1    2    0    0  0.52324371577E+03 -0.78548498231E+02 -0.15651758215E+02  0.55099045656E+03  0.15294330000E+03 0.  0.
<mgrwt>
<rscale>  0 0.75914581E+03</rscale>
<asrwt>0</asrwt>
<pdfrwt beam="1">  1        2 0.30039644E+00 0.84484558E+03</pdfrwt>
<pdfrwt beam="2">  1       -2 0.59881021E-01 0.84484558E+03</pdfrwt>
<totfact> 0.18843372E+01</totfact>
</mgrwt>
</event>
<event>
 4    1  0.8468429E-007  0.7793367E+03  0.7818608E-02  0.9757397E-01
          2   -1    0    0  501    0  0.00000000000E+00  0.00000000000E+00  0.75461524131E+03  0.75461524132E+03  0.25500000000E-02 0. -1.
         -2   -1    0    0    0  501 -0.00000000000E+00 -0.00000000000E+00 -0.76216526601E+03  0.76216526602E+03  0.25500000000E-02 0.  1.
    8880023    1    1    2    0    0  0.12224515231E+03 -0.39826079845E+03  0.43292362966E+03  0.89150917899E+03  0.65864270000E+03 0. -1.
    8880022    1    1    2    0    0 -0.12224515231E+03  0.39826079845E+03 -0.44047365436E+03  0.62527132834E+03  0.15294330000E+03 0.  0.
<mgrwt>
<rscale>  0 0.67699831E+03</rscale>
<asrwt>0</asrwt>
<pdfrwt beam="1">  1        2 0.11609465E+00 0.77933674E+03</pdfrwt>
<pdfrwt beam="2">  1       -2 0.11725620E+00 0.77933674E+03</pdfrwt>
<totfact> 0.21155469E+01</totfact>
</mgrwt>
</event>
<event>
 4    1  0.8468429E-007  0.8531617E+03  0.7818608E-02  0.9605845E-01
          2   -1    0    0  501    0  0.00000000000E+00  0.00000000000E+00  0.99987889364E+03  0.99987889364E+03  0.25500000000E-02 0. -1.
         -2   -1    0    0    0  501 -0.00000000000E+00 -0.00000000000E+00 -0.17107013052E+04  0.17107013052E+04  0.25500000000E-02 0.  1.
    8880023    1    1    2    0    0  0.36471760323E+03 -0.40131759840E+03  0.75558824629E+03  0.11396484322E+04  0.65864270000E+03 0.  0.
    8880022    1    1    2    0    0 -0.36471760323E+03  0.40131759840E+03 -0.14664106579E+04  0.15709317667E+04  0.15294330000E+03 0.  0.
<mgrwt>
<rscale>  0 0.76910520E+03</rscale>
<asrwt>0</asrwt>
<pdfrwt beam="1">  1        2 0.15382752E+00 0.85316174E+03</pdfrwt>
<pdfrwt beam="2">  1       -2 0.26318482E+00 0.85316174E+03</pdfrwt>
<totfact> 0.13702138E+00</totfact>
</mgrwt>
</event>
<event>
 4    1  0.8468429E-007  0.7098353E+03  0.7818608E-02  0.9958613E-01
         -2   -1    0    0    0  501 -0.00000000000E+00  0.00000000000E+00  0.48208887382E+03  0.48208887382E+03  0.25500000000E-02 0.  1.
          2   -1    0    0  501    0  0.00000000000E+00 -0.00000000000E+00 -0.12387060619E+04  0.12387060619E+04  0.25500000000E-02 0. -1.
    8880023    1    1    2    0    0  0.12764878159E+03  0.23186575426E+03 -0.10693325172E+04  0.12834867269E+04  0.65864270000E+03 0. -1.
    8880022    1    1    2    0    0 -0.12764878159E+03 -0.23186575426E+03  0.31271532913E+03  0.43730820885E+03  0.15294330000E+03 0.  0.
<mgrwt>
<rscale>  0 0.57502828E+03</rscale>
<asrwt>0</asrwt>
<pdfrwt beam="1">  1        2 0.19057016E+00 0.70983529E+03</pdfrwt>
<pdfrwt beam="2">  1       -2 0.74167519E-01 0.70983529E+03</pdfrwt>
<totfact> 0.30095743E+01</totfact>
</mgrwt>
</event>
<event>
 4    1  0.8468429E-007  0.7557857E+03  0.7818608E-02  0.9816143E-01
         -2   -1    0    0    0  501 -0.00000000000E+00  0.00000000000E+00  0.25213873030E+03  0.25213873031E+03  0.25500000000E-02 0.  1.
          2   -1    0    0  501    0  0.00000000000E+00 -0.00000000000E+00 -0.20844877006E+04  0.20844877006E+04  0.25500000000E-02 0. -1.
    8880023    1    1    2    0    0 -0.29569613648E+03 -0.22352993631E+03 -0.17780032182E+04  0.19319698465E+04  0.65864270000E+03 0.  0.
    8880022    1    1    2    0    0  0.29569613648E+03  0.22352993631E+03 -0.54345752136E+02  0.40465658446E+03  0.15294330000E+03 0.  0.
<mgrwt>
<rscale>  0 0.64503394E+03</rscale>
<asrwt>0</asrwt>
<pdfrwt beam="1">  1        2 0.32069040E+00 0.75578571E+03</pdfrwt>
<pdfrwt beam="2">  1       -2 0.38790575E-01 0.75578571E+03</pdfrwt>
<totfact> 0.38856159E+01</totfact>
</mgrwt>
</event>
<event>
 4    1  0.8468429E-007  0.7807200E+03  0.7818608E-02  0.9754148E-01
          2   -1    0    0  501    0  0.00000000000E+00  0.00000000000E+00  0.37899543309E+03  0.37899543310E+03  0.25500000000E-02 0. -1.
         -2   -1    0    0    0  501 -0.00000000000E+00 -0.00000000000E+00 -0.19953403473E+04  0.19953403473E+04  0.25500000000E-02 0.  1.
    8880023    1    1    2    0    0 -0.30786740987E+03 -0.28448407894E+03 -0.92115620795E+02  0.78613550174E+03  0.65864270000E+03 0. -1.
    8880022    1    1    2    0    0  0.30786740987E+03  0.28448407894E+03 -0.15242292934E+04  0.15882002786E+04  0.15294330000E+03 0.  0.
<mgrwt>
<rscale>  0 0.67882340E+03</rscale>
<asrwt>0</asrwt>
<pdfrwt beam="1">  1        2 0.58306991E-01 0.78072001E+03</pdfrwt>
<pdfrwt beam="2">  1       -2 0.30697543E+00 0.78072001E+03</pdfrwt>
<totfact> 0.25255857E+00</totfact>
</mgrwt>
</event>
<event>
 4    1  0.8468429E-007  0.7157251E+03  0.7818608E-02  0.9937325E-01
         -2   -1    0    0    0  501 -0.00000000000E+00  0.00000000000E+00  0.13807392996E+03  0.13807392998E+03  0.25500000000E-02 0.  1.
          2   -1    0    0  501    0  0.00000000000E+00 -0.00000000000E+00 -0.19953583195E+04  0.19953583195E+04  0.25500000000E-02 0. -1.
    8880023    1    1    2    0    0 -0.28005034452E+03  0.48998975542E+01 -0.14404142317E+04  0.16084326438E+04  0.65864270000E+03 0.  0.
    8880022    1    1    2    0    0  0.28005034452E+03 -0.48998975542E+01 -0.41687015781E+03  0.52499960567E+03  0.15294330000E+03 0. -1.
<mgrwt>
<rscale>  0 0.58485949E+03</rscale>
<asrwt>0</asrwt>
<pdfrwt beam="1">  1        2 0.30697818E+00 0.71572509E+03</pdfrwt>
<pdfrwt beam="2">  1       -2 0.21242144E-01 0.71572509E+03</pdfrwt>
<totfact> 0.13265597E+02</totfact>
</mgrwt>
</event>
<event>
 4    1  0.8468429E-007  0.7139133E+03  0.7818608E-02  0.9943746E-01
         -2   -1    0    0    0  501 -0.00000000000E+00  0.00000000000E+00  0.40484889831E+03  0.40484889831E+03  0.25500000000E-02 0.  1.
          2   -1    0    0  501    0  0.00000000000E+00 -0.00000000000E+00 -0.65653337535E+03  0.65653337535E+03  0.25500000000E-02 0. -1.
    8880023    1    1    2    0    0  0.25568353922E+03  0.10241059705E+03 -0.20601380679E+03  0.74304367131E+03  0.65864270000E+03 0.  1.
    8880022    1    1    2    0    0 -0.25568353922E+03 -0.10241059705E+03 -0.45670670251E+02  0.31833860236E+03  0.15294330000E+03 0. -1.
<mgrwt>
<rscale>  0 0.58187195E+03</rscale>
<asrwt>0</asrwt>
<pdfrwt beam="1">  1        2 0.10100513E+00 0.71391331E+03</pdfrwt>
<pdfrwt beam="2">  1       -2 0.62284446E-01 0.71391331E+03</pdfrwt>
<totfact> 0.10768846E+02</totfact>
</mgrwt>
</event>
<event>
 4    1  0.8468429E-007  0.9262233E+03  0.7818608E-02  0.9485182E-01
          2   -1    0    0  501    0  0.00000000000E+00  0.00000000000E+00  0.14922392950E+04  0.14922392950E+04  0.25500000000E-02 0. -1.
         -2   -1    0    0    0  501 -0.00000000000E+00 -0.00000000000E+00 -0.12712645851E+04  0.12712645851E+04  0.25500000000E-02 0.  1.
    8880023    1    1    2    0    0 -0.59464975675E+03 -0.26546375573E+03  0.12380440492E+04  0.15461703052E+04  0.65864270000E+03 0.  0.
    8880022    1    1    2    0    0  0.59464975675E+03  0.26546375573E+03 -0.10170693393E+04  0.12173335749E+04  0.15294330000E+03 0.  0.
<mgrwt>
<rscale>  0 0.85385156E+03</rscale>
<asrwt>0</asrwt>
<pdfrwt beam="1">  1        2 0.22957528E+00 0.92622327E+03</pdfrwt>
<pdfrwt beam="2">  1       -2 0.19557917E+00 0.92622327E+03</pdfrwt>
<totfact> 0.18301035E+00</totfact>
</mgrwt>
</event>
<event>
 4    1  0.8468429E-007  0.7783146E+03  0.7818608E-02  0.9759811E-01
         -2   -1    0    0    0  501 -0.00000000000E+00  0.00000000000E+00  0.74713959351E+03  0.74713959351E+03  0.25500000000E-02 0.  1.
          2   -1    0    0  501    0  0.00000000000E+00 -0.00000000000E+00 -0.66244172263E+03  0.66244172263E+03  0.25500000000E-02 0. -1.
    8880023    1    1    2    0    0  0.33844936820E+03 -0.23961512200E+03 -0.28955050047E+03  0.83042945523E+03  0.65864270000E+03 0.  0.
    8880022    1    1    2    0    0 -0.33844936820E+03  0.23961512200E+03  0.37424837135E+03  0.57915186092E+03  0.15294330000E+03 0.  0.
<mgrwt>
<rscale>  0 0.67564638E+03</rscale>
<asrwt>0</asrwt>
<pdfrwt beam="1">  1        2 0.10191411E+00 0.77831458E+03</pdfrwt>
<pdfrwt beam="2">  1       -2 0.11494455E+00 0.77831458E+03</pdfrwt>
<totfact> 0.26206875E+01</totfact>
</mgrwt>
</event>
<event>
 4    1  0.1036638E-006  0.7838330E+03  0.7818608E-02  0.9746909E-01
          2   -1    0    0  501    0  0.00000000000E+00  0.00000000000E+00  0.18264626825E+04  0.18264626825E+04  0.25500000000E-02 0. -1.
         -2   -1    0    0    0  501 -0.00000000000E+00 -0.00000000000E+00 -0.82045806330E+03  0.82045806331E+03  0.25500000000E-02 0.  1.
    8880023    1    1    2    0    0  0.18940499197E+03  0.38040721665E+03  0.16694709503E+04  0.18443230090E+04  0.65864270000E+03 0. -1.
    8880022    1    1    2    0    0 -0.18940499197E+03 -0.38040721665E+03 -0.66346633114E+03  0.80259773675E+03  0.15294330000E+03 0.  0.
<mgrwt>
<rscale>  0 0.68291225E+03</rscale>
<asrwt>0</asrwt>
<pdfrwt beam="1">  1        2 0.28099425E+00 0.78383296E+03</pdfrwt>
<pdfrwt beam="2">  1       -2 0.12622432E+00 0.78383296E+03</pdfrwt>
<totfact> 0.40074639E+00</totfact>
</mgrwt>
</event>
<event>
 4    1  0.8468429E-007  0.7238797E+03  0.7818608E-02  0.9909670E-01
          2   -1    0    0  501    0  0.00000000000E+00  0.00000000000E+00  0.39354619730E+03  0.39354619731E+03  0.25500000000E-02 0. -1.
         -2   -1    0    0    0  501 -0.00000000000E+00 -0.00000000000E+00 -0.94367179081E+03  0.94367179082E+03  0.25500000000E-02 0.  1.
    8880023    1    1    2    0    0 -0.13436373467E+03 -0.26858524257E+03 -0.38932607283E+02  0.72492592718E+03  0.65864270000E+03 0. -1.
    8880022    1    1    2    0    0  0.13436373467E+03  0.26858524257E+03 -0.51119298623E+03  0.61229206095E+03  0.15294330000E+03 0.  0.
<mgrwt>
<rscale>  0 0.59794896E+03</rscale>
<asrwt>0</asrwt>
<pdfrwt beam="1">  1        2 0.60545569E-01 0.72387972E+03</pdfrwt>
<pdfrwt beam="2">  1       -2 0.14518027E+00 0.72387972E+03</pdfrwt>
<totfact> 0.26837686E+01</totfact>
</mgrwt>
</event>
<event>
 4    1  0.8468429E-007  0.9404392E+03  0.7818608E-02  0.9464006E-01
          2   -1    0    0  501    0  0.00000000000E+00  0.00000000000E+00  0.10730431847E+04  0.10730431847E+04  0.25500000000E-02 0. -1.
         -2   -1    0    0    0  501 -0.00000000000E+00 -0.00000000000E+00 -0.62033234670E+03  0.62033234670E+03  0.25500000000E-02 0.  1.
    8880023    1    1    2    0    0  0.40694340715E+03 -0.53386579219E+03  0.31039252561E+03  0.99033799630E+03  0.65864270000E+03 0.  1.
    8880022    1    1    2    0    0 -0.40694340715E+03  0.53386579219E+03  0.14231831237E+03  0.70303753509E+03  0.15294330000E+03 0. -1.
<mgrwt>
<rscale>  0 0.86990366E+03</rscale>
<asrwt>0</asrwt>
<pdfrwt beam="1">  1        2 0.16508356E+00 0.94043917E+03</pdfrwt>
<pdfrwt beam="2">  1       -2 0.95435747E-01 0.94043917E+03</pdfrwt>
<totfact> 0.20861942E+01</totfact>
</mgrwt>
</event>
<event>
 4    1  0.8468429E-007  0.9345524E+03  0.7818608E-02  0.9472697E-01
         -2   -1    0    0    0  501 -0.00000000000E+00  0.00000000000E+00  0.35516575655E+03  0.35516575656E+03  0.25500000000E-02 0.  1.
          2   -1    0    0  501    0  0.00000000000E+00 -0.00000000000E+00 -0.20289501878E+04  0.20289501878E+04  0.25500000000E-02 0. -1.
    8880023    1    1    2    0    0 -0.62460603539E+03 -0.22236303839E+03 -0.13196551884E+04  0.16170584538E+04  0.65864270000E+03 0. -1.
    8880022    1    1    2    0    0  0.62460603539E+03  0.22236303839E+03 -0.35412924286E+03  0.76705749064E+03  0.15294330000E+03 0.  1.
<mgrwt>
<rscale>  0 0.86327034E+03</rscale>
<asrwt>0</asrwt>
<pdfrwt beam="1">  1        2 0.31214617E+00 0.93455242E+03</pdfrwt>
<pdfrwt beam="2">  1       -2 0.54640887E-01 0.93455242E+03</pdfrwt>
<totfact> 0.20518469E+01</totfact>
</mgrwt>
</event>
<event>
 4    1  0.8468429E-007  0.7922052E+03  0.7818608E-02  0.9727911E-01
          2   -1    0    0  501    0  0.00000000000E+00  0.00000000000E+00  0.50256851865E+03  0.50256851866E+03  0.25500000000E-02 0. -1.
         -2   -1    0    0    0  501 -0.00000000000E+00 -0.00000000000E+00 -0.10038781988E+04  0.10038781988E+04  0.25500000000E-02 0.  1.
    8880023    1    1    2    0    0  0.42229436155E+03  0.12428316016E+03  0.38709953253E+02  0.79315036307E+03  0.65864270000E+03 0.  0.
    8880022    1    1    2    0    0 -0.42229436155E+03 -0.12428316016E+03 -0.54001963337E+03  0.71329635436E+03  0.15294330000E+03 0.  0.
<mgrwt>
<rscale>  0 0.69379051E+03</rscale>
<asrwt>0</asrwt>
<pdfrwt beam="1">  1        2 0.77318234E-01 0.79220517E+03</pdfrwt>
<pdfrwt beam="2">  1       -2 0.15444280E+00 0.79220517E+03</pdfrwt>
<totfact> 0.17141412E+01</totfact>
</mgrwt>
</event>
<event>
 4    1  0.8468429E-007  0.7563711E+03  0.7818608E-02  0.9814594E-01
          2   -1    0    0  501    0  0.00000000000E+00  0.00000000000E+00  0.18813881677E+04  0.18813881677E+04  0.25500000000E-02 0. -1.
         -2   -1    0    0    0  501 -0.00000000000E+00 -0.00000000000E+00 -0.23682883711E+03  0.23682883713E+03  0.25500000000E-02 0.  1.
    8880023    1    1    2    0    0  0.10023049417E+03 -0.35810740607E+03  0.15191330816E+04  0.16970157902E+04  0.65864270000E+03 0. -1.
    8880022    1    1    2    0    0 -0.10023049417E+03  0.35810740607E+03  0.12542624894E+03  0.42120121460E+03  0.15294330000E+03 0.  0.
<mgrwt>
<rscale>  0 0.64585171E+03</rscale>
<asrwt>0</asrwt>
<pdfrwt beam="1">  1        2 0.28944434E+00 0.75637112E+03</pdfrwt>
<pdfrwt beam="2">  1       -2 0.36435205E-01 0.75637112E+03</pdfrwt>
<totfact> 0.56595553E+01</totfact>
</mgrwt>
</event>
<event>
 4    1  0.8468429E-007  0.8148531E+03  0.7818608E-02  0.9679555E-01
         -2   -1    0    0    0  501 -0.00000000000E+00  0.00000000000E+00  0.61037074759E+03  0.61037074759E+03  0.25500000000E-02 0.  1.
          2   -1    0    0  501    0  0.00000000000E+00 -0.00000000000E+00 -0.11142054829E+04  0.11142054829E+04  0.25500000000E-02 0. -1.
    8880023    1    1    2    0    0 -0.46370395545E+03  0.12310188898E+03 -0.79872497970E+03  0.11410290237E+04  0.65864270000E+03 0. -1.
    8880022    1    1    2    0    0  0.46370395545E+03 -0.12310188898E+03  0.29489024438E+03  0.58354720684E+03  0.15294330000E+03 0.  0.
<mgrwt>
<rscale>  0 0.72247216E+03</rscale>
<asrwt>0</asrwt>
<pdfrwt beam="1">  1        2 0.17141623E+00 0.81485314E+03</pdfrwt>
<pdfrwt beam="2">  1       -2 0.93903192E-01 0.81485314E+03</pdfrwt>
<totfact> 0.20673411E+01</totfact>
</mgrwt>
</event>
<event>
 4    1  0.8468429E-007  0.6851010E+03  0.7818608E-02  0.1006574E+00
         -2   -1    0    0    0  501 -0.00000000000E+00  0.00000000000E+00  0.84913720181E+03  0.84913720181E+03  0.25500000000E-02 0.  1.
          2   -1    0    0  501    0  0.00000000000E+00 -0.00000000000E+00 -0.12862006620E+04  0.12862006620E+04  0.25500000000E-02 0. -1.
    8880023    1    1    2    0    0 -0.17516471987E+03  0.69789036534E+02 -0.11740877814E+04  0.13593548151E+04  0.65864270000E+03 0.  0.
    8880022    1    1    2    0    0  0.17516471987E+03 -0.69789036534E+02  0.73702432124E+03  0.77598304866E+03  0.15294330000E+03 0.  1.
<mgrwt>
<rscale>  0 0.52859333E+03</rscale>
<asrwt>0</asrwt>
<pdfrwt beam="1">  1        2 0.19787703E+00 0.68510101E+03</pdfrwt>
<pdfrwt beam="2">  1       -2 0.13063649E+00 0.68510101E+03</pdfrwt>
<totfact> 0.74485786E+00</totfact>
</mgrwt>
</event>
<event>
 4    1  0.8468429E-007  0.7547506E+03  0.7818608E-02  0.9818892E-01
          2   -1    0    0  501    0  0.00000000000E+00  0.00000000000E+00  0.28203066272E+04  0.28203066272E+04  0.25500000000E-02 0. -1.
         -2   -1    0    0    0  501 -0.00000000000E+00 -0.00000000000E+00 -0.25822331568E+03  0.25822331569E+03  0.25500000000E-02 0.  1.
    8880023    1    1    2    0    0 -0.35769397442E+03 -0.88843883750E+02  0.35215306326E+03  0.83286265449E+03  0.65864270000E+03 0.  1.
    8880022    1    1    2    0    0  0.35769397442E+03  0.88843883750E+02  0.22099302483E+04  0.22456672884E+04  0.15294330000E+03 0.  0.
<mgrwt>
<rscale>  0 0.64358462E+03</rscale>
<asrwt>0</asrwt>
<pdfrwt beam="1">  1        2 0.43389330E+00 0.75475057E+03</pdfrwt>
<pdfrwt beam="2">  1       -2 0.39726666E-01 0.75475057E+03</pdfrwt>
<totfact> 0.14217393E+01</totfact>
</mgrwt>
</event>
<event>
 4    1  0.8468429E-007  0.7768876E+03  0.7818608E-02  0.9763200E-01
          2   -1    0    0  501    0  0.00000000000E+00  0.00000000000E+00  0.22262532458E+04  0.22262532458E+04  0.25500000000E-02 0. -1.
         -2   -1    0    0    0  501 -0.00000000000E+00 -0.00000000000E+00 -0.18406407994E+03  0.18406407995E+03  0.25500000000E-02 0.  1.
    8880023    1    1    2    0    0  0.36227679610E+03 -0.19621313109E+03  0.16394933930E+04  0.18142471887E+04  0.65864270000E+03 0.  0.
    8880022    1    1    2    0    0 -0.36227679610E+03  0.19621313109E+03  0.40269577294E+03  0.59607013711E+03  0.15294330000E+03 0.  0.
<mgrwt>
<rscale>  0 0.67375415E+03</rscale>
<asrwt>0</asrwt>
<pdfrwt beam="1">  1        2 0.34250049E+00 0.77688756E+03</pdfrwt>
<pdfrwt beam="2">  1       -2 0.28317552E-01 0.77688756E+03</pdfrwt>
<totfact> 0.58672257E+01</totfact>
</mgrwt>
</event>
<event>
 4    1  0.8468429E-007  0.8554542E+03  0.7818608E-02  0.9601701E-01
          2   -1    0    0  501    0  0.00000000000E+00  0.00000000000E+00  0.22722626849E+04  0.22722626849E+04  0.25500000000E-02 0. -1.
         -2   -1    0    0    0  501 -0.00000000000E+00 -0.00000000000E+00 -0.54950674813E+03  0.54950674813E+03  0.25500000000E-02 0.  1.
    8880023    1    1    2    0    0  0.81364484699E+02 -0.53978836911E+03  0.20112933747E+04  0.21856584610E+04  0.65864270000E+03 0. -1.
    8880022    1    1    2    0    0 -0.81364484699E+02  0.53978836911E+03 -0.28853743784E+03  0.63611097211E+03  0.15294330000E+03 0.  0.
<mgrwt>
<rscale>  0 0.77183680E+03</rscale>
<asrwt>0</asrwt>
<pdfrwt beam="1">  1        2 0.34957887E+00 0.85545419E+03</pdfrwt>
<pdfrwt beam="2">  1       -2 0.84539500E-01 0.85545419E+03</pdfrwt>
<totfact> 0.58822168E+00</totfact>
</mgrwt>
</event>
<event>
 4    1  0.8468429E-007  0.9372491E+03  0.7818608E-02  0.9468702E-01
          2   -1    0    0  501    0  0.00000000000E+00  0.00000000000E+00  0.17037007242E+04  0.17037007242E+04  0.25500000000E-02 0. -1.
         -2   -1    0    0    0  501 -0.00000000000E+00 -0.00000000000E+00 -0.62286776110E+03  0.62286776111E+03  0.25500000000E-02 0.  1.
    8880023    1    1    2    0    0  0.55791889868E+03  0.36517409300E+03  0.13049711265E+04  0.16066690583E+04  0.65864270000E+03 0.  0.
    8880022    1    1    2    0    0 -0.55791889868E+03 -0.36517409300E+03 -0.22413816338E+03  0.71989942701E+03  0.15294330000E+03 0.  0.
<mgrwt>
<rscale>  0 0.86631134E+03</rscale>
<asrwt>0</asrwt>
<pdfrwt beam="1">  1        2 0.26210780E+00 0.93724907E+03</pdfrwt>
<pdfrwt beam="2">  1       -2 0.95825810E-01 0.93724907E+03</pdfrwt>
<totfact> 0.89536790E+00</totfact>
</mgrwt>
</event>
<event>
 4    1  0.8468429E-007  0.6709221E+03  0.7818608E-02  0.1015010E+00
          2   -1    0    0  501    0  0.00000000000E+00  0.00000000000E+00  0.20037086273E+04  0.20037086273E+04  0.25500000000E-02 0. -1.
         -2   -1    0    0    0  501 -0.00000000000E+00 -0.00000000000E+00 -0.37813462602E+03  0.37813462603E+03  0.25500000000E-02 0.  1.
    8880023    1    1    2    0    0  0.10990341039E+03 -0.65172492729E+02  0.19157412263E+04  0.20298277922E+04  0.65864270000E+03 0. -1.
    8880022    1    1    2    0    0 -0.10990341039E+03  0.65172492729E+02 -0.29016722501E+03  0.35201546118E+03  0.15294330000E+03 0.  0.
<mgrwt>
<rscale>  0 0.49531023E+03</rscale>
<asrwt>0</asrwt>
<pdfrwt beam="1">  1        2 0.30826286E+00 0.67092207E+03</pdfrwt>
<pdfrwt beam="2">  1       -2 0.58174559E-01 0.67092207E+03</pdfrwt>
<totfact> 0.19235598E+01</totfact>
</mgrwt>
</event>
<event>
 4    1  0.8468429E-007  0.7016419E+03  0.7818608E-02  0.9990457E-01
          2   -1    0    0  501    0  0.00000000000E+00  0.00000000000E+00  0.18600019713E+04  0.18600019713E+04  0.25500000000E-02 0. -1.
         -2   -1    0    0    0  501 -0.00000000000E+00 -0.00000000000E+00 -0.23571778792E+03  0.23571778794E+03  0.25500000000E-02 0.  1.
    8880023    1    1    2    0    0  0.23393251462E+03  0.61373107610E+02  0.16648926694E+04  0.18067011061E+04  0.65864270000E+03 0. -1.
    8880022    1    1    2    0    0 -0.23393251462E+03 -0.61373107610E+02 -0.40608486029E+02  0.28901865318E+03  0.15294330000E+03 0.  0.
<mgrwt>
<rscale>  0 0.56070658E+03</rscale>
<asrwt>0</asrwt>
<pdfrwt beam="1">  1        2 0.28615415E+00 0.70164185E+03</pdfrwt>
<pdfrwt beam="2">  1       -2 0.36264275E-01 0.70164185E+03</pdfrwt>
<totfact> 0.59033858E+01</totfact>
</mgrwt>
</event>
<event>
 4    1  0.8468429E-007  0.1011178E+04  0.7818608E-02  0.9367077E-01
         -2   -1    0    0    0  501 -0.00000000000E+00  0.00000000000E+00  0.85479235599E+03  0.85479235599E+03  0.25500000000E-02 0.  1.
          2   -1    0    0  501    0  0.00000000000E+00 -0.00000000000E+00 -0.14568109303E+04  0.14568109304E+04  0.25500000000E-02 0. -1.
    8880023    1    1    2    0    0  0.75129142883E+03  0.15566859566E+03 -0.10100691278E+04  0.14292380389E+04  0.65864270000E+03 0.  0.
    8880022    1    1    2    0    0 -0.75129142883E+03 -0.15566859566E+03  0.40805055343E+03  0.88236524743E+03  0.15294330000E+03 0.  0.
<mgrwt>
<rscale>  0 0.94835375E+03</rscale>
<asrwt>0</asrwt>
<pdfrwt beam="1">  1        2 0.22412476E+00 0.10111784E+04</pdfrwt>
<pdfrwt beam="2">  1       -2 0.13150652E+00 0.10111784E+04</pdfrwt>
<totfact> 0.56186302E+00</totfact>
</mgrwt>
</event>
<event>
 4    1  0.8468429E-007  0.7849034E+03  0.7818608E-02  0.9744442E-01
         -2   -1    0    0    0  501 -0.00000000000E+00  0.00000000000E+00  0.61040737651E+03  0.61040737652E+03  0.25500000000E-02 0.  1.
          2   -1    0    0  501    0  0.00000000000E+00 -0.00000000000E+00 -0.22550939134E+04  0.22550939134E+04  0.25500000000E-02 0. -1.
    8880023    1    1    2    0    0 -0.75479031513E+02 -0.42019754822E+03 -0.20884093786E+04  0.22310372034E+04  0.65864270000E+03 0.  0.
    8880022    1    1    2    0    0  0.75479031513E+02  0.42019754822E+03  0.44372284180E+03  0.63446408651E+03  0.15294330000E+03 0.  0.
<mgrwt>
<rscale>  0 0.68431250E+03</rscale>
<asrwt>0</asrwt>
<pdfrwt beam="1">  1        2 0.34693752E+00 0.78490335E+03</pdfrwt>
<pdfrwt beam="2">  1       -2 0.93908828E-01 0.78490335E+03</pdfrwt>
<totfact> 0.47715905E+00</totfact>
</mgrwt>
</event>
<event>
 4    1  0.8468429E-007  0.7046236E+03  0.7818608E-02  0.9978535E-01
         -2   -1    0    0    0  501 -0.00000000000E+00  0.00000000000E+00  0.17770222893E+03  0.17770222895E+03  0.25500000000E-02 0.  1.
          2   -1    0    0  501    0  0.00000000000E+00 -0.00000000000E+00 -0.25520164303E+04  0.25520164303E+04  0.25500000000E-02 0. -1.
    8880023    1    1    2    0    0 -0.18022513603E+03 -0.17379054313E+03 -0.23284982455E+04  0.24327758914E+04  0.65864270000E+03 0. -1.
    8880022    1    1    2    0    0  0.18022513603E+03  0.17379054313E+03 -0.45815955918E+02  0.29694276783E+03  0.15294330000E+03 0.  0.
<mgrwt>
<rscale>  0 0.56601521E+03</rscale>
<asrwt>0</asrwt>
<pdfrwt beam="1">  1        2 0.39261789E+00 0.70462363E+03</pdfrwt>
<pdfrwt beam="2">  1       -2 0.27338806E-01 0.70462363E+03</pdfrwt>
<totfact> 0.41500111E+01</totfact>
</mgrwt>
</event>
<event>
 4    1  0.8468429E-007  0.6619263E+03  0.7818608E-02  0.1022264E+00
         -2   -1    0    0    0  501 -0.00000000000E+00  0.00000000000E+00  0.28313157938E+03  0.28313157939E+03  0.25500000000E-02 0.  1.
          2   -1    0    0  501    0  0.00000000000E+00 -0.00000000000E+00 -0.10514968656E+04  0.10514968656E+04  0.25500000000E-02 0. -1.
    8880023    1    1    2    0    0  0.36578877109E+02 -0.54756262179E+02 -0.90360512073E+03  0.11201110137E+04  0.65864270000E+03 0.  0.
    8880022    1    1    2    0    0 -0.36578877109E+02  0.54756262179E+02  0.13523983449E+03  0.21451743134E+03  0.15294330000E+03 0.  0.
<mgrwt>
<rscale>  0 0.46878305E+03</rscale>
<asrwt>0</asrwt>
<pdfrwt beam="1">  1        2 0.16176875E+00 0.66192633E+03</pdfrwt>
<pdfrwt beam="2">  1       -2 0.43558705E-01 0.66192633E+03</pdfrwt>
<totfact> 0.11906818E+02</totfact>
</mgrwt>
</event>
<event>
 4    1  0.8468429E-007  0.7184697E+03  0.7818608E-02  0.9927798E-01
         -2   -1    0    0    0  501 -0.00000000000E+00  0.00000000000E+00  0.20548931054E+03  0.20548931056E+03  0.25500000000E-02 0.  1.
          2   -1    0    0  501    0  0.00000000000E+00 -0.00000000000E+00 -0.27775229885E+04  0.27775229885E+04  0.25500000000E-02 0. -1.
    8880023    1    1    2    0    0 -0.20977025170E+03  0.19592079742E+03 -0.25585293799E+04  0.26574934264E+04  0.65864270000E+03 0. -1.
    8880022    1    1    2    0    0  0.20977025170E+03 -0.19592079742E+03 -0.13504298038E+02  0.32551887263E+03  0.15294330000E+03 0.  0.
<mgrwt>
<rscale>  0 0.58932773E+03</rscale>
<asrwt>0</asrwt>
<pdfrwt beam="1">  1        2 0.42731120E+00 0.71846971E+03</pdfrwt>
<pdfrwt beam="2">  1       -2 0.31613742E-01 0.71846971E+03</pdfrwt>
<totfact> 0.23441952E+01</totfact>
</mgrwt>
</event>
<event>
 4    1  0.9911908E-007  0.7662496E+03  0.7818608E-02  0.9789188E-01
          2   -1    0    0  501    0  0.00000000000E+00  0.00000000000E+00  0.20086765205E+04  0.20086765205E+04  0.25500000000E-02 0. -1.
         -2   -1    0    0    0  501 -0.00000000000E+00 -0.00000000000E+00 -0.91832817008E+03  0.91832817008E+03  0.25500000000E-02 0.  1.
    8880023    1    1    2    0    0 -0.38000881753E+03 -0.94454075759E+02  0.18812546082E+04  0.20313191234E+04  0.65864270000E+03 0.  0.
    8880022    1    1    2    0    0  0.38000881753E+03  0.94454075759E+02 -0.79090625775E+03  0.89568556725E+03  0.15294330000E+03 0.  1.
<mgrwt>
<rscale>  0 0.65945990E+03</rscale>
<asrwt>0</asrwt>
<pdfrwt beam="1">  1        2 0.30902716E+00 0.76624962E+03</pdfrwt>
<pdfrwt beam="2">  1       -2 0.14128126E+00 0.76624962E+03</pdfrwt>
<totfact> 0.23976700E+00</totfact>
</mgrwt>
</event>
<event>
 4    1  0.8468429E-007  0.8144258E+03  0.7818608E-02  0.9680431E-01
          2   -1    0    0  501    0  0.00000000000E+00  0.00000000000E+00  0.10075397945E+04  0.10075397945E+04  0.25500000000E-02 0. -1.
         -2   -1    0    0    0  501 -0.00000000000E+00 -0.00000000000E+00 -0.49523178536E+03  0.49523178537E+03  0.25500000000E-02 0.  1.
    8880023    1    1    2    0    0  0.35254393274E+03  0.32433306350E+03  0.57365979971E+03  0.99618017078E+03  0.65864270000E+03 0.  0.
    8880022    1    1    2    0    0 -0.35254393274E+03 -0.32433306350E+03 -0.61351790523E+02  0.50659140913E+03  0.15294330000E+03 0.  0.
<mgrwt>
<rscale>  0 0.72193979E+03</rscale>
<asrwt>0</asrwt>
<pdfrwt beam="1">  1        2 0.15500612E+00 0.81442579E+03</pdfrwt>
<pdfrwt beam="2">  1       -2 0.76189507E-01 0.81442579E+03</pdfrwt>
<totfact> 0.38798419E+01</totfact>
</mgrwt>
</event>
<event>
 4    1  0.8468429E-007  0.7229176E+03  0.7818608E-02  0.9912835E-01
         -2   -1    0    0    0  501 -0.00000000000E+00  0.00000000000E+00  0.51897219060E+03  0.51897219060E+03  0.25500000000E-02 0.  1.
          2   -1    0    0  501    0  0.00000000000E+00 -0.00000000000E+00 -0.10648988039E+04  0.10648988039E+04  0.25500000000E-02 0. -1.
    8880023    1    1    2    0    0  0.24694122736E+03 -0.16679222585E+03  0.21356155081E+03  0.75380259924E+03  0.65864270000E+03 0.  1.
    8880022    1    1    2    0    0 -0.24694122736E+03  0.16679222585E+03 -0.75948816409E+03  0.83006839524E+03  0.15294330000E+03 0.  0.
<mgrwt>
<rscale>  0 0.59643273E+03</rscale>
<asrwt>0</asrwt>
<pdfrwt beam="1">  1        2 0.16383058E+00 0.72291758E+03</pdfrwt>
<pdfrwt beam="2">  1       -2 0.79841876E-01 0.72291758E+03</pdfrwt>
<totfact> 0.32430974E+01</totfact>
</mgrwt>
</event>
<event>
 4    1  0.8468429E-007  0.8430277E+03  0.7818608E-02  0.9624497E-01
          2   -1    0    0  501    0  0.00000000000E+00  0.00000000000E+00  0.10977092652E+04  0.10977092652E+04  0.25500000000E-02 0. -1.
         -2   -1    0    0    0  501 -0.00000000000E+00 -0.00000000000E+00 -0.59320686240E+03  0.59320686240E+03  0.25500000000E-02 0.  1.
    8880023    1    1    2    0    0 -0.47682948201E+03 -0.22252897315E+03  0.71350194146E+03  0.11044368364E+04  0.65864270000E+03 0. -1.
    8880022    1    1    2    0    0  0.47682948201E+03  0.22252897315E+03 -0.20899953870E+03  0.58647929119E+03  0.15294330000E+03 0.  0.
<mgrwt>
<rscale>  0 0.75695780E+03</rscale>
<asrwt>0</asrwt>
<pdfrwt beam="1">  1        2 0.16887835E+00 0.84302770E+03</pdfrwt>
<pdfrwt beam="2">  1       -2 0.91262594E-01 0.84302770E+03</pdfrwt>
<totfact> 0.22550200E+01</totfact>
</mgrwt>
</event>
<event>
 4    1  0.8468429E-007  0.8648538E+03  0.7818608E-02  0.9584987E-01
         -2   -1    0    0    0  501 -0.00000000000E+00  0.00000000000E+00  0.74324612030E+03  0.74324612030E+03  0.25500000000E-02 0.  1.
          2   -1    0    0  501    0  0.00000000000E+00 -0.00000000000E+00 -0.11774300397E+04  0.11774300397E+04  0.25500000000E-02 0. -1.
    8880023    1    1    2    0    0 -0.89473805391E+02  0.55331397919E+03  0.35989500433E+03  0.93674785392E+03  0.65864270000E+03 0.  0.
    8880022    1    1    2    0    0  0.89473805391E+02 -0.55331397919E+03 -0.79407892378E+03  0.98392830614E+03  0.15294330000E+03 0.  0.
<mgrwt>
<rscale>  0 0.78297856E+03</rscale>
<asrwt>0</asrwt>
<pdfrwt beam="1">  1        2 0.18114308E+00 0.86485382E+03</pdfrwt>
<pdfrwt beam="2">  1       -2 0.11434556E+00 0.86485382E+03</pdfrwt>
<totfact> 0.11756157E+01</totfact>
</mgrwt>
</event>
<event>
 4    1  0.8468429E-007  0.7274185E+03  0.7818608E-02  0.9898240E-01
         -2   -1    0    0    0  501 -0.00000000000E+00  0.00000000000E+00  0.18786068801E+03  0.18786068802E+03  0.25500000000E-02 0.  1.
          2   -1    0    0  501    0  0.00000000000E+00 -0.00000000000E+00 -0.17756370027E+04  0.17756370027E+04  0.25500000000E-02 0. -1.
    8880023    1    1    2    0    0 -0.30755222320E+03  0.27187297724E+02 -0.13831291447E+04  0.15627488462E+04  0.65864270000E+03 0. -1.
    8880022    1    1    2    0    0  0.30755222320E+03 -0.27187297724E+02 -0.20464716992E+03  0.40074884444E+03  0.15294330000E+03 0.  0.
<mgrwt>
<rscale>  0 0.60346680E+03</rscale>
<asrwt>0</asrwt>
<pdfrwt beam="1">  1        2 0.27317491E+00 0.72741854E+03</pdfrwt>
<pdfrwt beam="2">  1       -2 0.28901645E-01 0.72741854E+03</pdfrwt>
<totfact> 0.10020983E+02</totfact>
</mgrwt>
</event>
<event>
 4    1  0.8468429E-007  0.8312687E+03  0.7818608E-02  0.9646869E-01
          2   -1    0    0  501    0  0.00000000000E+00  0.00000000000E+00  0.18222942716E+04  0.18222942716E+04  0.25500000000E-02 0. -1.
         -2   -1    0    0    0  501 -0.00000000000E+00 -0.00000000000E+00 -0.47428137021E+03  0.47428137022E+03  0.25500000000E-02 0.  1.
    8880023    1    1    2    0    0  0.25943075871E+03  0.43576729431E+03  0.15260351239E+04  0.17377545451E+04  0.65864270000E+03 0. -1.
    8880022    1    1    2    0    0 -0.25943075871E+03 -0.43576729431E+03 -0.17802222256E+03  0.55882109668E+03  0.15294330000E+03 0.  0.
<mgrwt>
<rscale>  0 0.74270256E+03</rscale>
<asrwt>0</asrwt>
<pdfrwt beam="1">  1        2 0.28035297E+00 0.83126870E+03</pdfrwt>
<pdfrwt beam="2">  1       -2 0.72966364E-01 0.83126870E+03</pdfrwt>
<totfact> 0.14513692E+01</totfact>
</mgrwt>
</event>
<event>
 4    1  0.8468429E-007  0.6726556E+03  0.7818608E-02  0.1013827E+00
          2   -1    0    0  501    0  0.00000000000E+00  0.00000000000E+00  0.39404250912E+04  0.39404250912E+04  0.25500000000E-02 0. -1.
         -2   -1    0    0    0  501 -0.00000000000E+00 -0.00000000000E+00 -0.59339365719E+02  0.59339365774E+02  0.25500000000E-02 0.  1.
    8880023    1    1    2    0    0 -0.71516496273E+02  0.11636460854E+03  0.35271695784E+04  0.35907368007E+04  0.65864270000E+03 0. -1.
    8880022    1    1    2    0    0  0.71516496273E+02 -0.11636460854E+03  0.35391614708E+03  0.40902765621E+03  0.15294330000E+03 0.  0.
<mgrwt>
<rscale>  0 0.49981746E+03</rscale>
<asrwt>0</asrwt>
<pdfrwt beam="1">  1        2 0.60621911E+00 0.67265559E+03</pdfrwt>
<pdfrwt beam="2">  1       -2 0.91291352E-02 0.67265559E+03</pdfrwt>
<totfact> 0.33841074E+01</totfact>
</mgrwt>
</event>
<event>
 4    1  0.8468429E-007  0.7412870E+03  0.7818608E-02  0.9856214E-01
         -2   -1    0    0    0  501 -0.00000000000E+00  0.00000000000E+00  0.67774138721E+03  0.67774138722E+03  0.25500000000E-02 0.  1.
          2   -1    0    0  501    0  0.00000000000E+00 -0.00000000000E+00 -0.58301485851E+03  0.58301485852E+03  0.25500000000E-02 0. -1.
    8880023    1    1    2    0    0 -0.32093726733E+03 -0.11267390154E+03 -0.21947860432E+03  0.77309585542E+03  0.65864270000E+03 0. -1.
    8880022    1    1    2    0    0  0.32093726733E+03  0.11267390154E+03  0.31420513302E+03  0.48766039031E+03  0.15294330000E+03 0.  0.
<mgrwt>
<rscale>  0 0.62431086E+03</rscale>
<asrwt>0</asrwt>
<pdfrwt beam="1">  1        2 0.89694594E-01 0.74128695E+03</pdfrwt>
<pdfrwt beam="2">  1       -2 0.10426791E+00 0.74128695E+03</pdfrwt>
<totfact> 0.38886107E+01</totfact>
</mgrwt>
</event>
<event>
 4    1  0.8468429E-007  0.1683248E+04  0.7818608E-02  0.8790026E-01
         -2   -1    0    0    0  501 -0.00000000000E+00  0.00000000000E+00  0.84123974507E+03  0.84123974507E+03  0.25500000000E-02 0.  1.
          2   -1    0    0  501    0  0.00000000000E+00 -0.00000000000E+00 -0.34259862350E+04  0.34259862350E+04  0.25500000000E-02 0. -1.
    8880023    1    1    2    0    0  0.12987946828E+04 -0.84418397871E+03 -0.19762750640E+04  0.25959559998E+04  0.65864270000E+03 0.  0.
    8880022    1    1    2    0    0 -0.12987946828E+04  0.84418397871E+03 -0.60847142593E+03  0.16712699803E+04  0.15294330000E+03 0.  0.
<mgrwt>
<rscale>  0 0.16506431E+04</rscale>
<asrwt>0</asrwt>
<pdfrwt beam="1">  1        2 0.52707480E+00 0.16832482E+04</pdfrwt>
<pdfrwt beam="2">  1       -2 0.12942150E+00 0.16832482E+04</pdfrwt>
<totfact> 0.37615367E-01</totfact>
</mgrwt>
</event>
<event>
 4    1  0.8468429E-007  0.7699587E+03  0.7818608E-02  0.9779976E-01
         -2   -1    0    0    0  501 -0.00000000000E+00  0.00000000000E+00  0.10160432812E+04  0.10160432812E+04  0.25500000000E-02 0.  1.
          2   -1    0    0  501    0  0.00000000000E+00 -0.00000000000E+00 -0.63014139205E+03  0.63014139205E+03  0.25500000000E-02 0. -1.
    8880023    1    1    2    0    0 -0.12682263834E+03  0.37807698519E+03  0.75745764964E+03  0.10800826291E+04  0.65864270000E+03 0. -1.
    8880022    1    1    2    0    0  0.12682263834E+03 -0.37807698519E+03 -0.37155576046E+03  0.56610204422E+03  0.15294330000E+03 0.  0.
<mgrwt>
<rscale>  0 0.66448317E+03</rscale>
<asrwt>0</asrwt>
<pdfrwt beam="1">  1        2 0.96944831E-01 0.76995870E+03</pdfrwt>
<pdfrwt beam="2">  1       -2 0.15631435E+00 0.76995870E+03</pdfrwt>
<totfact> 0.12700531E+01</totfact>
</mgrwt>
</event>
<event>
 4    1  0.8468429E-007  0.7557043E+03  0.7818608E-02  0.9816358E-01
         -2   -1    0    0    0  501 -0.00000000000E+00  0.00000000000E+00  0.43206981488E+03  0.43206981489E+03  0.25500000000E-02 0.  1.
          2   -1    0    0  501    0  0.00000000000E+00 -0.00000000000E+00 -0.15813933965E+04  0.15813933965E+04  0.25500000000E-02 0. -1.
    8880023    1    1    2    0    0  0.18599118604E+03  0.32044655769E+03 -0.13635577459E+04  0.15589671742E+04  0.65864270000E+03 0. -1.
    8880022    1    1    2    0    0 -0.18599118604E+03 -0.32044655769E+03  0.21423416430E+03  0.45449603716E+03  0.15294330000E+03 0.  0.
<mgrwt>
<rscale>  0 0.64492005E+03</rscale>
<asrwt>0</asrwt>
<pdfrwt beam="1">  1        2 0.24329129E+00 0.75570426E+03</pdfrwt>
<pdfrwt beam="2">  1       -2 0.66472280E-01 0.75570426E+03</pdfrwt>
<totfact> 0.24341638E+01</totfact>
</mgrwt>
</event>
<event>
 4    1  0.8468429E-007  0.1147685E+04  0.7818608E-02  0.9209734E-01
          2   -1    0    0  501    0  0.00000000000E+00  0.00000000000E+00  0.82715596547E+03  0.82715596548E+03  0.25500000000E-02 0. -1.
         -2   -1    0    0    0  501 -0.00000000000E+00 -0.00000000000E+00 -0.28860064036E+04  0.28860064036E+04  0.25500000000E-02 0.  1.
    8880023    1    1    2    0    0  0.53247642962E+03 -0.77449318376E+03  0.28561616121E+03  0.11826908462E+04  0.65864270000E+03 0.  0.
    8880022    1    1    2    0    0 -0.53247642962E+03  0.77449318376E+03 -0.23444665993E+04  0.25304715229E+04  0.15294330000E+03 0.  0.
<mgrwt>
<rscale>  0 0.10953521E+04</rscale>
<asrwt>0</asrwt>
<pdfrwt beam="1">  1        2 0.12725477E+00 0.11476851E+04</pdfrwt>
<pdfrwt beam="2">  1       -2 0.44400098E+00 0.11476851E+04</pdfrwt>
<totfact> 0.12464484E-01</totfact>
</mgrwt>
</event>
<event>
 4    1  0.8468429E-007  0.8237815E+03  0.7818608E-02  0.9661555E-01
          2   -1    0    0  501    0  0.00000000000E+00  0.00000000000E+00  0.15092177738E+04  0.15092177738E+04  0.25500000000E-02 0. -1.
         -2   -1    0    0    0  501 -0.00000000000E+00 -0.00000000000E+00 -0.52689090786E+03  0.52689090786E+03  0.25500000000E-02 0.  1.
    8880023    1    1    2    0    0  0.38636373400E+03 -0.30907732461E+03  0.12153443417E+04  0.14682226680E+04  0.65864270000E+03 0. -1.
    8880022    1    1    2    0    0 -0.38636373400E+03  0.30907732461E+03 -0.23301747576E+03  0.56788601371E+03  0.15294330000E+03 0.  0.
<mgrwt>
<rscale>  0 0.73352655E+03</rscale>
<asrwt>0</asrwt>
<pdfrwt beam="1">  1        2 0.23218735E+00 0.82378148E+03</pdfrwt>
<pdfrwt beam="2">  1       -2 0.81060138E-01 0.82378148E+03</pdfrwt>
<totfact> 0.17088463E+01</totfact>
</mgrwt>
</event>
<event>
 4    1  0.8468429E-007  0.6725082E+03  0.7818608E-02  0.1013925E+00
          2   -1    0    0  501    0  0.00000000000E+00  0.00000000000E+00  0.21294838111E+04  0.21294838111E+04  0.25500000000E-02 0. -1.
         -2   -1    0    0    0  501 -0.00000000000E+00 -0.00000000000E+00 -0.21792803586E+03  0.21792803588E+03  0.25500000000E-02 0.  1.
    8880023    1    1    2    0    0  0.46338676255E+02 -0.12771002899E+03  0.20106268441E+04  0.21201150055E+04  0.65864270000E+03 0. -1.
    8880022    1    1    2    0    0 -0.46338676255E+02  0.12771002899E+03 -0.99071068841E+02  0.22729684142E+03  0.15294330000E+03 0.  0.
<mgrwt>
<rscale>  0 0.49944027E+03</rscale>
<asrwt>0</asrwt>
<pdfrwt beam="1">  1        2 0.32761291E+00 0.67250824E+03</pdfrwt>
<pdfrwt beam="2">  1       -2 0.33527389E-01 0.67250824E+03</pdfrwt>
<totfact> 0.49064813E+01</totfact>
</mgrwt>
</event>
<event>
 4    1  0.8468429E-007  0.8177540E+03  0.7818608E-02  0.9673646E-01
          2   -1    0    0  501    0  0.00000000000E+00  0.00000000000E+00  0.29872275452E+04  0.29872275452E+04  0.25500000000E-02 0. -1.
         -2   -1    0    0    0  501 -0.00000000000E+00 -0.00000000000E+00 -0.20169340539E+03  0.20169340541E+03  0.25500000000E-02 0.  1.
    8880023    1    1    2    0    0  0.36454807074E+03  0.31939969099E+03  0.24424865673E+04  0.25757449983E+04  0.65864270000E+03 0. -1.
    8880022    1    1    2    0    0 -0.36454807074E+03 -0.31939969099E+03  0.34304757249E+03  0.61317595231E+03  0.15294330000E+03 0.  0.
<mgrwt>
<rscale>  0 0.72607792E+03</rscale>
<asrwt>0</asrwt>
<pdfrwt beam="1">  1        2 0.45957341E+00 0.81775404E+03</pdfrwt>
<pdfrwt beam="2">  1       -2 0.31029759E-01 0.81775404E+03</pdfrwt>
<totfact> 0.17889567E+01</totfact>
</mgrwt>
</event>
<event>
 4    1  0.8468429E-007  0.8705073E+03  0.7818608E-02  0.9575140E-01
         -2   -1    0    0    0  501 -0.00000000000E+00  0.00000000000E+00  0.39077270214E+03  0.39077270215E+03  0.25500000000E-02 0.  1.
          2   -1    0    0  501    0  0.00000000000E+00 -0.00000000000E+00 -0.18681536118E+04  0.18681536118E+04  0.25500000000E-02 0. -1.
    8880023    1    1    2    0    0  0.27465254491E+03  0.49853651908E+03 -0.14215527615E+04  0.16669118577E+04  0.65864270000E+03 0.  0.
    8880022    1    1    2    0    0 -0.27465254491E+03 -0.49853651908E+03 -0.55828148151E+02  0.59201445626E+03  0.15294330000E+03 0.  0.
<mgrwt>
<rscale>  0 0.78963693E+03</rscale>
<asrwt>0</asrwt>
<pdfrwt beam="1">  1        2 0.28740824E+00 0.87050726E+03</pdfrwt>
<pdfrwt beam="2">  1       -2 0.60118878E-01 0.87050726E+03</pdfrwt>
<totfact> 0.20720751E+01</totfact>
</mgrwt>
</event>
<event>
 4    1  0.8468429E-007  0.6986011E+03  0.7818608E-02  0.1000305E+00
         -2   -1    0    0    0  501 -0.00000000000E+00  0.00000000000E+00  0.12540457870E+03  0.12540457872E+03  0.25500000000E-02 0.  1.
          2   -1    0    0  501    0  0.00000000000E+00 -0.00000000000E+00 -0.33869354432E+04  0.33869354432E+04  0.25500000000E-02 0. -1.
    8880023    1    1    2    0    0  0.20885152396E+03 -0.10302611801E+03 -0.31248841349E+04  0.32020219242E+04  0.65864270000E+03 0. -1.
    8880022    1    1    2    0    0 -0.20885152396E+03  0.10302611801E+03 -0.13664672956E+03  0.31031809771E+03  0.15294330000E+03 0.  0.
<mgrwt>
<rscale>  0 0.55516511E+03</rscale>
<asrwt>0</asrwt>
<pdfrwt beam="1">  1        2 0.52106692E+00 0.69860114E+03</pdfrwt>
<pdfrwt beam="2">  1       -2 0.19293015E-01 0.69860114E+03</pdfrwt>
<totfact> 0.23922247E+01</totfact>
</mgrwt>
</event>
<event>
 4    1  0.8468429E-007  0.8539137E+03  0.7818608E-02  0.9604483E-01
         -2   -1    0    0    0  501 -0.00000000000E+00  0.00000000000E+00  0.11185156951E+04  0.11185156951E+04  0.25500000000E-02 0.  1.
          2   -1    0    0  501    0  0.00000000000E+00 -0.00000000000E+00 -0.10817497720E+04  0.10817497720E+04  0.25500000000E-02 0. -1.
    8880023    1    1    2    0    0  0.56286048885E+02 -0.54054633881E+03 -0.81365856770E+03  0.11794952034E+04  0.65864270000E+03 0.  0.
    8880022    1    1    2    0    0 -0.56286048885E+02  0.54054633881E+03  0.85042449085E+03  0.10207702637E+04  0.15294330000E+03 0.  0.
<mgrwt>
<rscale>  0 0.77000190E+03</rscale>
<asrwt>0</asrwt>
<pdfrwt beam="1">  1        2 0.16642304E+00 0.85391374E+03</pdfrwt>
<pdfrwt beam="2">  1       -2 0.17207934E+00 0.85391374E+03</pdfrwt>
<totfact> 0.46420701E+00</totfact>
</mgrwt>
</event>
<event>
 4    1  0.8468429E-007  0.6705152E+03  0.7818608E-02  0.1015296E+00
          2   -1    0    0  501    0  0.00000000000E+00  0.00000000000E+00  0.16384618152E+04  0.16384618152E+04  0.25500000000E-02 0. -1.
         -2   -1    0    0    0  501 -0.00000000000E+00 -0.00000000000E+00 -0.60704116815E+03  0.60704116816E+03  0.25500000000E-02 0.  1.
    8880023    1    1    2    0    0 -0.66134576671E+02 -0.10680200712E+03  0.15508773559E+04  0.16896186642E+04  0.65864270000E+03 0. -1.
    8880022    1    1    2    0    0  0.66134576671E+02  0.10680200712E+03 -0.51945670885E+03  0.55588431920E+03  0.15294330000E+03 0.  0.
<mgrwt>
<rscale>  0 0.49422942E+03</rscale>
<asrwt>0</asrwt>
<pdfrwt beam="1">  1        2 0.25207105E+00 0.67051522E+03</pdfrwt>
<pdfrwt beam="2">  1       -2 0.93390948E-01 0.67051522E+03</pdfrwt>
<totfact> 0.10699693E+01</totfact>
</mgrwt>
</event>
<event>
 4    1  0.8468429E-007  0.6775396E+03  0.7818608E-02  0.1010751E+00
          2   -1    0    0  501    0  0.00000000000E+00  0.00000000000E+00  0.91235043016E+03  0.91235043016E+03  0.25500000000E-02 0. -1.
         -2   -1    0    0    0  501 -0.00000000000E+00 -0.00000000000E+00 -0.95152268165E+03  0.95152268166E+03  0.25500000000E-02 0.  1.
    8880023    1    1    2    0    0 -0.14613698447E+03  0.62399864901E+02  0.76972717647E+03  0.10254461926E+04  0.65864270000E+03 0. -1.
    8880022    1    1    2    0    0  0.14613698447E+03 -0.62399864901E+02 -0.80889942796E+03  0.83842691926E+03  0.15294330000E+03 0.  0.
<mgrwt>
<rscale>  0 0.51177234E+03</rscale>
<asrwt>0</asrwt>
<pdfrwt beam="1">  1        2 0.14036160E+00 0.67753964E+03</pdfrwt>
<pdfrwt beam="2">  1       -2 0.14638811E+00 0.67753964E+03</pdfrwt>
<totfact> 0.94342473E+00</totfact>
</mgrwt>
</event>
<event>
 4    1  0.8468429E-007  0.1022275E+04  0.7818608E-02  0.9352979E-01
         -2   -1    0    0    0  501 -0.00000000000E+00  0.00000000000E+00  0.43524842335E+03  0.43524842336E+03  0.25500000000E-02 0.  1.
          2   -1    0    0  501    0  0.00000000000E+00 -0.00000000000E+00 -0.21437274241E+04  0.21437274241E+04  0.25500000000E-02 0. -1.
    8880023    1    1    2    0    0  0.65353035454E+03  0.42910785016E+03 -0.13797195049E+04  0.17171696451E+04  0.65864270000E+03 0. -1.
    8880022    1    1    2    0    0 -0.65353035454E+03 -0.42910785016E+03 -0.32875949582E+03  0.86180620239E+03  0.15294330000E+03 0.  0.
<mgrwt>
<rscale>  0 0.96048493E+03</rscale>
<asrwt>0</asrwt>
<pdfrwt beam="1">  1        2 0.32980421E+00 0.10222748E+04</pdfrwt>
<pdfrwt beam="2">  1       -2 0.66961297E-01 0.10222748E+04</pdfrwt>
<totfact> 0.11401516E+01</totfact>
</mgrwt>
</event>
<event>
 4    1  0.8468429E-007  0.7146078E+03  0.7818608E-02  0.9941272E-01
          2   -1    0    0  501    0  0.00000000000E+00  0.00000000000E+00  0.11004698032E+04  0.11004698032E+04  0.25500000000E-02 0. -1.
         -2   -1    0    0    0  501 -0.00000000000E+00 -0.00000000000E+00 -0.54233840123E+03  0.54233840123E+03  0.25500000000E-02 0.  1.
    8880023    1    1    2    0    0 -0.15948368302E+03  0.22675767541E+03  0.91808596917E+03  0.11634200194E+04  0.65864270000E+03 0.  1.
    8880022    1    1    2    0    0  0.15948368302E+03 -0.22675767541E+03 -0.35995456719E+03  0.47938818504E+03  0.15294330000E+03 0.  0.
<mgrwt>
<rscale>  0 0.58302080E+03</rscale>
<asrwt>0</asrwt>
<pdfrwt beam="1">  1        2 0.16930305E+00 0.71460779E+03</pdfrwt>
<pdfrwt beam="2">  1       -2 0.83436677E-01 0.71460779E+03</pdfrwt>
<totfact> 0.27943856E+01</totfact>
</mgrwt>
</event>
<event>
 4    1  0.8468429E-007  0.6849969E+03  0.7818608E-02  0.1006627E+00
         -2   -1    0    0    0  501 -0.00000000000E+00  0.00000000000E+00  0.52239301350E+03  0.52239301350E+03  0.25500000000E-02 0.  1.
          2   -1    0    0  501    0  0.00000000000E+00 -0.00000000000E+00 -0.84135306082E+03  0.84135306083E+03  0.25500000000E-02 0. -1.
    8880023    1    1    2    0    0  0.10597183165E+03  0.15550095765E+03 -0.65605841779E+03  0.94849007941E+03  0.65864270000E+03 0. -1.
    8880022    1    1    2    0    0 -0.10597183165E+03 -0.15550095765E+03  0.33709837046E+03  0.41525599492E+03  0.15294330000E+03 0.  0.
<mgrwt>
<rscale>  0 0.52837309E+03</rscale>
<asrwt>0</asrwt>
<pdfrwt beam="1">  1        2 0.12943893E+00 0.68499692E+03</pdfrwt>
<pdfrwt beam="2">  1       -2 0.80368156E-01 0.68499692E+03</pdfrwt>
<totfact> 0.44905836E+01</totfact>
</mgrwt>
</event>
<event>
 4    1  0.8468429E-007  0.1039312E+04  0.7818608E-02  0.9331841E-01
          2   -1    0    0  501    0  0.00000000000E+00  0.00000000000E+00  0.79062046312E+03  0.79062046313E+03  0.25500000000E-02 0. -1.
         -2   -1    0    0    0  501 -0.00000000000E+00 -0.00000000000E+00 -0.12366063414E+04  0.12366063414E+04  0.25500000000E-02 0.  1.
    8880023    1    1    2    0    0  0.20920480122E+03  0.77626844166E+03 -0.59174489147E+03  0.11959647007E+04  0.65864270000E+03 0.  0.
    8880022    1    1    2    0    0 -0.20920480122E+03 -0.77626844166E+03  0.14575901321E+03  0.83126210386E+03  0.15294330000E+03 0.  0.
<mgrwt>
<rscale>  0 0.97903596E+03</rscale>
<asrwt>0</asrwt>
<pdfrwt beam="1">  1        2 0.12163392E+00 0.10393121E+04</pdfrwt>
<pdfrwt beam="2">  1       -2 0.19024713E+00 0.10393121E+04</pdfrwt>
<totfact> 0.53420643E+00</totfact>
</mgrwt>
</event>
<event>
 4    1  0.8468429E-007  0.6815236E+03  0.7818608E-02  0.1008475E+00
          2   -1    0    0  501    0  0.00000000000E+00  0.00000000000E+00  0.31779137413E+04  0.31779137413E+04  0.25500000000E-02 0. -1.
         -2   -1    0    0    0  501 -0.00000000000E+00 -0.00000000000E+00 -0.17951290986E+03  0.17951290988E+03  0.25500000000E-02 0.  1.
    8880023    1    1    2    0    0 -0.15129823859E+03  0.88165088519E+02  0.30449719333E+04  0.31203090425E+04  0.65864270000E+03 0. -1.
    8880022    1    1    2    0    0  0.15129823859E+03 -0.88165088519E+02 -0.46571101808E+02  0.23711760873E+03  0.15294330000E+03 0.  0.
<mgrwt>
<rscale>  0 0.52085407E+03</rscale>
<asrwt>0</asrwt>
<pdfrwt beam="1">  1        2 0.48890972E+00 0.68152362E+03</pdfrwt>
<pdfrwt beam="2">  1       -2 0.27617375E-01 0.68152362E+03</pdfrwt>
<totfact> 0.17286323E+01</totfact>
</mgrwt>
</event>
<event>
 4    1  0.8468429E-007  0.1027589E+04  0.7818608E-02  0.9346320E-01
          2   -1    0    0  501    0  0.00000000000E+00  0.00000000000E+00  0.25758225513E+04  0.25758225513E+04  0.25500000000E-02 0. -1.
         -2   -1    0    0    0  501 -0.00000000000E+00 -0.00000000000E+00 -0.57596142481E+03  0.57596142482E+03  0.25500000000E-02 0.  1.
    8880023    1    1    2    0    0  0.78856947158E+03  0.16967922703E+02  0.21040886693E+04  0.23416082201E+04  0.65864270000E+03 0.  0.
    8880022    1    1    2    0    0 -0.78856947158E+03 -0.16967922703E+02 -0.10422754283E+03  0.81017575599E+03  0.15294330000E+03 0.  0.
<mgrwt>
<rscale>  0 0.96628121E+03</rscale>
<asrwt>0</asrwt>
<pdfrwt beam="1">  1        2 0.39628039E+00 0.10275894E+04</pdfrwt>
<pdfrwt beam="2">  1       -2 0.88609450E-01 0.10275894E+04</pdfrwt>
<totfact> 0.34691230E+00</totfact>
</mgrwt>
</event>
<event>
 4    1  0.8468429E-007  0.6852427E+03  0.7818608E-02  0.1006501E+00
         -2   -1    0    0    0  501 -0.00000000000E+00  0.00000000000E+00  0.15789955034E+03  0.15789955036E+03  0.25500000000E-02 0.  1.
          2   -1    0    0  501    0  0.00000000000E+00 -0.00000000000E+00 -0.26908763743E+04  0.26908763743E+04  0.25500000000E-02 0. -1.
    8880023    1    1    2    0    0 -0.10562288511E+03  0.15681581171E+03 -0.25130235656E+04  0.26047735103E+04  0.65864270000E+03 0. -1.
    8880022    1    1    2    0    0  0.10562288511E+03 -0.15681581171E+03 -0.19953258361E+02  0.24400241433E+03  0.15294330000E+03 0.  0.
<mgrwt>
<rscale>  0 0.52889275E+03</rscale>
<asrwt>0</asrwt>
<pdfrwt beam="1">  1        2 0.41398095E+00 0.68524273E+03</pdfrwt>
<pdfrwt beam="2">  1       -2 0.24292240E-01 0.68524273E+03</pdfrwt>
<totfact> 0.42898947E+01</totfact>
</mgrwt>
</event>
<event>
 4    1  0.8468429E-007  0.8064364E+03  0.7818608E-02  0.9697048E-01
         -2   -1    0    0    0  501 -0.00000000000E+00  0.00000000000E+00  0.27055610968E+03  0.27055610969E+03  0.25500000000E-02 0.  1.
          2   -1    0    0  501    0  0.00000000000E+00 -0.00000000000E+00 -0.23255934348E+04  0.23255934348E+04  0.25500000000E-02 0. -1.
    8880023    1    1    2    0    0 -0.29019277735E+03  0.36375485306E+03 -0.19283931323E+04  0.20902248013E+04  0.65864270000E+03 0.  0.
    8880022    1    1    2    0    0  0.29019277735E+03 -0.36375485306E+03 -0.12664419284E+03  0.50592474316E+03  0.15294330000E+03 0.  0.
<mgrwt>
<rscale>  0 0.71192811E+03</rscale>
<asrwt>0</asrwt>
<pdfrwt beam="1">  1        2 0.35778359E+00 0.80643639E+03</pdfrwt>
<pdfrwt beam="2">  1       -2 0.41624018E-01 0.80643639E+03</pdfrwt>
<totfact> 0.24753003E+01</totfact>
</mgrwt>
</event>
<event>
 4    1  0.8468429E-007  0.9943560E+03  0.7818608E-02  0.9388979E-01
          2   -1    0    0  501    0  0.00000000000E+00  0.00000000000E+00  0.24493622100E+04  0.24493622100E+04  0.25500000000E-02 0. -1.
         -2   -1    0    0    0  501 -0.00000000000E+00 -0.00000000000E+00 -0.34365383953E+03  0.34365383954E+03  0.25500000000E-02 0.  1.
    8880023    1    1    2    0    0  0.67642584515E+03 -0.31206031286E+03  0.15859400081E+04  0.18718839383E+04  0.65864270000E+03 0. -1.
    8880022    1    1    2    0    0 -0.67642584515E+03  0.31206031286E+03  0.51976836237E+03  0.92113211126E+03  0.15294330000E+03 0.  0.
<mgrwt>
<rscale>  0 0.92988218E+03</rscale>
<asrwt>0</asrwt>
<pdfrwt beam="1">  1        2 0.37682495E+00 0.99435596E+03</pdfrwt>
<pdfrwt beam="2">  1       -2 0.52869822E-01 0.99435596E+03</pdfrwt>
<totfact> 0.12714323E+01</totfact>
</mgrwt>
</event>
<event>
 4    1  0.8468429E-007  0.6734431E+03  0.7818608E-02  0.1013306E+00
         -2   -1    0    0    0  501 -0.00000000000E+00  0.00000000000E+00  0.22259631537E+03  0.22259631538E+03  0.25500000000E-02 0.  1.
          2   -1    0    0  501    0  0.00000000000E+00 -0.00000000000E+00 -0.18205390330E+04  0.18205390330E+04  0.25500000000E-02 0. -1.
    8880023    1    1    2    0    0 -0.13879678485E+03 -0.21234350328E+02 -0.16875797859E+04  0.18169895942E+04  0.65864270000E+03 0. -1.
    8880022    1    1    2    0    0  0.13879678485E+03  0.21234350328E+02  0.89637068317E+02  0.22614575421E+03  0.15294330000E+03 0.  0.
<mgrwt>
<rscale>  0 0.50181576E+03</rscale>
<asrwt>0</asrwt>
<pdfrwt beam="1">  1        2 0.28008292E+00 0.67344313E+03</pdfrwt>
<pdfrwt beam="2">  1       -2 0.34245588E-01 0.67344313E+03</pdfrwt>
<totfact> 0.69405066E+01</totfact>
</mgrwt>
</event>
<event>
 4    1  0.8468429E-007  0.7739789E+03  0.7818608E-02  0.9770175E-01
         -2   -1    0    0    0  501 -0.00000000000E+00  0.00000000000E+00  0.57460651432E+03  0.57460651433E+03  0.25500000000E-02 0.  1.
          2   -1    0    0  501    0  0.00000000000E+00 -0.00000000000E+00 -0.10320380051E+04  0.10320380051E+04  0.25500000000E-02 0. -1.
    8880023    1    1    2    0    0 -0.27654781654E+03  0.29791687334E+03 -0.75415957931E+03  0.10806479702E+04  0.65864270000E+03 0.  0.
    8880022    1    1    2    0    0  0.27654781654E+03 -0.29791687334E+03  0.29672808852E+03  0.52599654921E+03  0.15294330000E+03 0.  0.
<mgrwt>
<rscale>  0 0.66987952E+03</rscale>
<asrwt>0</asrwt>
<pdfrwt beam="1">  1        2 0.15877508E+00 0.77397892E+03</pdfrwt>
<pdfrwt beam="2">  1       -2 0.88401002E-01 0.77397892E+03</pdfrwt>
<totfact> 0.26841341E+01</totfact>
</mgrwt>
</event>
<event>
 4    1  0.8468429E-007  0.7724793E+03  0.7818608E-02  0.9773809E-01
         -2   -1    0    0    0  501 -0.00000000000E+00  0.00000000000E+00  0.14227184515E+04  0.14227184515E+04  0.25500000000E-02 0.  1.
          2   -1    0    0  501    0  0.00000000000E+00 -0.00000000000E+00 -0.38725908206E+03  0.38725908206E+03  0.25500000000E-02 0. -1.
    8880023    1    1    2    0    0 -0.32737733355E+03  0.23608923213E+03  0.98956044761E+02  0.77879172383E+03  0.65864270000E+03 0.  0.
    8880022    1    1    2    0    0  0.32737733355E+03 -0.23608923213E+03  0.93650332467E+03  0.10311858097E+04  0.15294330000E+03 0.  0.
<mgrwt>
<rscale>  0 0.66787225E+03</rscale>
<asrwt>0</asrwt>
<pdfrwt beam="1">  1        2 0.59578321E-01 0.77247929E+03</pdfrwt>
<pdfrwt beam="2">  1       -2 0.21887976E+00 0.77247929E+03</pdfrwt>
<totfact> 0.84459776E+00</totfact>
</mgrwt>
</event>
<event>
 4    1  0.8468429E-007  0.6799260E+03  0.7818608E-02  0.1009366E+00
          2   -1    0    0  501    0  0.00000000000E+00  0.00000000000E+00  0.23050441441E+04  0.23050441441E+04  0.25500000000E-02 0. -1.
         -2   -1    0    0    0  501 -0.00000000000E+00 -0.00000000000E+00 -0.25668917537E+03  0.25668917538E+03  0.25500000000E-02 0.  1.
    8880023    1    1    2    0    0  0.12701093892E+03  0.11116371292E+03  0.21902624304E+04  0.22933706351E+04  0.65864270000E+03 0. -1.
    8880022    1    1    2    0    0 -0.12701093892E+03 -0.11116371292E+03 -0.14190746167E+03  0.26836268438E+03  0.15294330000E+03 0.  0.
<mgrwt>
<rscale>  0 0.51727569E+03</rscale>
<asrwt>0</asrwt>
<pdfrwt beam="1">  1        2 0.35462220E+00 0.67992599E+03</pdfrwt>
<pdfrwt beam="2">  1       -2 0.39490640E-01 0.67992599E+03</pdfrwt>
<totfact> 0.28681347E+01</totfact>
</mgrwt>
</event>
<event>
 4    1  0.8468429E-007  0.1070948E+04  0.7818608E-02  0.9294113E-01
         -2   -1    0    0    0  501 -0.00000000000E+00  0.00000000000E+00  0.18636006504E+04  0.18636006504E+04  0.25500000000E-02 0.  1.
          2   -1    0    0  501    0  0.00000000000E+00 -0.00000000000E+00 -0.52145642359E+03  0.52145642360E+03  0.25500000000E-02 0. -1.
    8880023    1    1    2    0    0 -0.63936302639E+03  0.55166473375E+03  0.98657584453E+03  0.14561116582E+04  0.65864270000E+03 0.  0.
    8880022    1    1    2    0    0  0.63936302639E+03 -0.55166473375E+03  0.35556838227E+03  0.92894541576E+03  0.15294330000E+03 0.  0.
<mgrwt>
<rscale>  0 0.10132664E+04</rscale>
<asrwt>0</asrwt>
<pdfrwt beam="1">  1        2 0.80224064E-01 0.10709478E+04</pdfrwt>
<pdfrwt beam="2">  1       -2 0.28670780E+00 0.10709478E+04</pdfrwt>
<totfact> 0.22403024E+00</totfact>
</mgrwt>
</event>
<event>
 4    1  0.8468429E-007  0.8286297E+03  0.7818608E-02  0.9652004E-01
         -2   -1    0    0    0  501 -0.00000000000E+00  0.00000000000E+00  0.75584514338E+03  0.75584514339E+03  0.25500000000E-02 0.  1.
          2   -1    0    0  501    0  0.00000000000E+00 -0.00000000000E+00 -0.98326357784E+03  0.98326357785E+03  0.25500000000E-02 0. -1.
    8880023    1    1    2    0    0  0.41547100559E+03 -0.28319749892E+03 -0.65925992641E+03  0.10588913243E+04  0.65864270000E+03 0. -1.
    8880022    1    1    2    0    0 -0.41547100559E+03  0.28319749892E+03  0.43184149195E+03  0.68021739692E+03  0.15294330000E+03 0.  0.
<mgrwt>
<rscale>  0 0.73947761E+03</rscale>
<asrwt>0</asrwt>
<pdfrwt beam="1">  1        2 0.15127132E+00 0.82862970E+03</pdfrwt>
<pdfrwt beam="2">  1       -2 0.11628387E+00 0.82862970E+03</pdfrwt>
<totfact> 0.14942008E+01</totfact>
</mgrwt>
</event>
<event>
 4    1  0.8468429E-007  0.6819716E+03  0.7818608E-02  0.1008230E+00
         -2   -1    0    0    0  501 -0.00000000000E+00  0.00000000000E+00  0.13427574373E+03  0.13427574375E+03  0.25500000000E-02 0.  1.
          2   -1    0    0  501    0  0.00000000000E+00 -0.00000000000E+00 -0.16609622533E+04  0.16609622533E+04  0.25500000000E-02 0. -1.
    8880023    1    1    2    0    0 -0.15489169292E+03  0.85343880333E+02 -0.13079350960E+04  0.14750523503E+04  0.65864270000E+03 0. -1.
    8880022    1    1    2    0    0  0.15489169292E+03 -0.85343880333E+02 -0.21875141357E+03  0.32018564678E+03  0.15294330000E+03 0.  1.
<mgrwt>
<rscale>  0 0.52184320E+03</rscale>
<asrwt>0</asrwt>
<pdfrwt beam="1">  1        2 0.25553264E+00 0.68197157E+03</pdfrwt>
<pdfrwt beam="2">  1       -2 0.20657808E-01 0.68197157E+03</pdfrwt>
<totfact> 0.21257690E+02</totfact>
</mgrwt>
</event>
<event>
 4    1  0.8468429E-007  0.8837215E+03  0.7818608E-02  0.9552686E-01
          2   -1    0    0  501    0  0.00000000000E+00  0.00000000000E+00  0.86374760229E+03  0.86374760230E+03  0.25500000000E-02 0. -1.
         -2   -1    0    0    0  501 -0.00000000000E+00 -0.00000000000E+00 -0.86655063968E+03  0.86655063968E+03  0.25500000000E-02 0.  1.
    8880023    1    1    2    0    0  0.43634511418E+02 -0.58757936135E+03  0.43060140082E+03  0.98304692112E+03  0.65864270000E+03 0.  0.
    8880022    1    1    2    0    0 -0.43634511418E+02  0.58757936135E+03 -0.43340443820E+03  0.74725132087E+03  0.15294330000E+03 0.  0.
<mgrwt>
<rscale>  0 0.80508494E+03</rscale>
<asrwt>0</asrwt>
<pdfrwt beam="1">  1        2 0.13288425E+00 0.88372150E+03</pdfrwt>
<pdfrwt beam="2">  1       -2 0.13331548E+00 0.88372150E+03</pdfrwt>
<totfact> 0.12676714E+01</totfact>
</mgrwt>
</event>
<event>
 4    1  0.8468429E-007  0.1282397E+04  0.7818608E-02  0.9080912E-01
          2   -1    0    0  501    0  0.00000000000E+00  0.00000000000E+00  0.29930698668E+04  0.29930698668E+04  0.25500000000E-02 0. -1.
         -2   -1    0    0    0  501 -0.00000000000E+00 -0.00000000000E+00 -0.96083789260E+03  0.96083789261E+03  0.25500000000E-02 0.  1.
    8880023    1    1    2    0    0  0.20875425520E+02 -0.11001343903E+04 -0.34664465128E+03  0.13284216878E+04  0.65864270000E+03 0.  0.
    8880022    1    1    2    0    0 -0.20875425520E+02  0.11001343903E+04  0.23788766255E+04  0.26254860717E+04  0.15294330000E+03 0.  0.
<mgrwt>
<rscale>  0 0.12371907E+04</rscale>
<asrwt>0</asrwt>
<pdfrwt beam="1">  1        2 0.46047229E+00 0.12823968E+04</pdfrwt>
<pdfrwt beam="2">  1       -2 0.14782121E+00 0.12823968E+04</pdfrwt>
<totfact> 0.53334554E-01</totfact>
</mgrwt>
</event>
<event>
 4    1  0.8468429E-007  0.7499072E+03  0.7818608E-02  0.9831974E-01
         -2   -1    0    0    0  501 -0.00000000000E+00  0.00000000000E+00  0.21679675317E+03  0.21679675319E+03  0.25500000000E-02 0.  1.
          2   -1    0    0  501    0  0.00000000000E+00 -0.00000000000E+00 -0.22196718209E+04  0.22196718209E+04  0.25500000000E-02 0. -1.
    8880023    1    1    2    0    0  0.29055928965E+03  0.21006149617E+03 -0.18858543416E+04  0.20294845003E+04  0.65864270000E+03 0.  0.
    8880022    1    1    2    0    0 -0.29055928965E+03 -0.21006149617E+03 -0.11702072616E+03  0.40698407382E+03  0.15294330000E+03 0.  0.
<mgrwt>
<rscale>  0 0.63674482E+03</rscale>
<asrwt>0</asrwt>
<pdfrwt beam="1">  1        2 0.34148796E+00 0.74990715E+03</pdfrwt>
<pdfrwt beam="2">  1       -2 0.33353348E-01 0.74990715E+03</pdfrwt>
<totfact> 0.43751480E+01</totfact>
</mgrwt>
</event>
<event>
 4    1  0.8468429E-007  0.7528167E+03  0.7818608E-02  0.9824072E-01
          2   -1    0    0  501    0  0.00000000000E+00  0.00000000000E+00  0.27868868438E+03  0.27868868439E+03  0.25500000000E-02 0. -1.
         -2   -1    0    0    0  501 -0.00000000000E+00 -0.00000000000E+00 -0.26571564300E+04  0.26571564300E+04  0.25500000000E-02 0.  1.
    8880023    1    1    2    0    0  0.34127280192E+03  0.12827944482E+03 -0.28434450745E+03  0.80472650414E+03  0.65864270000E+03 0. -1.
    8880022    1    1    2    0    0 -0.34127280192E+03 -0.12827944482E+03 -0.20941232382E+04  0.21311186102E+04  0.15294330000E+03 0.  0.
<mgrwt>
<rscale>  0 0.64086536E+03</rscale>
<asrwt>0</asrwt>
<pdfrwt beam="1">  1        2 0.42875184E-01 0.75281668E+03</pdfrwt>
<pdfrwt beam="2">  1       -2 0.40879328E+00 0.75281668E+03</pdfrwt>
<totfact> 0.82286685E-01</totfact>
</mgrwt>
</event>
<event>
 4    1  0.8468429E-007  0.9291848E+03  0.7818608E-02  0.9480717E-01
          2   -1    0    0  501    0  0.00000000000E+00  0.00000000000E+00  0.90856666362E+03  0.90856666362E+03  0.25500000000E-02 0. -1.
         -2   -1    0    0    0  501 -0.00000000000E+00 -0.00000000000E+00 -0.12333445891E+04  0.12333445891E+04  0.25500000000E-02 0.  1.
    8880023    1    1    2    0    0  0.62096685366E+03 -0.20970041871E+03  0.51765085497E+03  0.10636478331E+04  0.65864270000E+03 0. -1.
    8880022    1    1    2    0    0 -0.62096685366E+03  0.20970041871E+03 -0.84242878043E+03  0.10782634196E+04  0.15294330000E+03 0.  0.
<mgrwt>
<rscale>  0 0.85720506E+03</rscale>
<asrwt>0</asrwt>
<pdfrwt beam="1">  1        2 0.13977949E+00 0.92918475E+03</pdfrwt>
<pdfrwt beam="2">  1       -2 0.18974532E+00 0.92918475E+03</pdfrwt>
<totfact> 0.44994495E+00</totfact>
</mgrwt>
</event>
<event>
 4    1  0.8468429E-007  0.7258838E+03  0.7818608E-02  0.9903158E-01
          2   -1    0    0  501    0  0.00000000000E+00  0.00000000000E+00  0.49995223020E+03  0.49995223021E+03  0.25500000000E-02 0. -1.
         -2   -1    0    0    0  501 -0.00000000000E+00 -0.00000000000E+00 -0.10234153429E+04  0.10234153429E+04  0.25500000000E-02 0.  1.
    8880023    1    1    2    0    0 -0.13716264461E+03 -0.27255008649E+03  0.17437645631E+03  0.74653499282E+03  0.65864270000E+03 0. -1.
    8880022    1    1    2    0    0  0.13716264461E+03  0.27255008649E+03 -0.69783956904E+03  0.77683258032E+03  0.15294330000E+03 0.  0.
<mgrwt>
<rscale>  0 0.60108496E+03</rscale>
<asrwt>0</asrwt>
<pdfrwt beam="1">  1        2 0.76915728E-01 0.72588384E+03</pdfrwt>
<pdfrwt beam="2">  1       -2 0.15744851E+00 0.72588384E+03</pdfrwt>
<totfact> 0.16473704E+01</totfact>
</mgrwt>
</event>
<event>
 4    1  0.8468429E-007  0.7098958E+03  0.7818608E-02  0.9958388E-01
         -2   -1    0    0    0  501 -0.00000000000E+00  0.00000000000E+00  0.37325697261E+03  0.37325697262E+03  0.25500000000E-02 0.  1.
          2   -1    0    0  501    0  0.00000000000E+00 -0.00000000000E+00 -0.18638024637E+04  0.18638024637E+04  0.25500000000E-02 0. -1.
    8880023    1    1    2    0    0 -0.22561177949E+01  0.26483344585E+03 -0.17160428302E+04  0.18570824013E+04  0.65864270000E+03 0. -1.
    8880022    1    1    2    0    0  0.22561177949E+01 -0.26483344585E+03  0.22549733913E+03  0.37997703494E+03  0.15294330000E+03 0.  0.
<mgrwt>
<rscale>  0 0.57513110E+03</rscale>
<asrwt>0</asrwt>
<pdfrwt beam="1">  1        2 0.28673884E+00 0.70989580E+03</pdfrwt>
<pdfrwt beam="2">  1       -2 0.57424151E-01 0.70989580E+03</pdfrwt>
<totfact> 0.23413183E+01</totfact>
</mgrwt>
</event>
<event>
 4    1  0.8468429E-007  0.6882592E+03  0.7818608E-02  0.1004991E+00
          2   -1    0    0  501    0  0.00000000000E+00  0.00000000000E+00  0.12082358647E+04  0.12082358647E+04  0.25500000000E-02 0. -1.
         -2   -1    0    0    0  501 -0.00000000000E+00 -0.00000000000E+00 -0.18347993200E+03  0.18347993201E+03  0.25500000000E-02 0.  1.
    8880023    1    1    2    0    0  0.19866153302E+03 -0.20593804862E+02  0.78819615749E+03  0.10464004484E+04  0.65864270000E+03 0.  0.
    8880022    1    1    2    0    0 -0.19866153302E+03  0.20593804862E+02  0.23655977519E+03  0.34531534827E+03  0.15294330000E+03 0.  1.
<mgrwt>
<rscale>  0 0.53514834E+03</rscale>
<asrwt>0</asrwt>
<pdfrwt beam="1">  1        2 0.18588244E+00 0.68825919E+03</pdfrwt>
<pdfrwt beam="2">  1       -2 0.28227682E-01 0.68825919E+03</pdfrwt>
<totfact> 0.21823486E+02</totfact>
</mgrwt>
</event>
<event>
 4    1  0.8468429E-007  0.1172883E+04  0.7818608E-02  0.9183943E-01
          2   -1    0    0  501    0  0.00000000000E+00  0.00000000000E+00  0.11656616787E+04  0.11656616787E+04  0.25500000000E-02 0. -1.
         -2   -1    0    0    0  501 -0.00000000000E+00 -0.00000000000E+00 -0.13987525341E+04  0.13987525341E+04  0.25500000000E-02 0.  1.
    8880023    1    1    2    0    0 -0.96771189316E+03 -0.73335654505E+02 -0.80971468433E+03  0.14252341922E+04  0.65864270000E+03 0.  1.
    8880022    1    1    2    0    0  0.96771189316E+03  0.73335654505E+02  0.57662382893E+03  0.11391800207E+04  0.15294330000E+03 0.  0.
<mgrwt>
<rscale>  0 0.11220707E+04</rscale>
<asrwt>0</asrwt>
<pdfrwt beam="1">  1        2 0.17933257E+00 0.11728830E+04</pdfrwt>
<pdfrwt beam="2">  1       -2 0.21519270E+00 0.11728830E+04</pdfrwt>
<totfact> 0.20520545E+00</totfact>
</mgrwt>
</event>
<event>
 4    1  0.8468429E-007  0.8418457E+03  0.7818608E-02  0.9626710E-01
         -2   -1    0    0    0  501 -0.00000000000E+00  0.00000000000E+00  0.27454172485E+04  0.27454172485E+04  0.25500000000E-02 0.  1.
          2   -1    0    0  501    0  0.00000000000E+00 -0.00000000000E+00 -0.26744468671E+03  0.26744468672E+03  0.25500000000E-02 0. -1.
    8880023    1    1    2    0    0  0.52415934334E+03  0.12286790675E+02  0.54177914690E+03  0.10011137961E+04  0.65864270000E+03 0.  0.
    8880022    1    1    2    0    0 -0.52415934334E+03 -0.12286790675E+02  0.19361934149E+04  0.20117481391E+04  0.15294330000E+03 0.  0.
<mgrwt>
<rscale>  0 0.75553296E+03</rscale>
<asrwt>0</asrwt>
<pdfrwt beam="1">  1        2 0.41145336E-01 0.84184570E+03</pdfrwt>
<pdfrwt beam="2">  1       -2 0.42237188E+00 0.84184570E+03</pdfrwt>
<totfact> 0.69149203E-01</totfact>
</mgrwt>
</event>
<event>
 4    1  0.8468429E-007  0.8031024E+03  0.7818608E-02  0.9704128E-01
          2   -1    0    0  501    0  0.00000000000E+00  0.00000000000E+00  0.18234020640E+04  0.18234020640E+04  0.25500000000E-02 0. -1.
         -2   -1    0    0    0  501 -0.00000000000E+00 -0.00000000000E+00 -0.47297588018E+03  0.47297588019E+03  0.25500000000E-02 0.  1.
    8880023    1    1    2    0    0 -0.43265050219E+03  0.15484421751E+03  0.15708710222E+04  0.17642588142E+04  0.65864270000E+03 0. -1.
    8880022    1    1    2    0    0  0.43265050219E+03 -0.15484421751E+03 -0.22044483839E+03  0.53211913002E+03  0.15294330000E+03 0.  0.
<mgrwt>
<rscale>  0 0.70771553E+03</rscale>
<asrwt>0</asrwt>
<pdfrwt beam="1">  1        2 0.28052339E+00 0.80310236E+03</pdfrwt>
<pdfrwt beam="2">  1       -2 0.72765520E-01 0.80310236E+03</pdfrwt>
<totfact> 0.14634238E+01</totfact>
</mgrwt>
</event>
<event>
 4    1  0.8468429E-007  0.7338961E+03  0.7818608E-02  0.9878098E-01
         -2   -1    0    0    0  501 -0.00000000000E+00  0.00000000000E+00  0.22159781778E+03  0.22159781780E+03  0.25500000000E-02 0.  1.
          2   -1    0    0  501    0  0.00000000000E+00 -0.00000000000E+00 -0.15514714788E+04  0.15514714788E+04  0.25500000000E-02 0. -1.
    8880023    1    1    2    0    0  0.30986439922E+03 -0.93687351461E+02 -0.11696415245E+04  0.13808203242E+04  0.65864270000E+03 0.  0.
    8880022    1    1    2    0    0 -0.30986439922E+03  0.93687351461E+02 -0.16023213651E+03  0.39224897235E+03  0.15294330000E+03 0.  0.
<mgrwt>
<rscale>  0 0.61334601E+03</rscale>
<asrwt>0</asrwt>
<pdfrwt beam="1">  1        2 0.23868791E+00 0.73389609E+03</pdfrwt>
<pdfrwt beam="2">  1       -2 0.34091973E-01 0.73389609E+03</pdfrwt>
<totfact> 0.97608888E+01</totfact>
</mgrwt>
</event>
<event>
 4    1  0.8468429E-007  0.7269216E+03  0.7818608E-02  0.9899825E-01
          2   -1    0    0  501    0  0.00000000000E+00  0.00000000000E+00  0.71846045924E+03  0.71846045924E+03  0.25500000000E-02 0. -1.
         -2   -1    0    0    0  501 -0.00000000000E+00 -0.00000000000E+00 -0.60840599208E+03  0.60840599209E+03  0.25500000000E-02 0.  1.
    8880023    1    1    2    0    0 -0.29476394500E+03  0.87858356996E+02  0.44070416442E+03  0.85007954979E+03  0.65864270000E+03 0. -1.
    8880022    1    1    2    0    0  0.29476394500E+03 -0.87858356996E+02 -0.33064969726E+03  0.47678690154E+03  0.15294330000E+03 0.  0.
<mgrwt>
<rscale>  0 0.60269745E+03</rscale>
<asrwt>0</asrwt>
<pdfrwt beam="1">  1        2 0.11053238E+00 0.72692165E+03</pdfrwt>
<pdfrwt beam="2">  1       -2 0.93600922E-01 0.72692165E+03</pdfrwt>
<totfact> 0.38825495E+01</totfact>
</mgrwt>
</event>
<event>
 4    1  0.8468429E-007  0.6712823E+03  0.7818608E-02  0.1014760E+00
         -2   -1    0    0    0  501 -0.00000000000E+00  0.00000000000E+00  0.89623165977E+02  0.89623166013E+02  0.25500000000E-02 0.  1.
          2   -1    0    0  501    0  0.00000000000E+00 -0.00000000000E+00 -0.28311430770E+04  0.28311430770E+04  0.25500000000E-02 0. -1.
    8880023    1    1    2    0    0 -0.12787135578E+03 -0.21415199948E+02 -0.25721462894E+04  0.26582995382E+04  0.65864270000E+03 0.  0.
    8880022    1    1    2    0    0  0.12787135578E+03  0.21415199948E+02 -0.16937362160E+03  0.26246670480E+03  0.15294330000E+03 0.  0.
<mgrwt>
<rscale>  0 0.49625965E+03</rscale>
<asrwt>0</asrwt>
<pdfrwt beam="1">  1        2 0.43556041E+00 0.67128228E+03</pdfrwt>
<pdfrwt beam="2">  1       -2 0.13788182E-01 0.67128228E+03</pdfrwt>
<totfact> 0.94761249E+01</totfact>
</mgrwt>
</event>
<event>
 4    1  0.8468429E-007  0.6877324E+03  0.7818608E-02  0.1005249E+00
         -2   -1    0    0    0  501 -0.00000000000E+00  0.00000000000E+00  0.40500666938E+03  0.40500666939E+03  0.25500000000E-02 0.  1.
          2   -1    0    0  501    0  0.00000000000E+00 -0.00000000000E+00 -0.14560983438E+04  0.14560983438E+04  0.25500000000E-02 0. -1.
    8880023    1    1    2    0    0 -0.94003972858E+02  0.17415207158E+03 -0.13233587261E+04  0.14913933804E+04  0.65864270000E+03 0. -1.
    8880022    1    1    2    0    0  0.94003972858E+02 -0.17415207158E+03  0.27226705169E+03  0.36971163276E+03  0.15294330000E+03 0.  0.
<mgrwt>
<rscale>  0 0.53407152E+03</rscale>
<asrwt>0</asrwt>
<pdfrwt beam="1">  1        2 0.22401513E+00 0.68773243E+03</pdfrwt>
<pdfrwt beam="2">  1       -2 0.62308719E-01 0.68773243E+03</pdfrwt>
<totfact> 0.33086929E+01</totfact>
</mgrwt>
</event>
<event>
 4    1  0.8468429E-007  0.7582089E+03  0.7818608E-02  0.9809767E-01
          2   -1    0    0  501    0  0.00000000000E+00  0.00000000000E+00  0.34701561728E+04  0.34701561728E+04  0.25500000000E-02 0. -1.
         -2   -1    0    0    0  501 -0.00000000000E+00 -0.00000000000E+00 -0.19295907302E+03  0.19295907304E+03  0.25500000000E-02 0.  1.
    8880023    1    1    2    0    0  0.18552510588E+03 -0.32657456459E+03  0.31472086765E+04  0.32372524107E+04  0.65864270000E+03 0.  0.
    8880022    1    1    2    0    0 -0.18552510588E+03  0.32657456459E+03  0.12998842332E+03  0.42586283515E+03  0.15294330000E+03 0.  0.
<mgrwt>
<rscale>  0 0.64841030E+03</rscale>
<asrwt>0</asrwt>
<pdfrwt beam="1">  1        2 0.53387013E+00 0.75820889E+03</pdfrwt>
<pdfrwt beam="2">  1       -2 0.29686014E-01 0.75820889E+03</pdfrwt>
<totfact> 0.96059410E+00</totfact>
</mgrwt>
</event>
<event>
 4    1  0.8468429E-007  0.7129326E+03  0.7818608E-02  0.9947268E-01
         -2   -1    0    0    0  501 -0.00000000000E+00  0.00000000000E+00  0.27984609316E+03  0.27984609318E+03  0.25500000000E-02 0.  1.
          2   -1    0    0  501    0  0.00000000000E+00 -0.00000000000E+00 -0.24624355282E+04  0.24624355282E+04  0.25500000000E-02 0. -1.
    8880023    1    1    2    0    0 -0.22339571804E+03  0.15670666800E+03 -0.23001502253E+04  0.24081037959E+04  0.65864270000E+03 0. -1.
    8880022    1    1    2    0    0  0.22339571804E+03 -0.15670666800E+03  0.11756079025E+03  0.33417782549E+03  0.15294330000E+03 0.  0.
<mgrwt>
<rscale>  0 0.58024154E+03</rscale>
<asrwt>0</asrwt>
<pdfrwt beam="1">  1        2 0.37883622E+00 0.71293256E+03</pdfrwt>
<pdfrwt beam="2">  1       -2 0.43053247E-01 0.71293256E+03</pdfrwt>
<totfact> 0.19674301E+01</totfact>
</mgrwt>
</event>
<event>
 4    1  0.8468429E-007  0.6650744E+03  0.7818608E-02  0.1019471E+00
         -2   -1    0    0    0  501 -0.00000000000E+00  0.00000000000E+00  0.34041262895E+03  0.34041262896E+03  0.25500000000E-02 0.  1.
          2   -1    0    0  501    0  0.00000000000E+00 -0.00000000000E+00 -0.11140852839E+04  0.11140852839E+04  0.25500000000E-02 0. -1.
    8880023    1    1    2    0    0 -0.78053757072E+00  0.92266663999E+02 -0.97824754815E+03  0.11829168264E+04  0.65864270000E+03 0. -1.
    8880022    1    1    2    0    0  0.78053757072E+00 -0.92266663999E+02  0.20457489324E+03  0.27158108639E+03  0.15294330000E+03 0.  0.
<mgrwt>
<rscale>  0 0.47877966E+03</rscale>
<asrwt>0</asrwt>
<pdfrwt beam="1">  1        2 0.17139774E+00 0.66507440E+03</pdfrwt>
<pdfrwt beam="2">  1       -2 0.52371174E-01 0.66507440E+03</pdfrwt>
<totfact> 0.75188091E+01</totfact>
</mgrwt>
</event>
<event>
 4    1  0.8468429E-007  0.6852608E+03  0.7818608E-02  0.1006492E+00
         -2   -1    0    0    0  501 -0.00000000000E+00  0.00000000000E+00  0.36721847819E+03  0.36721847820E+03  0.25500000000E-02 0.  1.
          2   -1    0    0  501    0  0.00000000000E+00 -0.00000000000E+00 -0.14740649047E+04  0.14740649047E+04  0.25500000000E-02 0. -1.
    8880023    1    1    2    0    0  0.41273009228E+01 -0.18909035700E+03 -0.13395557435E+04  0.15046567694E+04  0.65864270000E+03 0. -1.
    8880022    1    1    2    0    0 -0.41273009228E+01  0.18909035700E+03  0.23270931691E+03  0.33662661350E+03  0.15294330000E+03 0.  0.
<mgrwt>
<rscale>  0 0.52893096E+03</rscale>
<asrwt>0</asrwt>
<pdfrwt beam="1">  1        2 0.22677921E+00 0.68526083E+03</pdfrwt>
<pdfrwt beam="2">  1       -2 0.56495151E-01 0.68526083E+03</pdfrwt>
<totfact> 0.39744660E+01</totfact>
</mgrwt>
</event>
<event>
 4    1  0.8468429E-007  0.7991049E+03  0.7818608E-02  0.9712735E-01
          2   -1    0    0  501    0  0.00000000000E+00  0.00000000000E+00  0.15264580787E+04  0.15264580787E+04  0.25500000000E-02 0. -1.
         -2   -1    0    0    0  501 -0.00000000000E+00 -0.00000000000E+00 -0.32586371102E+03  0.32586371103E+03  0.25500000000E-02 0.  1.
    8880023    1    1    2    0    0 -0.33819760997E+03 -0.30063414236E+03  0.11074803446E+04  0.13656798420E+04  0.65864270000E+03 0.  0.
    8880022    1    1    2    0    0  0.33819760997E+03  0.30063414236E+03  0.93114023057E+02  0.48664194769E+03  0.15294330000E+03 0.  0.
<mgrwt>
<rscale>  0 0.70263611E+03</rscale>
<asrwt>0</asrwt>
<pdfrwt beam="1">  1        2 0.23483971E+00 0.79910495E+03</pdfrwt>
<pdfrwt beam="2">  1       -2 0.50132878E-01 0.79910495E+03</pdfrwt>
<totfact> 0.46954399E+01</totfact>
</mgrwt>
</event>
<event>
 4    1  0.8468429E-007  0.7393802E+03  0.7818608E-02  0.9861756E-01
         -2   -1    0    0    0  501 -0.00000000000E+00  0.00000000000E+00  0.30552480757E+03  0.30552480758E+03  0.25500000000E-02 0.  1.
          2   -1    0    0  501    0  0.00000000000E+00 -0.00000000000E+00 -0.31518243446E+04  0.31518243446E+04  0.25500000000E-02 0. -1.
    8880023    1    1    2    0    0 -0.30860621641E+03 -0.13279711783E+03 -0.29757024990E+04  0.30661846716E+04  0.65864270000E+03 0. -1.
    8880022    1    1    2    0    0  0.30860621641E+03  0.13279711783E+03  0.12940296197E+03  0.39116448062E+03  0.15294330000E+03 0.  0.
<mgrwt>
<rscale>  0 0.62151085E+03</rscale>
<asrwt>0</asrwt>
<pdfrwt beam="1">  1        2 0.48489603E+00 0.73938020E+03</pdfrwt>
<pdfrwt beam="2">  1       -2 0.47003819E-01 0.73938020E+03</pdfrwt>
<totfact> 0.64125993E+00</totfact>
</mgrwt>
</event>
<event>
 4    1  0.8468429E-007  0.8845027E+03  0.7818608E-02  0.9551382E-01
          2   -1    0    0  501    0  0.00000000000E+00  0.00000000000E+00  0.92408796142E+03  0.92408796142E+03  0.25500000000E-02 0. -1.
         -2   -1    0    0    0  501 -0.00000000000E+00 -0.00000000000E+00 -0.17492407369E+04  0.17492407369E+04  0.25500000000E-02 0.  1.
    8880023    1    1    2    0    0  0.35139821421E+03  0.47439861331E+03  0.63639092984E+03  0.10896505729E+04  0.65864270000E+03 0. -1.
    8880022    1    1    2    0    0 -0.35139821421E+03 -0.47439861331E+03 -0.14615437054E+04  0.15836781254E+04  0.15294330000E+03 0.  0.
<mgrwt>
<rscale>  0 0.80599340E+03</rscale>
<asrwt>0</asrwt>
<pdfrwt beam="1">  1        2 0.14216738E+00 0.88450266E+03</pdfrwt>
<pdfrwt beam="2">  1       -2 0.26911396E+00 0.88450266E+03</pdfrwt>
<totfact> 0.14076968E+00</totfact>
</mgrwt>
</event>
<event>
 4    1  0.8468429E-007  0.7522951E+03  0.7818608E-02  0.9825479E-01
          2   -1    0    0  501    0  0.00000000000E+00  0.00000000000E+00  0.54950660091E+03  0.54950660091E+03  0.25500000000E-02 0. -1.
         -2   -1    0    0    0  501 -0.00000000000E+00 -0.00000000000E+00 -0.67995628144E+03  0.67995628144E+03  0.25500000000E-02 0.  1.
    8880023    1    1    2    0    0 -0.32825708319E+03 -0.15615710498E+03  0.12069113834E+03  0.76191489763E+03  0.65864270000E+03 0. -1.
    8880022    1    1    2    0    0  0.32825708319E+03  0.15615710498E+03 -0.25114081887E+03  0.46754798472E+03  0.15294330000E+03 0.  0.
<mgrwt>
<rscale>  0 0.64012937E+03</rscale>
<asrwt>0</asrwt>
<pdfrwt beam="1">  1        2 0.84539477E-01 0.75229513E+03</pdfrwt>
<pdfrwt beam="2">  1       -2 0.10460866E+00 0.75229513E+03</pdfrwt>
<totfact> 0.41366395E+01</totfact>
</mgrwt>
</event>
<event>
 4    1  0.8468429E-007  0.7857807E+03  0.7818608E-02  0.9742429E-01
          2   -1    0    0  501    0  0.00000000000E+00  0.00000000000E+00  0.14798366310E+04  0.14798366310E+04  0.25500000000E-02 0. -1.
         -2   -1    0    0    0  501 -0.00000000000E+00 -0.00000000000E+00 -0.58487774558E+03  0.58487774559E+03  0.25500000000E-02 0.  1.
    8880023    1    1    2    0    0  0.22881068363E+03  0.36233508199E+03  0.12575767452E+04  0.14828858745E+04  0.65864270000E+03 0. -1.
    8880022    1    1    2    0    0 -0.22881068363E+03 -0.36233508199E+03 -0.36261785976E+03  0.58182850207E+03  0.15294330000E+03 0.  0.
<mgrwt>
<rscale>  0 0.68545803E+03</rscale>
<asrwt>0</asrwt>
<pdfrwt beam="1">  1        2 0.22766717E+00 0.78578066E+03</pdfrwt>
<pdfrwt beam="2">  1       -2 0.89981192E-01 0.78578066E+03</pdfrwt>
<totfact> 0.14046309E+01</totfact>
</mgrwt>
</event>
<event>
 4    1  0.8468429E-007  0.8250113E+03  0.7818608E-02  0.9659118E-01
          2   -1    0    0  501    0  0.00000000000E+00  0.00000000000E+00  0.13483329478E+04  0.13483329478E+04  0.25500000000E-02 0. -1.
         -2   -1    0    0    0  501 -0.00000000000E+00 -0.00000000000E+00 -0.60939234217E+03  0.60939234217E+03  0.25500000000E-02 0.  1.
    8880023    1    1    2    0    0 -0.49104084511E+03  0.75579831806E+02  0.10626718246E+04  0.13453308275E+04  0.65864270000E+03 0. -1.
    8880022    1    1    2    0    0  0.49104084511E+03 -0.75579831806E+02 -0.32373121890E+03  0.61239446246E+03  0.15294330000E+03 0.  0.
<mgrwt>
<rscale>  0 0.73503941E+03</rscale>
<asrwt>0</asrwt>
<pdfrwt beam="1">  1        2 0.20743584E+00 0.82501129E+03</pdfrwt>
<pdfrwt beam="2">  1       -2 0.93752668E-01 0.82501129E+03</pdfrwt>
<totfact> 0.15085467E+01</totfact>
</mgrwt>
</event>
<event>
 4    1  0.8468429E-007  0.8074409E+03  0.7818608E-02  0.9694932E-01
         -2   -1    0    0    0  501 -0.00000000000E+00  0.00000000000E+00  0.13171373037E+04  0.13171373037E+04  0.25500000000E-02 0.  1.
          2   -1    0    0  501    0  0.00000000000E+00 -0.00000000000E+00 -0.50976894397E+03  0.50976894398E+03  0.25500000000E-02 0. -1.
    8880023    1    1    2    0    0 -0.45401835400E+03 -0.10962634182E+03 -0.81162803114E+02  0.81150983202E+03  0.65864270000E+03 0. -1.
    8880022    1    1    2    0    0  0.45401835400E+03  0.10962634182E+03  0.88853116286E+03  0.10153964157E+04  0.15294330000E+03 0.  0.
<mgrwt>
<rscale>  0 0.71319321E+03</rscale>
<asrwt>0</asrwt>
<pdfrwt beam="1">  1        2 0.78425994E-01 0.80744090E+03</pdfrwt>
<pdfrwt beam="2">  1       -2 0.20263650E+00 0.80744090E+03</pdfrwt>
<totfact> 0.77991673E+00</totfact>
</mgrwt>
</event>
<event>
 4    1  0.8468429E-007  0.9246843E+03  0.7818608E-02  0.9487514E-01
         -2   -1    0    0    0  501 -0.00000000000E+00  0.00000000000E+00  0.72910789390E+03  0.72910789390E+03  0.25500000000E-02 0.  1.
          2   -1    0    0  501    0  0.00000000000E+00 -0.00000000000E+00 -0.97324191895E+03  0.97324191895E+03  0.25500000000E-02 0. -1.
    8880023    1    1    2    0    0  0.10977907862E+03  0.63967131826E+03 -0.41570516467E+03  0.10138302776E+04  0.65864270000E+03 0.  0.
    8880022    1    1    2    0    0 -0.10977907862E+03 -0.63967131826E+03  0.17157113962E+03  0.68851953529E+03  0.15294330000E+03 0.  0.
<mgrwt>
<rscale>  0 0.85210682E+03</rscale>
<asrwt>0</asrwt>
<pdfrwt beam="1">  1        2 0.14972953E+00 0.92468430E+03</pdfrwt>
<pdfrwt beam="2">  1       -2 0.11217045E+00 0.92468430E+03</pdfrwt>
<totfact> 0.16415950E+01</totfact>
</mgrwt>
</event>
<event>
 4    1  0.8468429E-007  0.6713281E+03  0.7818608E-02  0.1014728E+00
          2   -1    0    0  501    0  0.00000000000E+00  0.00000000000E+00  0.29455360618E+04  0.29455360618E+04  0.25500000000E-02 0. -1.
         -2   -1    0    0    0  501 -0.00000000000E+00 -0.00000000000E+00 -0.24982853031E+03  0.24982853032E+03  0.25500000000E-02 0.  1.
    8880023    1    1    2    0    0 -0.57981874321E+02  0.11622977924E+03  0.28589382161E+04  0.29367003914E+04  0.65864270000E+03 0. -1.
    8880022    1    1    2    0    0  0.57981874321E+02 -0.11622977924E+03 -0.16323068458E+03  0.25866420072E+03  0.15294330000E+03 0.  0.
<mgrwt>
<rscale>  0 0.49638001E+03</rscale>
<asrwt>0</asrwt>
<pdfrwt beam="1">  1        2 0.45315939E+00 0.67132814E+03</pdfrwt>
<pdfrwt beam="2">  1       -2 0.38435159E-01 0.67132814E+03</pdfrwt>
<totfact> 0.12950172E+01</totfact>
</mgrwt>
</event>
<event>
 4    1  0.8468429E-007  0.1345434E+04  0.7818608E-02  0.9027285E-01
          2   -1    0    0  501    0  0.00000000000E+00  0.00000000000E+00  0.87784039182E+03  0.87784039183E+03  0.25500000000E-02 0. -1.
         -2   -1    0    0    0  501 -0.00000000000E+00 -0.00000000000E+00 -0.27059912196E+04  0.27059912196E+04  0.25500000000E-02 0.  1.
    8880023    1    1    2    0    0 -0.69629716258E+02 -0.11711253308E+04  0.69883042624E+02  0.13472478182E+04  0.65864270000E+03 0.  0.
    8880022    1    1    2    0    0  0.69629716258E+02  0.11711253308E+04 -0.18980338704E+04  0.22365837932E+04  0.15294330000E+03 0.  0.
<mgrwt>
<rscale>  0 0.13028790E+04</rscale>
<asrwt>0</asrwt>
<pdfrwt beam="1">  1        2 0.13505237E+00 0.13454341E+04</pdfrwt>
<pdfrwt beam="2">  1       -2 0.41630634E+00 0.13454341E+04</pdfrwt>
<totfact> 0.17065588E-01</totfact>
</mgrwt>
</event>
<event>
 4    1  0.8468429E-007  0.1025592E+04  0.7818608E-02  0.9348815E-01
         -2   -1    0    0    0  501 -0.00000000000E+00  0.00000000000E+00  0.14847141928E+04  0.14847141928E+04  0.25500000000E-02 0.  1.
          2   -1    0    0  501    0  0.00000000000E+00 -0.00000000000E+00 -0.67811342738E+03  0.67811342739E+03  0.25500000000E-02 0. -1.
    8880023    1    1    2    0    0  0.51623824979E+03 -0.59289779759E+03  0.88959353298E+03  0.13576511294E+04  0.65864270000E+03 0.  1.
    8880022    1    1    2    0    0 -0.51623824979E+03  0.59289779759E+03 -0.82992767526E+02  0.80517649084E+03  0.15294330000E+03 0.  0.
<mgrwt>
<rscale>  0 0.96410437E+03</rscale>
<asrwt>0</asrwt>
<pdfrwt beam="1">  1        2 0.10432514E+00 0.10255925E+04</pdfrwt>
<pdfrwt beam="2">  1       -2 0.22841757E+00 0.10255925E+04</pdfrwt>
<totfact> 0.37057858E+00</totfact>
</mgrwt>
</event>
<event>
 4    1  0.8468429E-007  0.8633400E+03  0.7818608E-02  0.9587650E-01
          2   -1    0    0  501    0  0.00000000000E+00  0.00000000000E+00  0.24884222548E+04  0.24884222548E+04  0.25500000000E-02 0. -1.
         -2   -1    0    0    0  501 -0.00000000000E+00 -0.00000000000E+00 -0.74808662945E+03  0.74808662945E+03  0.25500000000E-02 0.  1.
    8880023    1    1    2    0    0  0.42836800405E+03 -0.35783600736E+03  0.22844568223E+04  0.24421504733E+04  0.65864270000E+03 0.  0.
    8880022    1    1    2    0    0 -0.42836800405E+03  0.35783600736E+03 -0.54412119695E+03  0.79435841094E+03  0.15294330000E+03 0.  0.
<mgrwt>
<rscale>  0 0.78119032E+03</rscale>
<asrwt>0</asrwt>
<pdfrwt beam="1">  1        2 0.38283419E+00 0.86334000E+03</pdfrwt>
<pdfrwt beam="2">  1       -2 0.11509025E+00 0.86334000E+03</pdfrwt>
<totfact> 0.21407059E+00</totfact>
</mgrwt>
</event>
<event>
 4    1  0.8468429E-007  0.1636079E+04  0.7818608E-02  0.8819080E-01
          2   -1    0    0  501    0  0.00000000000E+00  0.00000000000E+00  0.29241737861E+04  0.29241737861E+04  0.25500000000E-02 0. -1.
         -2   -1    0    0    0  501 -0.00000000000E+00 -0.00000000000E+00 -0.95250799140E+03  0.95250799140E+03  0.25500000000E-02 0.  1.
    8880023    1    1    2    0    0 -0.14442296376E+04 -0.39641442664E+03  0.16766184455E+04  0.23426060834E+04  0.65864270000E+03 0.  0.
    8880022    1    1    2    0    0  0.14442296376E+04  0.39641442664E+03  0.29504734914E+03  0.15340756941E+04  0.15294330000E+03 0.  0.
<mgrwt>
<rscale>  0 0.16023917E+04</rscale>
<asrwt>0</asrwt>
<pdfrwt beam="1">  1        2 0.44987289E+00 0.16360788E+04</pdfrwt>
<pdfrwt beam="2">  1       -2 0.14653969E+00 0.16360788E+04</pdfrwt>
<totfact> 0.57790522E-01</totfact>
</mgrwt>
</event>
<event>
 4    1  0.8468429E-007  0.7372011E+03  0.7818608E-02  0.9868176E-01
         -2   -1    0    0    0  501 -0.00000000000E+00  0.00000000000E+00  0.61910368908E+03  0.61910368908E+03  0.25500000000E-02 0.  1.
          2   -1    0    0  501    0  0.00000000000E+00 -0.00000000000E+00 -0.22065094537E+04  0.22065094538E+04  0.25500000000E-02 0. -1.
    8880023    1    1    2    0    0 -0.30747805612E+03  0.12293262699E+03 -0.20833741914E+04  0.22099577854E+04  0.65864270000E+03 0. -1.
    8880022    1    1    2    0    0  0.30747805612E+03 -0.12293262699E+03  0.49596842672E+03  0.61565535740E+03  0.15294330000E+03 0.  0.
<mgrwt>
<rscale>  0 0.61828688E+03</rscale>
<asrwt>0</asrwt>
<pdfrwt beam="1">  1        2 0.33946299E+00 0.73720105E+03</pdfrwt>
<pdfrwt beam="2">  1       -2 0.95246722E-01 0.73720105E+03</pdfrwt>
<totfact> 0.49507464E+00</totfact>
</mgrwt>
</event>
<event>
 4    1  0.8468429E-007  0.6692917E+03  0.7818608E-02  0.1016176E+00
         -2   -1    0    0    0  501 -0.00000000000E+00  0.00000000000E+00  0.23597295193E+03  0.23597295194E+03  0.25500000000E-02 0.  1.
          2   -1    0    0  501    0  0.00000000000E+00 -0.00000000000E+00 -0.12737389387E+04  0.12737389387E+04  0.25500000000E-02 0. -1.
    8880023    1    1    2    0    0 -0.13263112276E+02  0.11817450661E+03 -0.11155680528E+04  0.13009394340E+04  0.65864270000E+03 0. -1.
    8880022    1    1    2    0    0  0.13263112276E+02 -0.11817450661E+03  0.77802066059E+02  0.20877245665E+03  0.15294330000E+03 0.  0.
<mgrwt>
<rscale>  0 0.49092246E+03</rscale>
<asrwt>0</asrwt>
<pdfrwt beam="1">  1        2 0.19595983E+00 0.66929166E+03</pdfrwt>
<pdfrwt beam="2">  1       -2 0.36303532E-01 0.66929166E+03</pdfrwt>
<totfact> 0.12492622E+02</totfact>
</mgrwt>
</event>
<event>
 4    1  0.8468429E-007  0.6844230E+03  0.7818608E-02  0.1006925E+00
         -2   -1    0    0    0  501 -0.00000000000E+00  0.00000000000E+00  0.33299470325E+03  0.33299470326E+03  0.25500000000E-02 0.  1.
          2   -1    0    0  501    0  0.00000000000E+00 -0.00000000000E+00 -0.27043377336E+04  0.27043377336E+04  0.25500000000E-02 0. -1.
    8880023    1    1    2    0    0 -0.94074449980E+02 -0.16054468386E+03 -0.26100051122E+04  0.26982515616E+04  0.65864270000E+03 0. -1.
    8880022    1    1    2    0    0  0.94074449980E+02  0.16054468386E+03  0.23866208185E+03  0.33908087528E+03  0.15294330000E+03 0.  0.
<mgrwt>
<rscale>  0 0.52715356E+03</rscale>
<asrwt>0</asrwt>
<pdfrwt beam="1">  1        2 0.41605194E+00 0.68442297E+03</pdfrwt>
<pdfrwt beam="2">  1       -2 0.51229956E-01 0.68442297E+03</pdfrwt>
<totfact> 0.10140652E+01</totfact>
</mgrwt>
</event>
<event>
 4    1  0.8468429E-007  0.6646249E+03  0.7818608E-02  0.1019850E+00
         -2   -1    0    0    0  501 -0.00000000000E+00  0.00000000000E+00  0.36342468269E+03  0.36342468270E+03  0.25500000000E-02 0.  1.
          2   -1    0    0  501    0  0.00000000000E+00 -0.00000000000E+00 -0.77936294434E+03  0.77936294435E+03  0.25500000000E-02 0. -1.
    8880023    1    1    2    0    0 -0.15474279109E+02  0.87616042253E+02 -0.59427629771E+03  0.89156634552E+03  0.65864270000E+03 0. -1.
    8880022    1    1    2    0    0  0.15474279109E+02 -0.87616042253E+02  0.17833803605E+03  0.25122128153E+03  0.15294330000E+03 0.  0.
<mgrwt>
<rscale>  0 0.47740702E+03</rscale>
<asrwt>0</asrwt>
<pdfrwt beam="1">  1        2 0.11990199E+00 0.66462488E+03</pdfrwt>
<pdfrwt beam="2">  1       -2 0.55911490E-01 0.66462488E+03</pdfrwt>
<totfact> 0.10904138E+02</totfact>
</mgrwt>
</event>
<event>
 4    1  0.8468429E-007  0.7684138E+03  0.7818608E-02  0.9783793E-01
          2   -1    0    0  501    0  0.00000000000E+00  0.00000000000E+00  0.22772582298E+04  0.22772582298E+04  0.25500000000E-02 0. -1.
         -2   -1    0    0    0  501 -0.00000000000E+00 -0.00000000000E+00 -0.37848610572E+03  0.37848610573E+03  0.25500000000E-02 0.  1.
    8880023    1    1    2    0    0  0.16750589482E+03  0.35859630850E+03  0.20624590038E+04  0.22009536310E+04  0.65864270000E+03 0. -1.
    8880022    1    1    2    0    0 -0.16750589482E+03 -0.35859630850E+03 -0.16368687975E+03  0.45479070448E+03  0.15294330000E+03 0.  0.
<mgrwt>
<rscale>  0 0.66239622E+03</rscale>
<asrwt>0</asrwt>
<pdfrwt beam="1">  1        2 0.35034742E+00 0.76841378E+03</pdfrwt>
<pdfrwt beam="2">  1       -2 0.58228632E-01 0.76841378E+03</pdfrwt>
<totfact> 0.13386070E+01</totfact>
</mgrwt>
</event>
<event>
 4    1  0.8468429E-007  0.1355557E+04  0.7818608E-02  0.9019009E-01
          2   -1    0    0  501    0  0.00000000000E+00  0.00000000000E+00  0.17505346623E+04  0.17505346623E+04  0.25500000000E-02 0. -1.
         -2   -1    0    0    0  501 -0.00000000000E+00 -0.00000000000E+00 -0.18904239996E+04  0.18904239996E+04  0.25500000000E-02 0.  1.
    8880023    1    1    2    0    0  0.11606378057E+04  0.23799868671E+03 -0.13692615150E+04  0.19267617376E+04  0.65864270000E+03 0.  0.
    8880022    1    1    2    0    0 -0.11606378057E+04 -0.23799868671E+03  0.12293721776E+04  0.17141969242E+04  0.15294330000E+03 0.  0.
<mgrwt>
<rscale>  0 0.13133958E+04</rscale>
<asrwt>0</asrwt>
<pdfrwt beam="1">  1        2 0.26931303E+00 0.13555566E+04</pdfrwt>
<pdfrwt beam="2">  1       -2 0.29083446E+00 0.13555566E+04</pdfrwt>
<totfact> 0.31747836E-01</totfact>
</mgrwt>
</event>
<event>
 4    1  0.8468429E-007  0.6715315E+03  0.7818608E-02  0.1014588E+00
          2   -1    0    0  501    0  0.00000000000E+00  0.00000000000E+00  0.22921895325E+04  0.22921895325E+04  0.25500000000E-02 0. -1.
         -2   -1    0    0    0  501 -0.00000000000E+00 -0.00000000000E+00 -0.22944134302E+03  0.22944134304E+03  0.25500000000E-02 0.  1.
    8880023    1    1    2    0    0  0.31479544208E+02  0.12709593643E+03  0.21851495507E+04  0.22860081155E+04  0.65864270000E+03 0. -1.
    8880022    1    1    2    0    0 -0.31479544208E+02 -0.12709593643E+03 -0.12240136131E+03  0.23562275999E+03  0.15294330000E+03 0.  0.
<mgrwt>
<rscale>  0 0.49691246E+03</rscale>
<asrwt>0</asrwt>
<pdfrwt beam="1">  1        2 0.35264454E+00 0.67153149E+03</pdfrwt>
<pdfrwt beam="2">  1       -2 0.35298668E-01 0.67153149E+03</pdfrwt>
<totfact> 0.36223917E+01</totfact>
</mgrwt>
</event>
<event>
 4    1  0.8468429E-007  0.1017250E+04  0.7818608E-02  0.9359330E-01
         -2   -1    0    0    0  501 -0.00000000000E+00  0.00000000000E+00  0.10131069544E+04  0.10131069544E+04  0.25500000000E-02 0.  1.
          2   -1    0    0  501    0  0.00000000000E+00 -0.00000000000E+00 -0.83184154515E+03  0.83184154516E+03  0.25500000000E-02 0. -1.
    8880023    1    1    2    0    0  0.21690225645E+03 -0.74427153707E+03  0.26259893133E+03  0.10505975037E+04  0.65864270000E+03 0. -1.
    8880022    1    1    2    0    0 -0.21690225645E+03  0.74427153707E+03 -0.81333522124E+02  0.79435099584E+03  0.15294330000E+03 0.  0.
<mgrwt>
<rscale>  0 0.95499622E+03</rscale>
<asrwt>0</asrwt>
<pdfrwt beam="1">  1        2 0.12797562E+00 0.10172497E+04</pdfrwt>
<pdfrwt beam="2">  1       -2 0.15586261E+00 0.10172497E+04</pdfrwt>
<totfact> 0.87533291E+00</totfact>
</mgrwt>
</event>
<event>
 4    1  0.8468429E-007  0.7546728E+03  0.7818608E-02  0.9819099E-01
          2   -1    0    0  501    0  0.00000000000E+00  0.00000000000E+00  0.51042722278E+03  0.51042722279E+03  0.25500000000E-02 0. -1.
         -2   -1    0    0    0  501 -0.00000000000E+00 -0.00000000000E+00 -0.83780214958E+03  0.83780214958E+03  0.25500000000E-02 0.  1.
    8880023    1    1    2    0    0 -0.36209427045E+03  0.67886563153E+02  0.10272293467E+03  0.76163183607E+03  0.65864270000E+03 0. -1.
    8880022    1    1    2    0    0  0.36209427045E+03 -0.67886563153E+02 -0.43009786146E+03  0.58659753630E+03  0.15294330000E+03 0.  0.
<mgrwt>
<rscale>  0 0.64347557E+03</rscale>
<asrwt>0</asrwt>
<pdfrwt beam="1">  1        2 0.78527265E-01 0.75467281E+03</pdfrwt>
<pdfrwt beam="2">  1       -2 0.12889264E+00 0.75467281E+03</pdfrwt>
<totfact> 0.27004707E+01</totfact>
</mgrwt>
</event>
<event>
 4    1  0.8468429E-007  0.9072312E+03  0.7818608E-02  0.9514521E-01
          2   -1    0    0  501    0  0.00000000000E+00  0.00000000000E+00  0.25487863580E+04  0.25487863580E+04  0.25500000000E-02 0. -1.
         -2   -1    0    0    0  501 -0.00000000000E+00 -0.00000000000E+00 -0.35546029305E+03  0.35546029306E+03  0.25500000000E-02 0.  1.
    8880023    1    1    2    0    0 -0.62257310221E+03  0.40754990214E+02  0.20561242552E+04  0.22473796733E+04  0.65864270000E+03 0.  0.
    8880022    1    1    2    0    0  0.62257310221E+03 -0.40754990214E+02  0.13720180969E+03  0.65686697772E+03  0.15294330000E+03 0.  0.
<mgrwt>
<rscale>  0 0.83221626E+03</rscale>
<asrwt>0</asrwt>
<pdfrwt beam="1">  1        2 0.39212096E+00 0.90723120E+03</pdfrwt>
<pdfrwt beam="2">  1       -2 0.54686201E-01 0.90723120E+03</pdfrwt>
<totfact> 0.10517645E+01</totfact>
</mgrwt>
</event>
<event>
 4    1  0.8468429E-007  0.6832577E+03  0.7818608E-02  0.1007538E+00
          2   -1    0    0  501    0  0.00000000000E+00  0.00000000000E+00  0.22443618122E+04  0.22443618122E+04  0.25500000000E-02 0. -1.
         -2   -1    0    0    0  501 -0.00000000000E+00 -0.00000000000E+00 -0.26605759141E+03  0.26605759142E+03  0.25500000000E-02 0.  1.
    8880023    1    1    2    0    0  0.18099316394E+03 -0.16504303389E+02  0.21243865945E+04  0.22315598864E+04  0.65864270000E+03 0.  0.
    8880022    1    1    2    0    0 -0.18099316394E+03  0.16504303389E+02 -0.14608237372E+03  0.27885951723E+03  0.15294330000E+03 0.  0.
<mgrwt>
<rscale>  0 0.52465042E+03</rscale>
<asrwt>0</asrwt>
<pdfrwt beam="1">  1        2 0.34528643E+00 0.68325773E+03</pdfrwt>
<pdfrwt beam="2">  1       -2 0.40931938E-01 0.68325773E+03</pdfrwt>
<totfact> 0.28877924E+01</totfact>
</mgrwt>
</event>
<event>
 4    1  0.8468429E-007  0.7216896E+03  0.7818608E-02  0.9916910E-01
         -2   -1    0    0    0  501 -0.00000000000E+00  0.00000000000E+00  0.63799136074E+03  0.63799136074E+03  0.25500000000E-02 0.  1.
          2   -1    0    0  501    0  0.00000000000E+00 -0.00000000000E+00 -0.19215557912E+04  0.19215557912E+04  0.25500000000E-02 0. -1.
    8880023    1    1    2    0    0  0.15248326161E+02  0.29460680827E+03 -0.18034779394E+04  0.19425160404E+04  0.65864270000E+03 0. -1.
    8880022    1    1    2    0    0 -0.15248326161E+02 -0.29460680827E+03  0.51991350891E+03  0.61703111160E+03  0.15294330000E+03 0.  0.
<mgrwt>
<rscale>  0 0.59448718E+03</rscale>
<asrwt>0</asrwt>
<pdfrwt beam="1">  1        2 0.29562397E+00 0.72168961E+03</pdfrwt>
<pdfrwt beam="2">  1       -2 0.98152518E-01 0.72168961E+03</pdfrwt>
<totfact> 0.66228396E+00</totfact>
</mgrwt>
</event>
<event>
 4    1  0.8468429E-007  0.9584396E+03  0.7818608E-02  0.9438074E-01
         -2   -1    0    0    0  501 -0.00000000000E+00  0.00000000000E+00  0.30937022823E+03  0.30937022825E+03  0.25500000000E-02 0.  1.
          2   -1    0    0  501    0  0.00000000000E+00 -0.00000000000E+00 -0.30183060866E+04  0.30183060866E+04  0.25500000000E-02 0. -1.
    8880023    1    1    2    0    0  0.52173025957E+03 -0.46107904186E+03 -0.23320183008E+04  0.25212925074E+04  0.65864270000E+03 0.  0.
    8880022    1    1    2    0    0 -0.52173025957E+03  0.46107904186E+03 -0.37691755753E+03  0.80638380736E+03  0.15294330000E+03 0. -1.
<mgrwt>
<rscale>  0 0.89007505E+03</rscale>
<asrwt>0</asrwt>
<pdfrwt beam="1">  1        2 0.46435476E+00 0.95843964E+03</pdfrwt>
<pdfrwt beam="2">  1       -2 0.47595422E-01 0.95843964E+03</pdfrwt>
<totfact> 0.73033962E+00</totfact>
</mgrwt>
</event>
<event>
 4    1  0.8468429E-007  0.6835357E+03  0.7818608E-02  0.1007390E+00
          2   -1    0    0  501    0  0.00000000000E+00  0.00000000000E+00  0.12275991437E+04  0.12275991437E+04  0.25500000000E-02 0. -1.
         -2   -1    0    0    0  501 -0.00000000000E+00 -0.00000000000E+00 -0.37804765761E+03  0.37804765762E+03  0.25500000000E-02 0.  1.
    8880023    1    1    2    0    0  0.18085333757E+03  0.26512834611E+02  0.10773920728E+04  0.12759289733E+04  0.65864270000E+03 0.  0.
    8880022    1    1    2    0    0 -0.18085333757E+03 -0.26512834611E+02 -0.22784058675E+03  0.32971782799E+03  0.15294330000E+03 0.  0.
<mgrwt>
<rscale>  0 0.52525095E+03</rscale>
<asrwt>0</asrwt>
<pdfrwt beam="1">  1        2 0.18886141E+00 0.68353571E+03</pdfrwt>
<pdfrwt beam="2">  1       -2 0.58161178E-01 0.68353571E+03</pdfrwt>
<totfact> 0.51684766E+01</totfact>
</mgrwt>
</event>
<event>
 4    1  0.1450895E-006  0.7437056E+03  0.7818608E-02  0.9849281E-01
         -2   -1    0    0    0  501 -0.00000000000E+00  0.00000000000E+00  0.15623978228E+04  0.15623978228E+04  0.25500000000E-02 0.  1.
          2   -1    0    0  501    0  0.00000000000E+00 -0.00000000000E+00 -0.16814433118E+04  0.16814433118E+04  0.25500000000E-02 0. -1.
    8880023    1    1    2    0    0 -0.33871857939E+03 -0.67509986053E+02 -0.15738928405E+04  0.17407575230E+04  0.65864270000E+03 0. -1.
    8880022    1    1    2    0    0  0.33871857939E+03  0.67509986053E+02  0.14548473515E+04  0.15030836116E+04  0.15294330000E+03 0.  0.
<mgrwt>
<rscale>  0 0.62783571E+03</rscale>
<asrwt>0</asrwt>
<pdfrwt beam="1">  1        2 0.25868359E+00 0.74370564E+03</pdfrwt>
<pdfrwt beam="2">  1       -2 0.24036890E+00 0.74370564E+03</pdfrwt>
<totfact> 0.77358146E-01</totfact>
</mgrwt>
</event>
<event>
 4    1  0.8468429E-007  0.6725886E+03  0.7818608E-02  0.1013871E+00
          2   -1    0    0  501    0  0.00000000000E+00  0.00000000000E+00  0.36136630455E+04  0.36136630455E+04  0.25500000000E-02 0. -1.
         -2   -1    0    0    0  501 -0.00000000000E+00 -0.00000000000E+00 -0.75534653373E+02  0.75534653416E+02  0.25500000000E-02 0.  1.
    8880023    1    1    2    0    0  0.10484065570E+03 -0.87026977189E+02  0.33297557588E+04  0.33970058695E+04  0.65864270000E+03 0. -1.
    8880022    1    1    2    0    0 -0.10484065570E+03  0.87026977189E+02  0.20837263332E+03  0.29219182941E+03  0.15294330000E+03 0.  0.
<mgrwt>
<rscale>  0 0.49964619E+03</rscale>
<asrwt>0</asrwt>
<pdfrwt beam="1">  1        2 0.55594825E+00 0.67258863E+03</pdfrwt>
<pdfrwt beam="2">  1       -2 0.11620714E-01 0.67258863E+03</pdfrwt>
<totfact> 0.39681830E+01</totfact>
</mgrwt>
</event>
<event>
 4    1  0.8468429E-007  0.8077125E+03  0.7818608E-02  0.9694362E-01
          2   -1    0    0  501    0  0.00000000000E+00  0.00000000000E+00  0.20204068294E+04  0.20204068294E+04  0.25500000000E-02 0. -1.
         -2   -1    0    0    0  501 -0.00000000000E+00 -0.00000000000E+00 -0.57050868470E+03  0.57050868471E+03  0.25500000000E-02 0.  1.
    8880023    1    1    2    0    0 -0.16040743502E+03 -0.43915684877E+03  0.18094923458E+04  0.19815806920E+04  0.65864270000E+03 0. -1.
    8880022    1    1    2    0    0  0.16040743502E+03  0.43915684877E+03 -0.35959420108E+03  0.60933482216E+03  0.15294330000E+03 0.  0.
<mgrwt>
<rscale>  0 0.71353495E+03</rscale>
<asrwt>0</asrwt>
<pdfrwt beam="1">  1        2 0.31083181E+00 0.80771250E+03</pdfrwt>
<pdfrwt beam="2">  1       -2 0.87770569E-01 0.80771250E+03</pdfrwt>
<totfact> 0.74856152E+00</totfact>
</mgrwt>
</event>
<event>
 4    1  0.8468429E-007  0.7616883E+03  0.7818608E-02  0.9800756E-01
         -2   -1    0    0    0  501 -0.00000000000E+00  0.00000000000E+00  0.21904330467E+03  0.21904330468E+03  0.25500000000E-02 0.  1.
          2   -1    0    0  501    0  0.00000000000E+00 -0.00000000000E+00 -0.15843167375E+04  0.15843167375E+04  0.25500000000E-02 0. -1.
    8880023    1    1    2    0    0 -0.17899101417E+03 -0.33811405292E+03 -0.80931924546E+03  0.11113805574E+04  0.65864270000E+03 0.  1.
    8880022    1    1    2    0    0  0.17899101417E+03  0.33811405292E+03 -0.55595418733E+03  0.69197948478E+03  0.15294330000E+03 0. -1.
<mgrwt>
<rscale>  0 0.65321985E+03</rscale>
<asrwt>0</asrwt>
<pdfrwt beam="1">  1        2 0.24374103E+00 0.76168832E+03</pdfrwt>
<pdfrwt beam="2">  1       -2 0.33698971E-01 0.76168832E+03</pdfrwt>
<totfact> 0.95443980E+01</totfact>
</mgrwt>
</event>
<event>
 4    1  0.8468429E-007  0.7997543E+03  0.7818608E-02  0.9711328E-01
          2   -1    0    0  501    0  0.00000000000E+00  0.00000000000E+00  0.11809501630E+04  0.11809501630E+04  0.25500000000E-02 0. -1.
         -2   -1    0    0    0  501 -0.00000000000E+00 -0.00000000000E+00 -0.63654702573E+03  0.63654702573E+03  0.25500000000E-02 0.  1.
    8880023    1    1    2    0    0  0.15919532690E+03 -0.42479832292E+03  0.91267489679E+03  0.12135000786E+04  0.65864270000E+03 0. -1.
    8880022    1    1    2    0    0 -0.15919532690E+03  0.42479832292E+03 -0.36827175948E+03  0.60399711018E+03  0.15294330000E+03 0.  0.
<mgrwt>
<rscale>  0 0.70346344E+03</rscale>
<asrwt>0</asrwt>
<pdfrwt beam="1">  1        2 0.18168464E+00 0.79975432E+03</pdfrwt>
<pdfrwt beam="2">  1       -2 0.97930313E-01 0.79975432E+03</pdfrwt>
<totfact> 0.17102429E+01</totfact>
</mgrwt>
</event>
<event>
 4    1  0.8468429E-007  0.6783308E+03  0.7818608E-02  0.1010284E+00
          2   -1    0    0  501    0  0.00000000000E+00  0.00000000000E+00  0.22705036185E+03  0.22705036186E+03  0.25500000000E-02 0. -1.
         -2   -1    0    0    0  501 -0.00000000000E+00 -0.00000000000E+00 -0.21921917429E+04  0.21921917429E+04  0.25500000000E-02 0.  1.
    8880023    1    1    2    0    0  0.16204626818E+03  0.79630284082E+01 -0.30422754957E+03  0.74342922395E+03  0.65864270000E+03 0. -1.
    8880022    1    1    2    0    0 -0.16204626818E+03 -0.79630284082E+01 -0.16609138315E+04  0.16758128808E+04  0.15294330000E+03 0.  0.
<mgrwt>
<rscale>  0 0.51361894E+03</rscale>
<asrwt>0</asrwt>
<pdfrwt beam="1">  1        2 0.34930826E-01 0.67833075E+03</pdfrwt>
<pdfrwt beam="2">  1       -2 0.33726025E+00 0.67833075E+03</pdfrwt>
<totfact> 0.29710028E+00</totfact>
</mgrwt>
</event>
<event>
 4    1  0.8468429E-007  0.6734102E+03  0.7818608E-02  0.1013328E+00
          2   -1    0    0  501    0  0.00000000000E+00  0.00000000000E+00  0.67172535535E+03  0.67172535536E+03  0.25500000000E-02 0. -1.
         -2   -1    0    0    0  501 -0.00000000000E+00 -0.00000000000E+00 -0.10160102644E+04  0.10160102644E+04  0.25500000000E-02 0.  1.
    8880023    1    1    2    0    0 -0.13682624898E+03 -0.30816807349E+02  0.48692743584E+03  0.83101121055E+03  0.65864270000E+03 0. -1.
    8880022    1    1    2    0    0  0.13682624898E+03  0.30816807349E+02 -0.83121234487E+03  0.85672440919E+03  0.15294330000E+03 0.  0.
<mgrwt>
<rscale>  0 0.50173280E+03</rscale>
<asrwt>0</asrwt>
<pdfrwt beam="1">  1        2 0.10334236E+00 0.67341021E+03</pdfrwt>
<pdfrwt beam="2">  1       -2 0.15630927E+00 0.67341021E+03</pdfrwt>
<totfact> 0.11862184E+01</totfact>
</mgrwt>
</event>
<event>
 4    1  0.8468429E-007  0.6919027E+03  0.7818608E-02  0.1003261E+00
          2   -1    0    0  501    0  0.00000000000E+00  0.00000000000E+00  0.18078559528E+04  0.18078559528E+04  0.25500000000E-02 0. -1.
         -2   -1    0    0    0  501 -0.00000000000E+00 -0.00000000000E+00 -0.26870061572E+03  0.26870061573E+03  0.25500000000E-02 0.  1.
    8880023    1    1    2    0    0 -0.83661810431E+02  0.19473004805E+03  0.16526293889E+04  0.17916230612E+04  0.65864270000E+03 0. -1.
    8880022    1    1    2    0    0  0.83661810431E+02 -0.19473004805E+03 -0.11347405182E+03  0.28493350732E+03  0.15294330000E+03 0.  0.
<mgrwt>
<rscale>  0 0.54243147E+03</rscale>
<asrwt>0</asrwt>
<pdfrwt beam="1">  1        2 0.27813169E+00 0.69190266E+03</pdfrwt>
<pdfrwt beam="2">  1       -2 0.41338556E-01 0.69190266E+03</pdfrwt>
<totfact> 0.48958591E+01</totfact>
</mgrwt>
</event>
<event>
 4    1  0.8468429E-007  0.7567023E+03  0.7818608E-02  0.9813721E-01
         -2   -1    0    0    0  501 -0.00000000000E+00  0.00000000000E+00  0.33747841845E+03  0.33747841846E+03  0.25500000000E-02 0.  1.
          2   -1    0    0  501    0  0.00000000000E+00 -0.00000000000E+00 -0.13288933690E+04  0.13288933690E+04  0.25500000000E-02 0. -1.
    8880023    1    1    2    0    0 -0.30076314152E+03  0.21984025103E+03 -0.10114215734E+04  0.12631595341E+04  0.65864270000E+03 0. -1.
    8880022    1    1    2    0    0  0.30076314152E+03 -0.21984025103E+03  0.20006622844E+02  0.40321225334E+03  0.15294330000E+03 0.  1.
<mgrwt>
<rscale>  0 0.64631378E+03</rscale>
<asrwt>0</asrwt>
<pdfrwt beam="1">  1        2 0.20444513E+00 0.75670233E+03</pdfrwt>
<pdfrwt beam="2">  1       -2 0.51919757E-01 0.75670233E+03</pdfrwt>
<totfact> 0.56725115E+01</totfact>
</mgrwt>
</event>
<event>
 4    1  0.8468429E-007  0.7899461E+03  0.7818608E-02  0.9732972E-01
          2   -1    0    0  501    0  0.00000000000E+00  0.00000000000E+00  0.12275676062E+04  0.12275676062E+04  0.25500000000E-02 0. -1.
         -2   -1    0    0    0  501 -0.00000000000E+00 -0.00000000000E+00 -0.11187397571E+04  0.11187397571E+04  0.25500000000E-02 0.  1.
    8880023    1    1    2    0    0 -0.43285169296E+03 -0.53329002493E+02  0.10404485052E+04  0.13063490609E+04  0.65864270000E+03 0.  0.
    8880022    1    1    2    0    0  0.43285169296E+03  0.53329002493E+02 -0.93162065616E+03  0.10399583023E+04  0.15294330000E+03 0.  1.
<mgrwt>
<rscale>  0 0.69087149E+03</rscale>
<asrwt>0</asrwt>
<pdfrwt beam="1">  1        2 0.18885655E+00 0.78994606E+03</pdfrwt>
<pdfrwt beam="2">  1       -2 0.17211381E+00 0.78994606E+03</pdfrwt>
<totfact> 0.38219409E+00</totfact>
</mgrwt>
</event>
<event>
 4    1  0.8468429E-007  0.7240035E+03  0.7818608E-02  0.9909265E-01
         -2   -1    0    0    0  501 -0.00000000000E+00  0.00000000000E+00  0.22038648793E+03  0.22038648795E+03  0.25500000000E-02 0.  1.
          2   -1    0    0  501    0  0.00000000000E+00 -0.00000000000E+00 -0.21673854055E+04  0.21673854055E+04  0.25500000000E-02 0. -1.
    8880023    1    1    2    0    0  0.16212982578E+03  0.25314967959E+03 -0.19169884594E+04  0.20491524591E+04  0.65864270000E+03 0.  0.
    8880022    1    1    2    0    0 -0.16212982578E+03 -0.25314967959E+03 -0.30010458079E+02  0.33861943431E+03  0.15294330000E+03 0.  0.
<mgrwt>
<rscale>  0 0.59814349E+03</rscale>
<asrwt>0</asrwt>
<pdfrwt beam="1">  1        2 0.33344389E+00 0.72400349E+03</pdfrwt>
<pdfrwt beam="2">  1       -2 0.33905615E-01 0.72400349E+03</pdfrwt>
<totfact> 0.45472502E+01</totfact>
</mgrwt>
</event>
<event>
 4    1  0.8468429E-007  0.7005088E+03  0.7818608E-02  0.9995097E-01
         -2   -1    0    0    0  501 -0.00000000000E+00  0.00000000000E+00  0.98184672973E+03  0.98184672973E+03  0.25500000000E-02 0.  1.
          2   -1    0    0  501    0  0.00000000000E+00 -0.00000000000E+00 -0.44213599106E+03  0.44213599107E+03  0.25500000000E-02 0. -1.
    8880023    1    1    2    0    0 -0.14809427900E+03  0.18700398473E+03 -0.11564488410E+03  0.70999038815E+03  0.65864270000E+03 0.  0.
    8880022    1    1    2    0    0  0.14809427900E+03 -0.18700398473E+03  0.65535562276E+03  0.71399233265E+03  0.15294330000E+03 0.  0.
<mgrwt>
<rscale>  0 0.55865750E+03</rscale>
<asrwt>0</asrwt>
<pdfrwt beam="1">  1        2 0.68020923E-01 0.70050882E+03</pdfrwt>
<pdfrwt beam="2">  1       -2 0.15105334E+00 0.70050882E+03</pdfrwt>
<totfact> 0.21239212E+01</totfact>
</mgrwt>
</event>
<event>
 4    1  0.9063068E-007  0.7116546E+03  0.7818608E-02  0.9951908E-01
         -2   -1    0    0    0  501 -0.00000000000E+00  0.00000000000E+00  0.19303985960E+04  0.19303985960E+04  0.25500000000E-02 0.  1.
          2   -1    0    0  501    0  0.00000000000E+00 -0.00000000000E+00 -0.10870025456E+04  0.10870025456E+04  0.25500000000E-02 0. -1.
    8880023    1    1    2    0    0 -0.26950032995E+03  0.34021856847E+01 -0.95584040354E+03  0.11916723904E+04  0.65864270000E+03 0. -1.
    8880022    1    1    2    0    0  0.26950032995E+03 -0.34021856847E+01  0.17992364540E+04  0.18257287512E+04  0.15294330000E+03 0.  0.
<mgrwt>
<rscale>  0 0.57810252E+03</rscale>
<asrwt>0</asrwt>
<pdfrwt beam="1">  1        2 0.16723116E+00 0.71165456E+03</pdfrwt>
<pdfrwt beam="2">  1       -2 0.29698440E+00 0.71165456E+03</pdfrwt>
<totfact> 0.77652013E-01</totfact>
</mgrwt>
</event>
<event>
 4    1  0.8468429E-007  0.8307007E+03  0.7818608E-02  0.9647971E-01
          2   -1    0    0  501    0  0.00000000000E+00  0.00000000000E+00  0.27436614991E+03  0.27436614992E+03  0.25500000000E-02 0. -1.
         -2   -1    0    0    0  501 -0.00000000000E+00 -0.00000000000E+00 -0.26288579820E+04  0.26288579820E+04  0.25500000000E-02 0.  1.
    8880023    1    1    2    0    0  0.10427832318E+03 -0.49535786143E+03 -0.48837129165E+03  0.96362342455E+03  0.65864270000E+03 0.  0.
    8880022    1    1    2    0    0 -0.10427832318E+03  0.49535786143E+03 -0.18661205405E+04  0.19396007074E+04  0.15294330000E+03 0.  0.
<mgrwt>
<rscale>  0 0.74200923E+03</rscale>
<asrwt>0</asrwt>
<pdfrwt beam="1">  1        2 0.42210179E-01 0.83070066E+03</pdfrwt>
<pdfrwt beam="2">  1       -2 0.40443967E+00 0.83070066E+03</pdfrwt>
<totfact> 0.88246767E-01</totfact>
</mgrwt>
</event>
<event>
 4    1  0.8468429E-007  0.8304210E+03  0.7818608E-02  0.9648514E-01
          2   -1    0    0  501    0  0.00000000000E+00  0.00000000000E+00  0.66087493667E+03  0.66087493667E+03  0.25500000000E-02 0. -1.
         -2   -1    0    0    0  501 -0.00000000000E+00 -0.00000000000E+00 -0.10218978110E+04  0.10218978110E+04  0.25500000000E-02 0.  1.
    8880023    1    1    2    0    0  0.50410234471E+03 -0.40860589815E+02 -0.67324381310E+03  0.10690445266E+04  0.65864270000E+03 0.  0.
    8880022    1    1    2    0    0 -0.50410234471E+03  0.40860589815E+02  0.31222093875E+03  0.61372822108E+03  0.15294330000E+03 0.  0.
<mgrwt>
<rscale>  0 0.74166766E+03</rscale>
<asrwt>0</asrwt>
<pdfrwt beam="1">  1        2 0.10167307E+00 0.83042096E+03</pdfrwt>
<pdfrwt beam="2">  1       -2 0.15721505E+00 0.83042096E+03</pdfrwt>
<totfact> 0.11722587E+01</totfact>
</mgrwt>
</event>
<event>
 4    1  0.8468429E-007  0.6673992E+03  0.7818608E-02  0.1017600E+00
         -2   -1    0    0    0  501 -0.00000000000E+00  0.00000000000E+00  0.37554656501E+03  0.37554656502E+03  0.25500000000E-02 0.  1.
          2   -1    0    0  501    0  0.00000000000E+00 -0.00000000000E+00 -0.63962292124E+03  0.63962292124E+03  0.25500000000E-02 0. -1.
    8880023    1    1    2    0    0  0.22291916193E+02  0.10542568534E+03 -0.40524183939E+03  0.78079617014E+03  0.65864270000E+03 0. -1.
    8880022    1    1    2    0    0 -0.22291916193E+02 -0.10542568534E+03  0.14116548316E+03  0.23437331612E+03  0.15294330000E+03 0.  0.
<mgrwt>
<rscale>  0 0.48562683E+03</rscale>
<asrwt>0</asrwt>
<pdfrwt beam="1">  1        2 0.98403527E-01 0.66739921E+03</pdfrwt>
<pdfrwt beam="2">  1       -2 0.57776394E-01 0.66739921E+03</pdfrwt>
<totfact> 0.13066522E+02</totfact>
</mgrwt>
</event>
<event>
 4    1  0.8468429E-007  0.6709056E+03  0.7818608E-02  0.1015022E+00
         -2   -1    0    0    0  501 -0.00000000000E+00  0.00000000000E+00  0.17708482311E+04  0.17708482311E+04  0.25500000000E-02 0.  1.
          2   -1    0    0  501    0  0.00000000000E+00 -0.00000000000E+00 -0.20021135233E+03  0.20021135234E+03  0.25500000000E-02 0. -1.
    8880023    1    1    2    0    0  0.26009497069E+02 -0.12501050182E+03  0.39477011216E+03  0.77843289192E+03  0.65864270000E+03 0. -1.
    8880022    1    1    2    0    0 -0.26009497069E+02  0.12501050182E+03  0.11758667666E+04  0.11926266915E+04  0.15294330000E+03 0.  0.
<mgrwt>
<rscale>  0 0.49526666E+03</rscale>
<asrwt>0</asrwt>
<pdfrwt beam="1">  1        2 0.30801748E-01 0.67090560E+03</pdfrwt>
<pdfrwt beam="2">  1       -2 0.27243818E+00 0.67090560E+03</pdfrwt>
<totfact> 0.84224243E+00</totfact>
</mgrwt>
</event>
<event>
 4    1  0.8468429E-007  0.7306452E+03  0.7818608E-02  0.9888086E-01
          2   -1    0    0  501    0  0.00000000000E+00  0.00000000000E+00  0.11294185415E+04  0.11294185415E+04  0.25500000000E-02 0. -1.
         -2   -1    0    0    0  501 -0.00000000000E+00 -0.00000000000E+00 -0.41753333465E+03  0.41753333466E+03  0.25500000000E-02 0.  1.
    8880023    1    1    2    0    0 -0.31698854065E+02 -0.31468613524E+03  0.89127745451E+03  0.11524833570E+04  0.65864270000E+03 0.  0.
    8880022    1    1    2    0    0  0.31698854065E+02  0.31468613524E+03 -0.17939224765E+03  0.39446851914E+03  0.15294330000E+03 0.  0.
<mgrwt>
<rscale>  0 0.60842181E+03</rscale>
<asrwt>0</asrwt>
<pdfrwt beam="1">  1        2 0.17375670E+00 0.73064519E+03</pdfrwt>
<pdfrwt beam="2">  1       -2 0.64235899E-01 0.73064519E+03</pdfrwt>
<totfact> 0.47678144E+01</totfact>
</mgrwt>
</event>
<event>
 4    1  0.8468429E-007  0.6746282E+03  0.7818608E-02  0.1012542E+00
          2   -1    0    0  501    0  0.00000000000E+00  0.00000000000E+00  0.82848993093E+03  0.82848993093E+03  0.25500000000E-02 0. -1.
         -2   -1    0    0    0  501 -0.00000000000E+00 -0.00000000000E+00 -0.25607031200E+03  0.25607031201E+03  0.25500000000E-02 0.  1.
    8880023    1    1    2    0    0  0.47293307967E+02  0.13811705102E+03  0.55285489211E+03  0.87222228517E+03  0.65864270000E+03 0.  1.
    8880022    1    1    2    0    0 -0.47293307967E+02 -0.13811705102E+03  0.19564726815E+02  0.21233795777E+03  0.15294330000E+03 0.  0.
<mgrwt>
<rscale>  0 0.50476871E+03</rscale>
<asrwt>0</asrwt>
<pdfrwt beam="1">  1        2 0.12745999E+00 0.67462818E+03</pdfrwt>
<pdfrwt beam="2">  1       -2 0.39395433E-01 0.67462818E+03</pdfrwt>
<totfact> 0.20300333E+02</totfact>
</mgrwt>
</event>
<event>
 4    1  0.8468429E-007  0.7596046E+03  0.7818608E-02  0.9806132E-01
          2   -1    0    0  501    0  0.00000000000E+00  0.00000000000E+00  0.27434346794E+04  0.27434346794E+04  0.25500000000E-02 0. -1.
         -2   -1    0    0    0  501 -0.00000000000E+00 -0.00000000000E+00 -0.23581979704E+03  0.23581979705E+03  0.25500000000E-02 0.  1.
    8880023    1    1    2    0    0  0.76555307294E+02  0.37057821401E+03  0.24524582750E+04  0.25674015511E+04  0.65864270000E+03 0. -1.
    8880022    1    1    2    0    0 -0.76555307294E+02 -0.37057821401E+03  0.55156607379E+02  0.41185292536E+03  0.15294330000E+03 0.  0.
<mgrwt>
<rscale>  0 0.65034489E+03</rscale>
<asrwt>0</asrwt>
<pdfrwt beam="1">  1        2 0.42206687E+00 0.75960459E+03</pdfrwt>
<pdfrwt beam="2">  1       -2 0.36279969E-01 0.75960459E+03</pdfrwt>
<totfact> 0.18791351E+01</totfact>
</mgrwt>
</event>
<event>
 4    1  0.8468429E-007  0.8413102E+03  0.7818608E-02  0.9627715E-01
         -2   -1    0    0    0  501 -0.00000000000E+00  0.00000000000E+00  0.82251258923E+03  0.82251258923E+03  0.25500000000E-02 0.  1.
          2   -1    0    0  501    0  0.00000000000E+00 -0.00000000000E+00 -0.66985919410E+03  0.66985919411E+03  0.25500000000E-02 0. -1.
    8880023    1    1    2    0    0 -0.52330974783E+03  0.11815655522E+02 -0.17060136871E+03  0.85843330269E+03  0.65864270000E+03 0.  0.
    8880022    1    1    2    0    0  0.52330974783E+03 -0.11815655522E+02  0.32325476384E+03  0.63393848065E+03  0.15294330000E+03 0.  0.
<mgrwt>
<rscale>  0 0.75488691E+03</rscale>
<asrwt>0</asrwt>
<pdfrwt beam="1">  1        2 0.10305526E+00 0.84131023E+03</pdfrwt>
<pdfrwt beam="2">  1       -2 0.12654040E+00 0.84131023E+03</pdfrwt>
<totfact> 0.20250619E+01</totfact>
</mgrwt>
</event>
<event>
 4    1  0.8468429E-007  0.6627592E+03  0.7818608E-02  0.1021492E+00
          2   -1    0    0  501    0  0.00000000000E+00  0.00000000000E+00  0.34983125759E+03  0.34983125760E+03  0.25500000000E-02 0. -1.
         -2   -1    0    0    0  501 -0.00000000000E+00 -0.00000000000E+00 -0.11619484192E+04  0.11619484192E+04  0.25500000000E-02 0.  1.
    8880023    1    1    2    0    0  0.28799691934E+01  0.73697068876E+02  0.19459448239E+02  0.66304481641E+03  0.65864270000E+03 0.  0.
    8880022    1    1    2    0    0 -0.28799691934E+01 -0.73697068876E+02 -0.83157660989E+03  0.84873486043E+03  0.15294330000E+03 0.  1.
<mgrwt>
<rscale>  0 0.47151952E+03</rscale>
<asrwt>0</asrwt>
<pdfrwt beam="1">  1        2 0.53820194E-01 0.66275920E+03</pdfrwt>
<pdfrwt beam="2">  1       -2 0.17876129E+00 0.66275920E+03</pdfrwt>
<totfact> 0.17498566E+01</totfact>
</mgrwt>
</event>
<event>
 4    1  0.8468429E-007  0.6779549E+03  0.7818608E-02  0.1010505E+00
          2   -1    0    0  501    0  0.00000000000E+00  0.00000000000E+00  0.41986542638E+03  0.41986542639E+03  0.25500000000E-02 0. -1.
         -2   -1    0    0    0  501 -0.00000000000E+00 -0.00000000000E+00 -0.19787902305E+04  0.19787902305E+04  0.25500000000E-02 0.  1.
    8880023    1    1    2    0    0  0.24527241643E+01 -0.16064432811E+03  0.13415992031E+03  0.69110180617E+03  0.65864270000E+03 0. -1.
    8880022    1    1    2    0    0 -0.24527241643E+01  0.16064432811E+03 -0.16930847244E+04  0.17075538507E+04  0.15294330000E+03 0.  0.
<mgrwt>
<rscale>  0 0.51274442E+03</rscale>
<asrwt>0</asrwt>
<pdfrwt beam="1">  1        2 0.64594682E-01 0.67795488E+03</pdfrwt>
<pdfrwt beam="2">  1       -2 0.30442926E+00 0.67795488E+03</pdfrwt>
<totfact> 0.23688654E+00</totfact>
</mgrwt>
</event>
<event>
 4    1  0.8468429E-007  0.6642084E+03  0.7818608E-02  0.1020207E+00
          2   -1    0    0  501    0  0.00000000000E+00  0.00000000000E+00  0.70718381277E+03  0.70718381277E+03  0.25500000000E-02 0. -1.
         -2   -1    0    0    0  501 -0.00000000000E+00 -0.00000000000E+00 -0.25209273077E+03  0.25209273078E+03  0.25500000000E-02 0.  1.
    8880023    1    1    2    0    0 -0.69694973408E+02 -0.50051730352E+02  0.31653232062E+03  0.73577542857E+03  0.65864270000E+03 0.  1.
    8880022    1    1    2    0    0  0.69694973408E+02  0.50051730352E+02  0.13855876138E+03  0.22350111498E+03  0.15294330000E+03 0. -1.
<mgrwt>
<rscale>  0 0.47611992E+03</rscale>
<asrwt>0</asrwt>
<pdfrwt beam="1">  1        2 0.10879751E+00 0.66420838E+03</pdfrwt>
<pdfrwt beam="2">  1       -2 0.38783497E-01 0.66420838E+03</pdfrwt>
<totfact> 0.25717697E+02</totfact>
</mgrwt>
</event>
<event>
 4    1  0.8468429E-007  0.8669336E+03  0.7818608E-02  0.9581347E-01
         -2   -1    0    0    0  501 -0.00000000000E+00  0.00000000000E+00  0.26228740121E+03  0.26228740122E+03  0.25500000000E-02 0.  1.
          2   -1    0    0  501    0  0.00000000000E+00 -0.00000000000E+00 -0.20182467081E+04  0.20182467081E+04  0.25500000000E-02 0. -1.
    8880023    1    1    2    0    0 -0.42490823069E+03  0.37042774932E+03 -0.11323151980E+04  0.14260826189E+04  0.65864270000E+03 0. -1.
    8880022    1    1    2    0    0  0.42490823069E+03 -0.37042774932E+03 -0.62364410890E+03  0.85445149046E+03  0.15294330000E+03 0.  1.
<mgrwt>
<rscale>  0 0.78543168E+03</rscale>
<asrwt>0</asrwt>
<pdfrwt beam="1">  1        2 0.31049948E+00 0.86693364E+03</pdfrwt>
<pdfrwt beam="2">  1       -2 0.40351909E-01 0.86693364E+03</pdfrwt>
<totfact> 0.38612100E+01</totfact>
</mgrwt>
</event>
<event>
 4    1  0.8468429E-007  0.9597983E+03  0.7818608E-02  0.9436154E-01
          2   -1    0    0  501    0  0.00000000000E+00  0.00000000000E+00  0.12185453092E+04  0.12185453093E+04  0.25500000000E-02 0. -1.
         -2   -1    0    0    0  501 -0.00000000000E+00 -0.00000000000E+00 -0.58312312807E+03  0.58312312808E+03  0.25500000000E-02 0.  1.
    8880023    1    1    2    0    0 -0.66325132367E+03  0.21794552160E+03  0.46705912862E+03  0.10674066726E+04  0.65864270000E+03 0. -1.
    8880022    1    1    2    0    0  0.66325132367E+03 -0.21794552160E+03  0.16836305256E+03  0.73426176478E+03  0.15294330000E+03 0.  1.
<mgrwt>
<rscale>  0 0.89159111E+03</rscale>
<asrwt>0</asrwt>
<pdfrwt beam="1">  1        2 0.18746851E+00 0.95979830E+03</pdfrwt>
<pdfrwt beam="2">  1       -2 0.89711251E-01 0.95979830E+03</pdfrwt>
<totfact> 0.19627942E+01</totfact>
</mgrwt>
</event>
<event>
 4    1  0.8468429E-007  0.6777182E+03  0.7818608E-02  0.1010645E+00
         -2   -1    0    0    0  501 -0.00000000000E+00  0.00000000000E+00  0.66447633249E+03  0.66447633249E+03  0.25500000000E-02 0.  1.
          2   -1    0    0  501    0  0.00000000000E+00 -0.00000000000E+00 -0.10028145534E+04  0.10028145534E+04  0.25500000000E-02 0. -1.
    8880023    1    1    2    0    0  0.15287287435E+03 -0.46061622680E+02 -0.86337729752E+03  0.10975984479E+04  0.65864270000E+03 0. -1.
    8880022    1    1    2    0    0 -0.15287287435E+03  0.46061622680E+02  0.52503907665E+03  0.56969243791E+03  0.15294330000E+03 0.  0.
<mgrwt>
<rscale>  0 0.51219118E+03</rscale>
<asrwt>0</asrwt>
<pdfrwt beam="1">  1        2 0.15427916E+00 0.67771823E+03</pdfrwt>
<pdfrwt beam="2">  1       -2 0.10222713E+00 0.67771823E+03</pdfrwt>
<totfact> 0.20145255E+01</totfact>
</mgrwt>
</event>
<event>
 4    1  0.8468429E-007  0.6905762E+03  0.7818608E-02  0.1003880E+00
         -2   -1    0    0    0  501 -0.00000000000E+00  0.00000000000E+00  0.15540704305E+03  0.15540704307E+03  0.25500000000E-02 0.  1.
          2   -1    0    0  501    0  0.00000000000E+00 -0.00000000000E+00 -0.23101725591E+04  0.23101725591E+04  0.25500000000E-02 0. -1.
    8880023    1    1    2    0    0  0.12725231320E+03 -0.16398813055E+03 -0.20880115817E+04  0.21992471052E+04  0.65864270000E+03 0.  0.
    8880022    1    1    2    0    0 -0.12725231320E+03  0.16398813055E+03 -0.66753934354E+02  0.26633249697E+03  0.15294330000E+03 0.  0.
<mgrwt>
<rscale>  0 0.53981202E+03</rscale>
<asrwt>0</asrwt>
<pdfrwt beam="1">  1        2 0.35541114E+00 0.69057618E+03</pdfrwt>
<pdfrwt beam="2">  1       -2 0.23908778E-01 0.69057618E+03</pdfrwt>
<totfact> 0.72442970E+01</totfact>
</mgrwt>
</event>
<event>
 4    1  0.8468429E-007  0.8697678E+03  0.7818608E-02  0.9576419E-01
          2   -1    0    0  501    0  0.00000000000E+00  0.00000000000E+00  0.10470452529E+04  0.10470452529E+04  0.25500000000E-02 0. -1.
         -2   -1    0    0    0  501 -0.00000000000E+00 -0.00000000000E+00 -0.62659925648E+03  0.62659925649E+03  0.25500000000E-02 0.  1.
    8880023    1    1    2    0    0 -0.56587707986E+03 -0.49688673976E+02  0.60223382321E+03  0.10579138046E+04  0.65864270000E+03 0.  0.
    8880022    1    1    2    0    0  0.56587707986E+03  0.49688673976E+02 -0.18178782682E+03  0.61573070479E+03  0.15294330000E+03 0.  0.
<mgrwt>
<rscale>  0 0.78876779E+03</rscale>
<asrwt>0</asrwt>
<pdfrwt beam="1">  1        2 0.16108388E+00 0.86976781E+03</pdfrwt>
<pdfrwt beam="2">  1       -2 0.96399886E-01 0.86976781E+03</pdfrwt>
<totfact> 0.21282753E+01</totfact>
</mgrwt>
</event>
<event>
 4    1  0.1118266E-006  0.7165553E+03  0.7818608E-02  0.9934419E-01
          2   -1    0    0  501    0  0.00000000000E+00  0.00000000000E+00  0.26978706783E+04  0.26978706783E+04  0.25500000000E-02 0. -1.
         -2   -1    0    0    0  501 -0.00000000000E+00 -0.00000000000E+00 -0.57002323540E+03  0.57002323541E+03  0.25500000000E-02 0.  1.
    8880023    1    1    2    0    0 -0.21349069550E+02  0.28139910115E+03  0.26000169303E+04  0.26969500331E+04  0.65864270000E+03 0. -1.
    8880022    1    1    2    0    0  0.21349069550E+02 -0.28139910115E+03 -0.47216948744E+03  0.57094388059E+03  0.15294330000E+03 0.  0.
<mgrwt>
<rscale>  0 0.58621814E+03</rscale>
<asrwt>0</asrwt>
<pdfrwt beam="1">  1        2 0.41505703E+00 0.71655526E+03</pdfrwt>
<pdfrwt beam="2">  1       -2 0.87695882E-01 0.71655526E+03</pdfrwt>
<totfact> 0.31777159E+00</totfact>
</mgrwt>
</event>
<event>
 4    1  0.8468429E-007  0.6815095E+03  0.7818608E-02  0.1008482E+00
         -2   -1    0    0    0  501 -0.00000000000E+00  0.00000000000E+00  0.52246216963E+03  0.52246216963E+03  0.25500000000E-02 0.  1.
          2   -1    0    0  501    0  0.00000000000E+00 -0.00000000000E+00 -0.58786968921E+03  0.58786968921E+03  0.25500000000E-02 0. -1.
    8880023    1    1    2    0    0  0.76673187704E+02 -0.15737281447E+03 -0.33078138939E+03  0.75754307751E+03  0.65864270000E+03 0. -1.
    8880022    1    1    2    0    0 -0.76673187704E+02  0.15737281447E+03  0.26537386981E+03  0.35278878134E+03  0.15294330000E+03 0. -1.
<mgrwt>
<rscale>  0 0.52082277E+03</rscale>
<asrwt>0</asrwt>
<pdfrwt beam="1">  1        2 0.90441491E-01 0.68150949E+03</pdfrwt>
<pdfrwt beam="2">  1       -2 0.80378795E-01 0.68150949E+03</pdfrwt>
<totfact> 0.70675086E+01</totfact>
</mgrwt>
</event>
<event>
 4    1  0.8468429E-007  0.6787171E+03  0.7818608E-02  0.1010059E+00
         -2   -1    0    0    0  501 -0.00000000000E+00  0.00000000000E+00  0.54007239001E+03  0.54007239002E+03  0.25500000000E-02 0.  1.
          2   -1    0    0  501    0  0.00000000000E+00 -0.00000000000E+00 -0.65558296373E+03  0.65558296374E+03  0.25500000000E-02 0. -1.
    8880023    1    1    2    0    0 -0.13997294615E+03 -0.85171934942E+02 -0.43443387576E+03  0.80584718330E+03  0.65864270000E+03 0. -1.
    8880022    1    1    2    0    0  0.13997294615E+03  0.85171934942E+02  0.31892330204E+03  0.38980817046E+03  0.15294330000E+03 0.  0.
<mgrwt>
<rscale>  0 0.51451258E+03</rscale>
<asrwt>0</asrwt>
<pdfrwt beam="1">  1        2 0.10085892E+00 0.67871709E+03</pdfrwt>
<pdfrwt beam="2">  1       -2 0.83088060E-01 0.67871709E+03</pdfrwt>
<totfact> 0.57457414E+01</totfact>
</mgrwt>
</event>
<event>
 4    1  0.8468429E-007  0.7159950E+03  0.7818608E-02  0.9936378E-01
         -2   -1    0    0    0  501 -0.00000000000E+00  0.00000000000E+00  0.53806085736E+03  0.53806085736E+03  0.25500000000E-02 0.  1.
          2   -1    0    0  501    0  0.00000000000E+00 -0.00000000000E+00 -0.10870958452E+04  0.10870958452E+04  0.25500000000E-02 0. -1.
    8880023    1    1    2    0    0  0.16552715417E+03  0.22680256094E+03 -0.90021144074E+03  0.11502301877E+04  0.65864270000E+03 0. -1.
    8880022    1    1    2    0    0 -0.16552715417E+03 -0.22680256094E+03  0.35117645291E+03  0.47492651485E+03  0.15294330000E+03 0.  0.
<mgrwt>
<rscale>  0 0.58530192E+03</rscale>
<asrwt>0</asrwt>
<pdfrwt beam="1">  1        2 0.16724552E+00 0.71599500E+03</pdfrwt>
<pdfrwt beam="2">  1       -2 0.82778593E-01 0.71599500E+03</pdfrwt>
<totfact> 0.28986808E+01</totfact>
</mgrwt>
</event>
<event>
 4    1  0.8468429E-007  0.6935186E+03  0.7818608E-02  0.1002523E+00
          2   -1    0    0  501    0  0.00000000000E+00  0.00000000000E+00  0.13176725288E+04  0.13176725288E+04  0.25500000000E-02 0. -1.
         -2   -1    0    0    0  501 -0.00000000000E+00 -0.00000000000E+00 -0.29160502995E+03  0.29160502996E+03  0.25500000000E-02 0.  1.
    8880023    1    1    2    0    0 -0.20844360690E+03  0.60902315026E+02  0.11285255868E+04  0.13245897613E+04  0.65864270000E+03 0. -1.
    8880022    1    1    2    0    0  0.20844360690E+03 -0.60902315026E+02 -0.10245808799E+03  0.28468779750E+03  0.15294330000E+03 0.  0.
<mgrwt>
<rscale>  0 0.54557607E+03</rscale>
<asrwt>0</asrwt>
<pdfrwt beam="1">  1        2 0.20271885E+00 0.69351859E+03</pdfrwt>
<pdfrwt beam="2">  1       -2 0.44862313E-01 0.69351859E+03</pdfrwt>
<totfact> 0.77811580E+01</totfact>
</mgrwt>
</event>
<event>
 4    1  0.8468429E-007  0.8124689E+03  0.7818608E-02  0.9684457E-01
          2   -1    0    0  501    0  0.00000000000E+00  0.00000000000E+00  0.19975350500E+04  0.19975350500E+04  0.25500000000E-02 0. -1.
         -2   -1    0    0    0  501 -0.00000000000E+00 -0.00000000000E+00 -0.58424835418E+03  0.58424835419E+03  0.25500000000E-02 0.  1.
    8880023    1    1    2    0    0  0.11395967348E+03  0.46185360590E+03 -0.24599644153E+03  0.84889340672E+03  0.65864270000E+03 0.  1.
    8880022    1    1    2    0    0 -0.11395967348E+03 -0.46185360590E+03  0.16592831373E+04  0.17328899974E+04  0.15294330000E+03 0.  0.
<mgrwt>
<rscale>  0 0.71949803E+03</rscale>
<asrwt>0</asrwt>
<pdfrwt beam="1">  1        2 0.30731309E+00 0.81246893E+03</pdfrwt>
<pdfrwt beam="2">  1       -2 0.89884361E-01 0.81246893E+03</pdfrwt>
<totfact> 0.72885842E+00</totfact>
</mgrwt>
</event>
<event>
 4    1  0.8468429E-007  0.6658346E+03  0.7818608E-02  0.1018843E+00
         -2   -1    0    0    0  501 -0.00000000000E+00  0.00000000000E+00  0.18177254342E+03  0.18177254344E+03  0.25500000000E-02 0.  1.
          2   -1    0    0  501    0  0.00000000000E+00 -0.00000000000E+00 -0.30602249597E+04  0.30602249597E+04  0.25500000000E-02 0. -1.
    8880023    1    1    2    0    0  0.28550994574E+02  0.93328977340E+02 -0.29665178195E+04  0.30403229495E+04  0.65864270000E+03 0. -1.
    8880022    1    1    2    0    0 -0.28550994574E+02 -0.93328977340E+02  0.88065403297E+02  0.20167455361E+03  0.15294330000E+03 0.  0.
<mgrwt>
<rscale>  0 0.48106356E+03</rscale>
<asrwt>0</asrwt>
<pdfrwt beam="1">  1        2 0.47080380E+00 0.66583456E+03</pdfrwt>
<pdfrwt beam="2">  1       -2 0.27965009E-01 0.66583456E+03</pdfrwt>
<totfact> 0.20068510E+01</totfact>
</mgrwt>
</event>
<event>
 4    1  0.8468429E-007  0.7533808E+03  0.7818608E-02  0.9822555E-01
          2   -1    0    0  501    0  0.00000000000E+00  0.00000000000E+00  0.45682162480E+03  0.45682162480E+03  0.25500000000E-02 0. -1.
         -2   -1    0    0    0  501 -0.00000000000E+00 -0.00000000000E+00 -0.79883895999E+03  0.79883896000E+03  0.25500000000E-02 0.  1.
    8880023    1    1    2    0    0 -0.34198368355E+03 -0.12969055228E+03 -0.34919734649E+02  0.75418967992E+03  0.65864270000E+03 0.  0.
    8880022    1    1    2    0    0  0.34198368355E+03  0.12969055228E+03 -0.30709760055E+03  0.50147090488E+03  0.15294330000E+03 0.  1.
<mgrwt>
<rscale>  0 0.64166021E+03</rscale>
<asrwt>0</asrwt>
<pdfrwt beam="1">  1        2 0.70280250E-01 0.75338084E+03</pdfrwt>
<pdfrwt beam="2">  1       -2 0.12289830E+00 0.75338084E+03</pdfrwt>
<totfact> 0.34599860E+01</totfact>
</mgrwt>
</event>
<event>
 4    1  0.8468429E-007  0.7210120E+03  0.7818608E-02  0.9919176E-01
          2   -1    0    0  501    0  0.00000000000E+00  0.00000000000E+00  0.13156528614E+04  0.13156528614E+04  0.25500000000E-02 0. -1.
         -2   -1    0    0    0  501 -0.00000000000E+00 -0.00000000000E+00 -0.21465020214E+03  0.21465020216E+03  0.25500000000E-02 0.  1.
    8880023    1    1    2    0    0  0.19087953074E+03  0.22274002557E+03  0.85267745790E+03  0.11166544531E+04  0.65864270000E+03 0.  0.
    8880022    1    1    2    0    0 -0.19087953074E+03 -0.22274002557E+03  0.24832520133E+03  0.41364861039E+03  0.15294330000E+03 0. -1.
<mgrwt>
<rscale>  0 0.59340851E+03</rscale>
<asrwt>0</asrwt>
<pdfrwt beam="1">  1        2 0.20240813E+00 0.72101201E+03</pdfrwt>
<pdfrwt beam="2">  1       -2 0.33023109E-01 0.72101201E+03</pdfrwt>
<totfact> 0.14083735E+02</totfact>
</mgrwt>
</event>
<event>
 4    1  0.8468429E-007  0.8215801E+03  0.7818608E-02  0.9665943E-01
          2   -1    0    0  501    0  0.00000000000E+00  0.00000000000E+00  0.13144221410E+04  0.13144221410E+04  0.25500000000E-02 0. -1.
         -2   -1    0    0    0  501 -0.00000000000E+00 -0.00000000000E+00 -0.41148892921E+03  0.41148892921E+03  0.25500000000E-02 0.  1.
    8880023    1    1    2    0    0 -0.48041792967E+03  0.10189316146E+03  0.89020176028E+03  0.12113847381E+04  0.65864270000E+03 0.  0.
    8880022    1    1    2    0    0  0.48041792967E+03 -0.10189316146E+03  0.12731451475E+02  0.51452633205E+03  0.15294330000E+03 0. -1.
<mgrwt>
<rscale>  0 0.73081268E+03</rscale>
<asrwt>0</asrwt>
<pdfrwt beam="1">  1        2 0.20221879E+00 0.82158007E+03</pdfrwt>
<pdfrwt beam="2">  1       -2 0.63305991E-01 0.82158007E+03</pdfrwt>
<totfact> 0.37938045E+01</totfact>
</mgrwt>
</event>
<event>
 4    1  0.8468429E-007  0.1266695E+04  0.7818608E-02  0.9094868E-01
          2   -1    0    0  501    0  0.00000000000E+00  0.00000000000E+00  0.18063504224E+04  0.18063504224E+04  0.25500000000E-02 0. -1.
         -2   -1    0    0    0  501 -0.00000000000E+00 -0.00000000000E+00 -0.85979290065E+03  0.85979290065E+03  0.25500000000E-02 0.  1.
    8880023    1    1    2    0    0  0.82967587765E+03  0.69450948542E+03  0.75924879898E+02  0.12689681954E+04  0.65864270000E+03 0. -1.
    8880022    1    1    2    0    0 -0.82967587765E+03 -0.69450948542E+03  0.87063264189E+03  0.13971751277E+04  0.15294330000E+03 0.  0.
<mgrwt>
<rscale>  0 0.12207703E+04</rscale>
<asrwt>0</asrwt>
<pdfrwt beam="1">  1        2 0.27790006E+00 0.12666948E+04</pdfrwt>
<pdfrwt beam="2">  1       -2 0.13227583E+00 0.12666948E+04</pdfrwt>
<totfact> 0.34417170E+00</totfact>
</mgrwt>
</event>
<event>
 4    1  0.8468429E-007  0.8030527E+03  0.7818608E-02  0.9704234E-01
          2   -1    0    0  501    0  0.00000000000E+00  0.00000000000E+00  0.29868134874E+04  0.29868134874E+04  0.25500000000E-02 0. -1.
         -2   -1    0    0    0  501 -0.00000000000E+00 -0.00000000000E+00 -0.21535141895E+03  0.21535141896E+03  0.25500000000E-02 0.  1.
    8880023    1    1    2    0    0  0.41025062144E+03 -0.20682819822E+03  0.25429317686E+04  0.26667200194E+04  0.65864270000E+03 0. -1.
    8880022    1    1    2    0    0 -0.41025062144E+03  0.20682819822E+03  0.22853029982E+03  0.53544488692E+03  0.15294330000E+03 0.  0.
<mgrwt>
<rscale>  0 0.70765266E+03</rscale>
<asrwt>0</asrwt>
<pdfrwt beam="1">  1        2 0.45950978E+00 0.80305273E+03</pdfrwt>
<pdfrwt beam="2">  1       -2 0.33130986E-01 0.80305273E+03</pdfrwt>
<totfact> 0.15862975E+01</totfact>
</mgrwt>
</event>
<event>
 4    1  0.8468429E-007  0.9802869E+03  0.7818608E-02  0.9407815E-01
         -2   -1    0    0    0  501 -0.00000000000E+00  0.00000000000E+00  0.36363297185E+03  0.36363297186E+03  0.25500000000E-02 0.  1.
          2   -1    0    0  501    0  0.00000000000E+00 -0.00000000000E+00 -0.38390766978E+04  0.38390766978E+04  0.25500000000E-02 0. -1.
    8880023    1    1    2    0    0 -0.33988590320E+03  0.64158387634E+03 -0.32968901561E+04  0.34395417144E+04  0.65864270000E+03 0.  0.
    8880022    1    1    2    0    0  0.33988590320E+03 -0.64158387634E+03 -0.17855356985E+03  0.76316795524E+03  0.15294330000E+03 0.  0.
<mgrwt>
<rscale>  0 0.91435304E+03</rscale>
<asrwt>0</asrwt>
<pdfrwt beam="1">  1        2 0.59062715E+00 0.98028695E+03</pdfrwt>
<pdfrwt beam="2">  1       -2 0.55943537E-01 0.98028695E+03</pdfrwt>
<totfact> 0.14473868E+00</totfact>
</mgrwt>
</event>
<event>
 4    1  0.8468429E-007  0.1179354E+04  0.7818608E-02  0.9177457E-01
          2   -1    0    0  501    0  0.00000000000E+00  0.00000000000E+00  0.71369514157E+03  0.71369514157E+03  0.25500000000E-02 0. -1.
         -2   -1    0    0    0  501 -0.00000000000E+00 -0.00000000000E+00 -0.19644499561E+04  0.19644499561E+04  0.25500000000E-02 0.  1.
    8880023    1    1    2    0    0  0.61791036865E+02  0.97634433110E+03 -0.13606863766E+03  0.11871778576E+04  0.65864270000E+03 0.  0.
    8880022    1    1    2    0    0 -0.61791036865E+02 -0.97634433110E+03 -0.11146861769E+04  0.14909672401E+04  0.15294330000E+03 0.  0.
<mgrwt>
<rscale>  0 0.11289166E+04</rscale>
<asrwt>0</asrwt>
<pdfrwt beam="1">  1        2 0.10979925E+00 0.11793543E+04</pdfrwt>
<pdfrwt beam="2">  1       -2 0.30222307E+00 0.11793543E+04</pdfrwt>
<totfact> 0.12120666E+00</totfact>
</mgrwt>
</event>
<event>
 4    1  0.8468429E-007  0.6789392E+03  0.7818608E-02  0.1009930E+00
          2   -1    0    0  501    0  0.00000000000E+00  0.00000000000E+00  0.39916937348E+03  0.39916937349E+03  0.25500000000E-02 0. -1.
         -2   -1    0    0    0  501 -0.00000000000E+00 -0.00000000000E+00 -0.67500752718E+03  0.67500752718E+03  0.25500000000E-02 0.  1.
    8880023    1    1    2    0    0 -0.12996199625E+03  0.10128224939E+03 -0.42811640072E+03  0.80264691698E+03  0.65864270000E+03 0.  1.
    8880022    1    1    2    0    0  0.12996199625E+03 -0.10128224939E+03  0.15227824703E+03  0.27152998369E+03  0.15294330000E+03 0.  0.
<mgrwt>
<rscale>  0 0.51502394E+03</rscale>
<asrwt>0</asrwt>
<pdfrwt beam="1">  1        2 0.61410673E-01 0.67893919E+03</pdfrwt>
<pdfrwt beam="2">  1       -2 0.10384731E+00 0.67893919E+03</pdfrwt>
<totfact> 0.61089864E+01</totfact>
</mgrwt>
</event>
<event>
 4    1  0.8468429E-007  0.7983895E+03  0.7818608E-02  0.9714289E-01
          2   -1    0    0  501    0  0.00000000000E+00  0.00000000000E+00  0.26231394616E+04  0.26231394616E+04  0.25500000000E-02 0. -1.
         -2   -1    0    0    0  501 -0.00000000000E+00 -0.00000000000E+00 -0.15489515089E+03  0.15489515091E+03  0.25500000000E-02 0.  1.
    8880023    1    1    2    0    0  0.44586351525E+03 -0.69435267797E+02  0.15509105961E+04  0.17443478477E+04  0.65864270000E+03 0. -1.
    8880022    1    1    2    0    0 -0.44586351525E+03  0.69435267797E+02  0.91733371464E+03  0.10336867648E+04  0.15294330000E+03 0.  1.
<mgrwt>
<rscale>  0 0.70172354E+03</rscale>
<asrwt>0</asrwt>
<pdfrwt beam="1">  1        2 0.40355992E+00 0.79838946E+03</pdfrwt>
<pdfrwt beam="2">  1       -2 0.23830023E-01 0.79838946E+03</pdfrwt>
<totfact> 0.47826606E+01</totfact>
</mgrwt>
</event>
<event>
 4    1  0.8468429E-007  0.6779814E+03  0.7818608E-02  0.1010489E+00
          2   -1    0    0  501    0  0.00000000000E+00  0.00000000000E+00  0.59134593861E+03  0.59134593862E+03  0.25500000000E-02 0. -1.
         -2   -1    0    0    0  501 -0.00000000000E+00 -0.00000000000E+00 -0.12691289922E+04  0.12691289922E+04  0.25500000000E-02 0.  1.
    8880023    1    1    2    0    0 -0.13525485173E+03 -0.86917926024E+02  0.38167183647E+03  0.77803097483E+03  0.65864270000E+03 0. -1.
    8880022    1    1    2    0    0  0.13525485173E+03  0.86917926024E+02 -0.10594548901E+04  0.10824439560E+04  0.15294330000E+03 0.  0.
<mgrwt>
<rscale>  0 0.51280633E+03</rscale>
<asrwt>0</asrwt>
<pdfrwt beam="1">  1        2 0.90976298E-01 0.67798142E+03</pdfrwt>
<pdfrwt beam="2">  1       -2 0.19525061E+00 0.67798142E+03</pdfrwt>
<totfact> 0.74212026E+00</totfact>
</mgrwt>
</event>
<event>
 4    1  0.8468429E-007  0.6895972E+03  0.7818608E-02  0.1004345E+00
         -2   -1    0    0    0  501 -0.00000000000E+00  0.00000000000E+00  0.12681706041E+03  0.12681706044E+03  0.25500000000E-02 0.  1.
          2   -1    0    0  501    0  0.00000000000E+00 -0.00000000000E+00 -0.23801534038E+04  0.23801534038E+04  0.25500000000E-02 0. -1.
    8880023    1    1    2    0    0 -0.24779271573E+02  0.20278085357E+03 -0.20975059977E+04  0.22079573599E+04  0.65864270000E+03 0. -1.
    8880022    1    1    2    0    0  0.24779271573E+02 -0.20278085357E+03 -0.15583034574E+03  0.29901310430E+03  0.15294330000E+03 0.  0.
<mgrwt>
<rscale>  0 0.53785561E+03</rscale>
<asrwt>0</asrwt>
<pdfrwt beam="1">  1        2 0.36617741E+00 0.68959720E+03</pdfrwt>
<pdfrwt beam="2">  1       -2 0.19510319E-01 0.68959720E+03</pdfrwt>
<totfact> 0.94846930E+01</totfact>
</mgrwt>
</event>
<event>
 4    1  0.8468429E-007  0.7756100E+03  0.7818608E-02  0.9766252E-01
         -2   -1    0    0    0  501 -0.00000000000E+00  0.00000000000E+00  0.17346523613E+03  0.17346523615E+03  0.25500000000E-02 0.  1.
          2   -1    0    0  501    0  0.00000000000E+00 -0.00000000000E+00 -0.32655813484E+04  0.32655813484E+04  0.25500000000E-02 0. -1.
    8880023    1    1    2    0    0 -0.27782830658E+03  0.30095187394E+03 -0.28185144754E+04  0.29232849079E+04  0.65864270000E+03 0. -1.
    8880022    1    1    2    0    0  0.27782830658E+03 -0.30095187394E+03 -0.27360163680E+03  0.51576167659E+03  0.15294330000E+03 0.  0.
<mgrwt>
<rscale>  0 0.67205522E+03</rscale>
<asrwt>0</asrwt>
<pdfrwt beam="1">  1        2 0.50239709E+00 0.77560996E+03</pdfrwt>
<pdfrwt beam="2">  1       -2 0.26686962E-01 0.77560996E+03</pdfrwt>
<totfact> 0.15904211E+01</totfact>
</mgrwt>
</event>
<event>
 4    1  0.8468429E-007  0.8053016E+03  0.7818608E-02  0.9699448E-01
          2   -1    0    0  501    0  0.00000000000E+00  0.00000000000E+00  0.17794972011E+04  0.17794972011E+04  0.25500000000E-02 0. -1.
         -2   -1    0    0    0  501 -0.00000000000E+00 -0.00000000000E+00 -0.79348001592E+03  0.79348001593E+03  0.25500000000E-02 0.  1.
    8880023    1    1    2    0    0  0.80822592105E+02 -0.45625443091E+03  0.15984982602E+04  0.17898903014E+04  0.65864270000E+03 0. -1.
    8880022    1    1    2    0    0 -0.80822592105E+02  0.45625443091E+03 -0.61248107500E+03  0.78308691559E+03  0.15294330000E+03 0.  0.
<mgrwt>
<rscale>  0 0.71049662E+03</rscale>
<asrwt>0</asrwt>
<pdfrwt beam="1">  1        2 0.27376880E+00 0.80530156E+03</pdfrwt>
<pdfrwt beam="2">  1       -2 0.12207385E+00 0.80530156E+03</pdfrwt>
<totfact> 0.46077482E+00</totfact>
</mgrwt>
</event>
<event>
 4    1  0.8468429E-007  0.7762530E+03  0.7818608E-02  0.9764713E-01
          2   -1    0    0  501    0  0.00000000000E+00  0.00000000000E+00  0.16040306887E+04  0.16040306887E+04  0.25500000000E-02 0. -1.
         -2   -1    0    0    0  501 -0.00000000000E+00 -0.00000000000E+00 -0.35942230609E+03  0.35942230610E+03  0.25500000000E-02 0.  1.
    8880023    1    1    2    0    0  0.89141520137E+02  0.40101412103E+03  0.15856508886E+03  0.79228254401E+03  0.65864270000E+03 0.  1.
    8880022    1    1    2    0    0 -0.89141520137E+02 -0.40101412103E+03  0.10860432938E+04  0.11711704508E+04  0.15294330000E+03 0.  0.
<mgrwt>
<rscale>  0 0.67291092E+03</rscale>
<asrwt>0</asrwt>
<pdfrwt beam="1">  1        2 0.24677396E+00 0.77625301E+03</pdfrwt>
<pdfrwt beam="2">  1       -2 0.55295739E-01 0.77625301E+03</pdfrwt>
<totfact> 0.34844368E+01</totfact>
</mgrwt>
</event>
<event>
 4    1  0.8468429E-007  0.7127195E+03  0.7818608E-02  0.9948038E-01
          2   -1    0    0  501    0  0.00000000000E+00  0.00000000000E+00  0.17959304615E+04  0.17959304615E+04  0.25500000000E-02 0. -1.
         -2   -1    0    0    0  501 -0.00000000000E+00 -0.00000000000E+00 -0.26429353211E+03  0.26429353212E+03  0.25500000000E-02 0.  1.
    8880023    1    1    2    0    0 -0.79946034090E+02  0.26032200830E+03  0.15900501804E+04  0.17424777470E+04  0.65864270000E+03 0. -1.
    8880022    1    1    2    0    0  0.79946034090E+02 -0.26032200830E+03 -0.58413250956E+02  0.31774624667E+03  0.15294330000E+03 0.  0.
<mgrwt>
<rscale>  0 0.57988613E+03</rscale>
<asrwt>0</asrwt>
<pdfrwt beam="1">  1        2 0.27629700E+00 0.71271953E+03</pdfrwt>
<pdfrwt beam="2">  1       -2 0.40660543E-01 0.71271953E+03</pdfrwt>
<totfact> 0.51199299E+01</totfact>
</mgrwt>
</event>
<event>
 4    1  0.8468429E-007  0.8062851E+03  0.7818608E-02  0.9697368E-01
         -2   -1    0    0    0  501 -0.00000000000E+00  0.00000000000E+00  0.13631758599E+03  0.13631758601E+03  0.25500000000E-02 0.  1.
          2   -1    0    0  501    0  0.00000000000E+00 -0.00000000000E+00 -0.31793135911E+04  0.31793135911E+04  0.25500000000E-02 0. -1.
    8880023    1    1    2    0    0 -0.46026607390E+03  0.66637776490E+02 -0.15967888957E+04  0.17888069867E+04  0.65864270000E+03 0.  1.
    8880022    1    1    2    0    0  0.46026607390E+03 -0.66637776490E+02 -0.14462071094E+04  0.15268241904E+04  0.15294330000E+03 0.  0.
<mgrwt>
<rscale>  0 0.71173741E+03</rscale>
<asrwt>0</asrwt>
<pdfrwt beam="1">  1        2 0.48912511E+00 0.80628510E+03</pdfrwt>
<pdfrwt beam="2">  1       -2 0.20971939E-01 0.80628510E+03</pdfrwt>
<totfact> 0.27682858E+01</totfact>
</mgrwt>
</event>
<event>
 4    1  0.8468429E-007  0.8838228E+03  0.7818608E-02  0.9552517E-01
          2   -1    0    0  501    0  0.00000000000E+00  0.00000000000E+00  0.25484031988E+04  0.25484031988E+04  0.25500000000E-02 0. -1.
         -2   -1    0    0    0  501 -0.00000000000E+00 -0.00000000000E+00 -0.88072077608E+03  0.88072077609E+03  0.25500000000E-02 0.  1.
    8880023    1    1    2    0    0  0.31306397005E+02 -0.58851715486E+03  0.23523379099E+04  0.25128940250E+04  0.65864270000E+03 0. -1.
    8880022    1    1    2    0    0 -0.31306397005E+02  0.58851715486E+03 -0.68465548717E+03  0.91622994995E+03  0.15294330000E+03 0.  0.
<mgrwt>
<rscale>  0 0.80520278E+03</rscale>
<asrwt>0</asrwt>
<pdfrwt beam="1">  1        2 0.39206203E+00 0.88382280E+03</pdfrwt>
<pdfrwt beam="2">  1       -2 0.13549550E+00 0.88382280E+03</pdfrwt>
<totfact> 0.13088803E+00</totfact>
</mgrwt>
</event>
<event>
 4    1  0.8468429E-007  0.6995043E+03  0.7818608E-02  0.9999264E-01
          2   -1    0    0  501    0  0.00000000000E+00  0.00000000000E+00  0.61145256401E+03  0.61145256402E+03  0.25500000000E-02 0. -1.
         -2   -1    0    0    0  501 -0.00000000000E+00 -0.00000000000E+00 -0.15764699595E+04  0.15764699595E+04  0.25500000000E-02 0.  1.
    8880023    1    1    2    0    0  0.23554274355E+03  0.39648846501E+01  0.39219686334E+03  0.80195055348E+03  0.65864270000E+03 0. -1.
    8880022    1    1    2    0    0 -0.23554274355E+03 -0.39648846501E+01 -0.13572142588E+04  0.13859719700E+04  0.15294330000E+03 0.  0.
<mgrwt>
<rscale>  0 0.55682536E+03</rscale>
<asrwt>0</asrwt>
<pdfrwt beam="1">  1        2 0.94069626E-01 0.69950433E+03</pdfrwt>
<pdfrwt beam="2">  1       -2 0.24253384E+00 0.69950433E+03</pdfrwt>
<totfact> 0.35874370E+00</totfact>
</mgrwt>
</event>
<event>
 4    1  0.8468429E-007  0.6633450E+03  0.7818608E-02  0.1020964E+00
         -2   -1    0    0    0  501 -0.00000000000E+00  0.00000000000E+00  0.13383689888E+03  0.13383689890E+03  0.25500000000E-02 0.  1.
          2   -1    0    0  501    0  0.00000000000E+00 -0.00000000000E+00 -0.18724624008E+04  0.18724624008E+04  0.25500000000E-02 0. -1.
    8880023    1    1    2    0    0  0.63517209641E+01 -0.78587457816E+02 -0.17069846838E+04  0.18313446563E+04  0.65864270000E+03 0. -1.
    8880022    1    1    2    0    0 -0.63517209641E+01  0.78587457816E+02 -0.31640818100E+02  0.17495464347E+03  0.15294330000E+03 0.  0.
<mgrwt>
<rscale>  0 0.47340265E+03</rscale>
<asrwt>0</asrwt>
<pdfrwt beam="1">  1        2 0.28807112E+00 0.66334496E+03</pdfrwt>
<pdfrwt beam="2">  1       -2 0.20590294E-01 0.66334496E+03</pdfrwt>
<totfact> 0.16431834E+02</totfact>
</mgrwt>
</event>
<event>
 4    1  0.8468429E-007  0.7591712E+03  0.7818608E-02  0.9807258E-01
         -2   -1    0    0    0  501 -0.00000000000E+00  0.00000000000E+00  0.11029022876E+04  0.11029022876E+04  0.25500000000E-02 0.  1.
          2   -1    0    0  501    0  0.00000000000E+00 -0.00000000000E+00 -0.42750615224E+03  0.42750615225E+03  0.25500000000E-02 0. -1.
    8880023    1    1    2    0    0  0.37752656030E+03  0.21060786379E+01  0.20840256651E+02  0.75945721529E+03  0.65864270000E+03 0.  0.
    8880022    1    1    2    0    0 -0.37752656030E+03 -0.21060786379E+01  0.65455587875E+03  0.77095122461E+03  0.15294330000E+03 0.  0.
<mgrwt>
<rscale>  0 0.64974497E+03</rscale>
<asrwt>0</asrwt>
<pdfrwt beam="1">  1        2 0.65770178E-01 0.75917122E+03</pdfrwt>
<pdfrwt beam="2">  1       -2 0.16967727E+00 0.75917122E+03</pdfrwt>
<totfact> 0.16021603E+01</totfact>
</mgrwt>
</event>
<event>
 4    1  0.8468429E-007  0.7133531E+03  0.7818608E-02  0.9945754E-01
         -2   -1    0    0    0  501 -0.00000000000E+00  0.00000000000E+00  0.28161316310E+03  0.28161316311E+03  0.25500000000E-02 0.  1.
          2   -1    0    0  501    0  0.00000000000E+00 -0.00000000000E+00 -0.21538708752E+04  0.21538708752E+04  0.25500000000E-02 0. -1.
    8880023    1    1    2    0    0 -0.14693382296E+03 -0.23124195701E+03 -0.19793229054E+04  0.21039467106E+04  0.65864270000E+03 0. -1.
    8880022    1    1    2    0    0  0.14693382296E+03  0.23124195701E+03  0.10706519331E+03  0.33153732768E+03  0.15294330000E+03 0.  0.
<mgrwt>
<rscale>  0 0.58094176E+03</rscale>
<asrwt>0</asrwt>
<pdfrwt beam="1">  1        2 0.33136474E+00 0.71335307E+03</pdfrwt>
<pdfrwt beam="2">  1       -2 0.43325103E-01 0.71335307E+03</pdfrwt>
<totfact> 0.28830358E+01</totfact>
</mgrwt>
</event>
<event>
 4    1  0.8468429E-007  0.7280074E+03  0.7818608E-02  0.9896368E-01
          2   -1    0    0  501    0  0.00000000000E+00  0.00000000000E+00  0.26421873044E+04  0.26421873044E+04  0.25500000000E-02 0. -1.
         -2   -1    0    0    0  501 -0.00000000000E+00 -0.00000000000E+00 -0.15364010503E+03  0.15364010505E+03  0.25500000000E-02 0.  1.
    8880023    1    1    2    0    0  0.30605393926E+03 -0.50156020750E+02  0.22767770172E+04  0.23903364685E+04  0.65864270000E+03 0.  1.
    8880022    1    1    2    0    0 -0.30605393926E+03  0.50156020750E+02  0.21177018217E+03  0.40549094099E+03  0.15294330000E+03 0.  1.
<mgrwt>
<rscale>  0 0.60437641E+03</rscale>
<asrwt>0</asrwt>
<pdfrwt beam="1">  1        2 0.40649035E+00 0.72800745E+03</pdfrwt>
<pdfrwt beam="2">  1       -2 0.23636939E-01 0.72800745E+03</pdfrwt>
<totfact> 0.47764694E+01</totfact>
</mgrwt>
</event>
<event>
 4    1  0.8468429E-007  0.7033632E+03  0.7818608E-02  0.9983525E-01
          2   -1    0    0  501    0  0.00000000000E+00  0.00000000000E+00  0.21444269364E+04  0.21444269364E+04  0.25500000000E-02 0. -1.
         -2   -1    0    0    0  501 -0.00000000000E+00 -0.00000000000E+00 -0.18518018085E+03  0.18518018087E+03  0.25500000000E-02 0.  1.
    8880023    1    1    2    0    0 -0.23680328353E+03  0.69525562561E+02  0.19096388177E+04  0.20350528787E+04  0.65864270000E+03 0. -1.
    8880022    1    1    2    0    0  0.23680328353E+03 -0.69525562561E+02  0.49607937878E+02  0.29455423856E+03  0.15294330000E+03 0.  0.
<mgrwt>
<rscale>  0 0.56378561E+03</rscale>
<asrwt>0</asrwt>
<pdfrwt beam="1">  1        2 0.32991185E+00 0.70336321E+03</pdfrwt>
<pdfrwt beam="2">  1       -2 0.28489257E-01 0.70336321E+03</pdfrwt>
<totfact> 0.64943168E+01</totfact>
</mgrwt>
</event>
<event>
 4    1  0.8468429E-007  0.8768138E+03  0.7818608E-02  0.9564328E-01
         -2   -1    0    0    0  501 -0.00000000000E+00  0.00000000000E+00  0.13219102909E+04  0.13219102909E+04  0.25500000000E-02 0.  1.
          2   -1    0    0  501    0  0.00000000000E+00 -0.00000000000E+00 -0.12620360010E+04  0.12620360010E+04  0.25500000000E-02 0. -1.
    8880023    1    1    2    0    0  0.56237151936E+03  0.13685966594E+03 -0.10225519787E+04  0.13470022455E+04  0.65864270000E+03 0. -1.
    8880022    1    1    2    0    0 -0.56237151936E+03 -0.13685966594E+03  0.10824262686E+04  0.12369440464E+04  0.15294330000E+03 0.  0.
<mgrwt>
<rscale>  0 0.79702898E+03</rscale>
<asrwt>0</asrwt>
<pdfrwt beam="1">  1        2 0.19415938E+00 0.87681383E+03</pdfrwt>
<pdfrwt beam="2">  1       -2 0.20337081E+00 0.87681383E+03</pdfrwt>
<totfact> 0.22190634E+00</totfact>
</mgrwt>
</event>
<event>
 4    1  0.8468429E-007  0.6637676E+03  0.7818608E-02  0.1020591E+00
         -2   -1    0    0    0  501 -0.00000000000E+00  0.00000000000E+00  0.13279099696E+03  0.13279099699E+03  0.25500000000E-02 0.  1.
          2   -1    0    0  501    0  0.00000000000E+00 -0.00000000000E+00 -0.16216009015E+04  0.16216009015E+04  0.25500000000E-02 0. -1.
    8880023    1    1    2    0    0  0.64676500658E+02  0.50932603723E+02 -0.14201649036E+04  0.15676274237E+04  0.65864270000E+03 0. -1.
    8880022    1    1    2    0    0 -0.64676500658E+02 -0.50932603723E+02 -0.68645000875E+02  0.18676447473E+03  0.15294330000E+03 0.  0.
<mgrwt>
<rscale>  0 0.47474110E+03</rscale>
<asrwt>0</asrwt>
<pdfrwt beam="1">  1        2 0.24947705E+00 0.66376757E+03</pdfrwt>
<pdfrwt beam="2">  1       -2 0.20429385E-01 0.66376757E+03</pdfrwt>
<totfact> 0.22814223E+02</totfact>
</mgrwt>
</event>
<event>
 4    1  0.8468429E-007  0.7502853E+03  0.7818608E-02  0.9830940E-01
          2   -1    0    0  501    0  0.00000000000E+00  0.00000000000E+00  0.10460811148E+04  0.10460811148E+04  0.25500000000E-02 0. -1.
         -2   -1    0    0    0  501 -0.00000000000E+00 -0.00000000000E+00 -0.11065817847E+04  0.11065817847E+04  0.25500000000E-02 0.  1.
    8880023    1    1    2    0    0  0.14292630975E+03 -0.32968152289E+03  0.86684035256E+03  0.11464467888E+04  0.65864270000E+03 0. -1.
    8880022    1    1    2    0    0 -0.14292630975E+03  0.32968152289E+03 -0.92734102244E+03  0.10062161107E+04  0.15294330000E+03 0.  0.
<mgrwt>
<rscale>  0 0.63728242E+03</rscale>
<asrwt>0</asrwt>
<pdfrwt beam="1">  1        2 0.16093556E+00 0.75028531E+03</pdfrwt>
<pdfrwt beam="2">  1       -2 0.17024335E+00 0.75028531E+03</pdfrwt>
<totfact> 0.51016436E+00</totfact>
</mgrwt>
</event>
<event>
 4    1  0.8468429E-007  0.7395616E+03  0.7818608E-02  0.9861226E-01
          2   -1    0    0  501    0  0.00000000000E+00  0.00000000000E+00  0.84824395664E+03  0.84824395664E+03  0.25500000000E-02 0. -1.
         -2   -1    0    0    0  501 -0.00000000000E+00 -0.00000000000E+00 -0.50374166836E+03  0.50374166837E+03  0.25500000000E-02 0.  1.
    8880023    1    1    2    0    0 -0.28918497279E+03 -0.17179411940E+03  0.55689599542E+03  0.92578859570E+03  0.65864270000E+03 0.  0.
    8880022    1    1    2    0    0  0.28918497279E+03  0.17179411940E+03 -0.21239370714E+03  0.42619702931E+03  0.15294330000E+03 0.  0.
<mgrwt>
<rscale>  0 0.62177807E+03</rscale>
<asrwt>0</asrwt>
<pdfrwt beam="1">  1        2 0.13049907E+00 0.73956161E+03</pdfrwt>
<pdfrwt beam="2">  1       -2 0.77498719E-01 0.73956161E+03</pdfrwt>
<totfact> 0.47953902E+01</totfact>
</mgrwt>
</event>
<event>
 4    1  0.8468429E-007  0.9521188E+03  0.7818608E-02  0.9447072E-01
          2   -1    0    0  501    0  0.00000000000E+00  0.00000000000E+00  0.93583751581E+03  0.93583751581E+03  0.25500000000E-02 0. -1.
         -2   -1    0    0    0  501 -0.00000000000E+00 -0.00000000000E+00 -0.87273299437E+03  0.87273299438E+03  0.25500000000E-02 0.  1.
    8880023    1    1    2    0    0 -0.63138462701E+03 -0.27216430454E+03  0.39393172687E+03  0.10303942777E+04  0.65864270000E+03 0. -1.
    8880022    1    1    2    0    0  0.63138462701E+03  0.27216430454E+03 -0.33082720543E+03  0.77817623246E+03  0.15294330000E+03 0. -1.
<mgrwt>
<rscale>  0 0.88301030E+03</rscale>
<asrwt>0</asrwt>
<pdfrwt beam="1">  1        2 0.14397500E+00 0.95211878E+03</pdfrwt>
<pdfrwt beam="2">  1       -2 0.13426661E+00 0.95211878E+03</pdfrwt>
<totfact> 0.11055194E+01</totfact>
</mgrwt>
</event>
<event>
 4    1  0.8468429E-007  0.7029178E+03  0.7818608E-02  0.9985306E-01
         -2   -1    0    0    0  501 -0.00000000000E+00  0.00000000000E+00  0.22009842147E+03  0.22009842149E+03  0.25500000000E-02 0.  1.
          2   -1    0    0  501    0  0.00000000000E+00 -0.00000000000E+00 -0.18193319295E+04  0.18193319295E+04  0.25500000000E-02 0. -1.
    8880023    1    1    2    0    0 -0.10308457574E+03 -0.22283793649E+03 -0.16027806123E+04  0.17501425865E+04  0.65864270000E+03 0. -1.
    8880022    1    1    2    0    0  0.10308457574E+03  0.22283793649E+03  0.35471043106E+01  0.28928776445E+03  0.15294330000E+03 0.  0.
<mgrwt>
<rscale>  0 0.56299267E+03</rscale>
<asrwt>0</asrwt>
<pdfrwt beam="1">  1        2 0.27989721E+00 0.70291776E+03</pdfrwt>
<pdfrwt beam="2">  1       -2 0.33861297E-01 0.70291776E+03</pdfrwt>
<totfact> 0.70763970E+01</totfact>
</mgrwt>
</event>
<event>
 4    1  0.8468429E-007  0.8255008E+03  0.7818608E-02  0.9658151E-01
          2   -1    0    0  501    0  0.00000000000E+00  0.00000000000E+00  0.25679822040E+04  0.25679822040E+04  0.25500000000E-02 0. -1.
         -2   -1    0    0    0  501 -0.00000000000E+00 -0.00000000000E+00 -0.20240213513E+03  0.20240213515E+03  0.25500000000E-02 0.  1.
    8880023    1    1    2    0    0  0.79459723126E+02  0.49125100431E+03  0.93105791221E+03  0.12443152490E+04  0.65864270000E+03 0.  0.
    8880022    1    1    2    0    0 -0.79459723126E+02 -0.49125100431E+03  0.14345221567E+04  0.15260690902E+04  0.15294330000E+03 0.  0.
<mgrwt>
<rscale>  0 0.73564098E+03</rscale>
<asrwt>0</asrwt>
<pdfrwt beam="1">  1        2 0.39507416E+00 0.82550082E+03</pdfrwt>
<pdfrwt beam="2">  1       -2 0.31138792E-01 0.82550082E+03</pdfrwt>
<totfact> 0.31416063E+01</totfact>
</mgrwt>
</event>
<event>
 4    1  0.8468429E-007  0.1005960E+04  0.7818608E-02  0.9373801E-01
          2   -1    0    0  501    0  0.00000000000E+00  0.00000000000E+00  0.14617016953E+04  0.14617016953E+04  0.25500000000E-02 0. -1.
         -2   -1    0    0    0  501 -0.00000000000E+00 -0.00000000000E+00 -0.62055841128E+03  0.62055841129E+03  0.25500000000E-02 0.  1.
    8880023    1    1    2    0    0  0.76027564088E+03  0.11260715984E+02  0.83387386657E+03  0.13066375494E+04  0.65864270000E+03 0.  0.
    8880022    1    1    2    0    0 -0.76027564088E+03 -0.11260715984E+02  0.72694174689E+01  0.77562255723E+03  0.15294330000E+03 0.  0.
<mgrwt>
<rscale>  0 0.94263478E+03</rscale>
<asrwt>0</asrwt>
<pdfrwt beam="1">  1        2 0.22487718E+00 0.10059603E+04</pdfrwt>
<pdfrwt beam="2">  1       -2 0.95470526E-01 0.10059603E+04</pdfrwt>
<totfact> 0.12232702E+01</totfact>
</mgrwt>
</event>
<event>
 4    1  0.8468429E-007  0.9125490E+03  0.7818608E-02  0.9506179E-01
          2   -1    0    0  501    0  0.00000000000E+00  0.00000000000E+00  0.67867273126E+03  0.67867273127E+03  0.25500000000E-02 0. -1.
         -2   -1    0    0    0  501 -0.00000000000E+00 -0.00000000000E+00 -0.11396679495E+04  0.11396679495E+04  0.25500000000E-02 0.  1.
    8880023    1    1    2    0    0  0.31462983577E+03 -0.54767103342E+03  0.15183564032E+03  0.92509446130E+03  0.65864270000E+03 0. -1.
    8880022    1    1    2    0    0 -0.31462983577E+03  0.54767103342E+03 -0.61283085860E+03  0.89324621951E+03  0.15294330000E+03 0.  1.
<mgrwt>
<rscale>  0 0.83829770E+03</rscale>
<asrwt>0</asrwt>
<pdfrwt beam="1">  1        2 0.10441119E+00 0.91254901E+03</pdfrwt>
<pdfrwt beam="2">  1       -2 0.17533353E+00 0.91254901E+03</pdfrwt>
<totfact> 0.83301151E+00</totfact>
</mgrwt>
</event>
<event>
 4    1  0.8468429E-007  0.7253330E+03  0.7818608E-02  0.9904938E-01
          2   -1    0    0  501    0  0.00000000000E+00  0.00000000000E+00  0.48544276262E+04  0.48544276262E+04  0.25500000000E-02 0. -1.
         -2   -1    0    0    0  501 -0.00000000000E+00 -0.00000000000E+00 -0.14530053011E+03  0.14530053013E+03  0.25500000000E-02 0.  1.
    8880023    1    1    2    0    0 -0.34318205168E+02 -0.30186082065E+03  0.45781460477E+04  0.46352485515E+04  0.65864270000E+03 0.  0.
    8880022    1    1    2    0    0  0.34318205168E+02  0.30186082065E+03  0.13098104840E+03  0.36447960479E+03  0.15294330000E+03 0.  0.
<mgrwt>
<rscale>  0 0.60022590E+03</rscale>
<asrwt>0</asrwt>
<pdfrwt beam="1">  1        2 0.74683493E+00 0.72533296E+03</pdfrwt>
<pdfrwt beam="2">  1       -2 0.22353930E-01 0.72533296E+03</pdfrwt>
<totfact> 0.10557707E+00</totfact>
</mgrwt>
</event>
<event>
 4    1  0.8468429E-007  0.6724662E+03  0.7818608E-02  0.1013953E+00
         -2   -1    0    0    0  501 -0.00000000000E+00  0.00000000000E+00  0.10475297254E+04  0.10475297254E+04  0.25500000000E-02 0.  1.
          2   -1    0    0  501    0  0.00000000000E+00 -0.00000000000E+00 -0.10753446918E+04  0.10753446918E+04  0.25500000000E-02 0. -1.
    8880023    1    1    2    0    0 -0.52675638039E+02 -0.12500325711E+03 -0.95801706569E+03  0.11704731699E+04  0.65864270000E+03 0. -1.
    8880022    1    1    2    0    0  0.52675638039E+02  0.12500325711E+03  0.93020209929E+03  0.95240124720E+03  0.15294330000E+03 0.  0.
<mgrwt>
<rscale>  0 0.49933237E+03</rscale>
<asrwt>0</asrwt>
<pdfrwt beam="1">  1        2 0.16543764E+00 0.67246617E+03</pdfrwt>
<pdfrwt beam="2">  1       -2 0.16115842E+00 0.67246617E+03</pdfrwt>
<totfact> 0.57509434E+00</totfact>
</mgrwt>
</event>
<event>
 4    1  0.8468429E-007  0.6689810E+03  0.7818608E-02  0.1016404E+00
         -2   -1    0    0    0  501 -0.00000000000E+00  0.00000000000E+00  0.99217395658E+02  0.99217395691E+02  0.25500000000E-02 0.  1.
          2   -1    0    0  501    0  0.00000000000E+00 -0.00000000000E+00 -0.23062051312E+04  0.23062051312E+04  0.25500000000E-02 0. -1.
    8880023    1    1    2    0    0 -0.61610564818E+02 -0.99646837816E+02 -0.20515844160E+04  0.21579004092E+04  0.65864270000E+03 0.  0.
    8880022    1    1    2    0    0  0.61610564818E+02  0.99646837816E+02 -0.15540331954E+03  0.24752211765E+03  0.15294330000E+03 0.  0.
<mgrwt>
<rscale>  0 0.49006868E+03</rscale>
<asrwt>0</asrwt>
<pdfrwt beam="1">  1        2 0.35480075E+00 0.66898099E+03</pdfrwt>
<pdfrwt beam="2">  1       -2 0.15264216E-01 0.66898099E+03</pdfrwt>
<totfact> 0.15925817E+02</totfact>
</mgrwt>
</event>
<event>
 4    1  0.8468429E-007  0.8063111E+03  0.7818608E-02  0.9697313E-01
          2   -1    0    0  501    0  0.00000000000E+00  0.00000000000E+00  0.83013704348E+03  0.83013704349E+03  0.25500000000E-02 0. -1.
         -2   -1    0    0    0  501 -0.00000000000E+00 -0.00000000000E+00 -0.11265816555E+04  0.11265816555E+04  0.25500000000E-02 0.  1.
    8880023    1    1    2    0    0  0.41721333841E+03 -0.20557319000E+03  0.55198508314E+03  0.97715149515E+03  0.65864270000E+03 0. -1.
    8880022    1    1    2    0    0 -0.41721333841E+03  0.20557319000E+03 -0.84842969511E+03  0.97956720380E+03  0.15294330000E+03 0.  0.
<mgrwt>
<rscale>  0 0.71177013E+03</rscale>
<asrwt>0</asrwt>
<pdfrwt beam="1">  1        2 0.12771339E+00 0.80631105E+03</pdfrwt>
<pdfrwt beam="2">  1       -2 0.17332025E+00 0.80631105E+03</pdfrwt>
<totfact> 0.66956230E+00</totfact>
</mgrwt>
</event>
<event>
 4    1  0.8468429E-007  0.6950485E+03  0.7818608E-02  0.1001840E+00
          2   -1    0    0  501    0  0.00000000000E+00  0.00000000000E+00  0.30973047649E+04  0.30973047649E+04  0.25500000000E-02 0. -1.
         -2   -1    0    0    0  501 -0.00000000000E+00 -0.00000000000E+00 -0.18486638642E+03  0.18486638644E+03  0.25500000000E-02 0.  1.
    8880023    1    1    2    0    0 -0.16730839812E+03  0.14591146805E+03  0.29306812449E+04  0.30119736092E+04  0.65864270000E+03 0.  0.
    8880022    1    1    2    0    0  0.16730839812E+03 -0.14591146805E+03 -0.18242866493E+02  0.27019754215E+03  0.15294330000E+03 0.  0.
<mgrwt>
<rscale>  0 0.54850888E+03</rscale>
<asrwt>0</asrwt>
<pdfrwt beam="1">  1        2 0.47650841E+00 0.69504853E+03</pdfrwt>
<pdfrwt beam="2">  1       -2 0.28440983E-01 0.69504853E+03</pdfrwt>
<totfact> 0.18353529E+01</totfact>
</mgrwt>
</event>
<event>
 4    1  0.8468429E-007  0.7540929E+03  0.7818608E-02  0.9820647E-01
          2   -1    0    0  501    0  0.00000000000E+00  0.00000000000E+00  0.19419278415E+04  0.19419278415E+04  0.25500000000E-02 0. -1.
         -2   -1    0    0    0  501 -0.00000000000E+00 -0.00000000000E+00 -0.42538395448E+03  0.42538395448E+03  0.25500000000E-02 0.  1.
    8880023    1    1    2    0    0 -0.34145661962E+03 -0.13510492088E+03  0.17503619607E+04  0.19058916975E+04  0.65864270000E+03 0. -1.
    8880022    1    1    2    0    0  0.34145661962E+03  0.13510492088E+03 -0.23381807368E+03  0.46142009852E+03  0.15294330000E+03 0.  0.
<mgrwt>
<rscale>  0 0.64266163E+03</rscale>
<asrwt>0</asrwt>
<pdfrwt beam="1">  1        2 0.29875813E+00 0.75409294E+03</pdfrwt>
<pdfrwt beam="2">  1       -2 0.65443685E-01 0.75409294E+03</pdfrwt>
<totfact> 0.15989828E+01</totfact>
</mgrwt>
</event>
<event>
 4    1  0.8468429E-007  0.7145101E+03  0.7818608E-02  0.9941619E-01
         -2   -1    0    0    0  501 -0.00000000000E+00  0.00000000000E+00  0.26534998238E+03  0.26534998239E+03  0.25500000000E-02 0.  1.
          2   -1    0    0  501    0  0.00000000000E+00 -0.00000000000E+00 -0.15607175671E+04  0.15607175671E+04  0.25500000000E-02 0. -1.
    8880023    1    1    2    0    0 -0.27332250146E+03 -0.44824918873E+02 -0.13279785011E+04  0.15079958782E+04  0.65864270000E+03 0. -1.
    8880022    1    1    2    0    0  0.27332250146E+03  0.44824918873E+02  0.32610916402E+02  0.31807167123E+03  0.15294330000E+03 0.  0.
<mgrwt>
<rscale>  0 0.58285946E+03</rscale>
<asrwt>0</asrwt>
<pdfrwt beam="1">  1        2 0.24011039E+00 0.71451009E+03</pdfrwt>
<pdfrwt beam="2">  1       -2 0.40823075E-01 0.71451009E+03</pdfrwt>
<totfact> 0.68324182E+01</totfact>
</mgrwt>
</event>
<event>
 4    1  0.8468429E-007  0.8091007E+03  0.7818608E-02  0.9691453E-01
          2   -1    0    0  501    0  0.00000000000E+00  0.00000000000E+00  0.43119871471E+03  0.43119871471E+03  0.25500000000E-02 0. -1.
         -2   -1    0    0    0  501 -0.00000000000E+00 -0.00000000000E+00 -0.17236117699E+04  0.17236117699E+04  0.25500000000E-02 0.  1.
    8880023    1    1    2    0    0 -0.17240891563E+03  0.43715996332E+03 -0.41895813953E+02  0.81018462908E+03  0.65864270000E+03 0.  0.
    8880022    1    1    2    0    0  0.17240891563E+03 -0.43715996332E+03 -0.12505172413E+04  0.13446258556E+04  0.15294330000E+03 0.  0.
<mgrwt>
<rscale>  0 0.71527946E+03</rscale>
<asrwt>0</asrwt>
<pdfrwt beam="1">  1        2 0.66338265E-01 0.80910066E+03</pdfrwt>
<pdfrwt beam="2">  1       -2 0.26517104E+00 0.80910066E+03</pdfrwt>
<totfact> 0.38803761E+00</totfact>
</mgrwt>
</event>
<event>
 4    1  0.8468429E-007  0.7760227E+03  0.7818608E-02  0.9765264E-01
         -2   -1    0    0    0  501 -0.00000000000E+00  0.00000000000E+00  0.11251797853E+04  0.11251797853E+04  0.25500000000E-02 0.  1.
          2   -1    0    0  501    0  0.00000000000E+00 -0.00000000000E+00 -0.10008165943E+04  0.10008165943E+04  0.25500000000E-02 0. -1.
    8880023    1    1    2    0    0 -0.39935372663E+03  0.94433120412E+02 -0.79295525594E+03  0.11094995527E+04  0.65864270000E+03 0.  0.
    8880022    1    1    2    0    0  0.39935372663E+03 -0.94433120412E+02  0.91731844690E+03  0.10164968270E+04  0.15294330000E+03 0.  0.
<mgrwt>
<rscale>  0 0.67260457E+03</rscale>
<asrwt>0</asrwt>
<pdfrwt beam="1">  1        2 0.15397178E+00 0.77602269E+03</pdfrwt>
<pdfrwt beam="2">  1       -2 0.17310458E+00 0.77602269E+03</pdfrwt>
<totfact> 0.51841425E+00</totfact>
</mgrwt>
</event>
<event>
 4    1  0.8468429E-007  0.7537115E+03  0.7818608E-02  0.9821668E-01
         -2   -1    0    0    0  501 -0.00000000000E+00  0.00000000000E+00  0.12214020569E+04  0.12214020569E+04  0.25500000000E-02 0.  1.
          2   -1    0    0  501    0  0.00000000000E+00 -0.00000000000E+00 -0.97300633783E+03  0.97300633784E+03  0.25500000000E-02 0. -1.
    8880023    1    1    2    0    0  0.34297211739E+03 -0.12900003359E+03 -0.78445354060E+03  0.10878641669E+04  0.65864270000E+03 0. -1.
    8880022    1    1    2    0    0 -0.34297211739E+03  0.12900003359E+03  0.10328492596E+04  0.11065442278E+04  0.15294330000E+03 0.  0.
<mgrwt>
<rscale>  0 0.64212553E+03</rscale>
<asrwt>0</asrwt>
<pdfrwt beam="1">  1        2 0.14969328E+00 0.75371154E+03</pdfrwt>
<pdfrwt beam="2">  1       -2 0.18790801E+00 0.75371154E+03</pdfrwt>
<totfact> 0.42890381E+00</totfact>
</mgrwt>
</event>
<event>
 4    1  0.8468429E-007  0.1411148E+04  0.7818608E-02  0.8975068E-01
          2   -1    0    0  501    0  0.00000000000E+00  0.00000000000E+00  0.10812444597E+04  0.10812444597E+04  0.25500000000E-02 0. -1.
         -2   -1    0    0    0  501 -0.00000000000E+00 -0.00000000000E+00 -0.18016131938E+04  0.18016131938E+04  0.25500000000E-02 0.  1.
    8880023    1    1    2    0    0  0.10979164820E+04 -0.59338769905E+03  0.43215026079E+02  0.14118099403E+04  0.65864270000E+03 0.  1.
    8880022    1    1    2    0    0 -0.10979164820E+04  0.59338769905E+03 -0.76358376019E+03  0.14710477132E+04  0.15294330000E+03 0.  0.
<mgrwt>
<rscale>  0 0.13710184E+04</rscale>
<asrwt>0</asrwt>
<pdfrwt beam="1">  1        2 0.16634530E+00 0.14111484E+04</pdfrwt>
<pdfrwt beam="2">  1       -2 0.27717126E+00 0.14111484E+04</pdfrwt>
<totfact> 0.93548704E-01</totfact>
</mgrwt>
</event>
<event>
 4    1  0.8468429E-007  0.7422069E+03  0.7818608E-02  0.9853565E-01
         -2   -1    0    0    0  501 -0.00000000000E+00  0.00000000000E+00  0.26889333828E+03  0.26889333829E+03  0.25500000000E-02 0.  1.
          2   -1    0    0  501    0  0.00000000000E+00 -0.00000000000E+00 -0.12355083451E+04  0.12355083451E+04  0.25500000000E-02 0. -1.
    8880023    1    1    2    0    0  0.34209341182E+03  0.57431997361E+01 -0.80886100050E+03  0.10977828616E+04  0.65864270000E+03 0. -1.
    8880022    1    1    2    0    0 -0.34209341182E+03 -0.57431997361E+01 -0.15775400635E+03  0.40661882185E+03  0.15294330000E+03 0.  0.
<mgrwt>
<rscale>  0 0.62565503E+03</rscale>
<asrwt>0</asrwt>
<pdfrwt beam="1">  1        2 0.19007820E+00 0.74220691E+03</pdfrwt>
<pdfrwt beam="2">  1       -2 0.41368207E-01 0.74220691E+03</pdfrwt>
<totfact> 0.10146760E+02</totfact>
</mgrwt>
</event>
<event>
 4    1  0.8468429E-007  0.6605147E+03  0.7818608E-02  0.1023635E+00
         -2   -1    0    0    0  501 -0.00000000000E+00  0.00000000000E+00  0.72036050133E+03  0.72036050134E+03  0.25500000000E-02 0.  1.
          2   -1    0    0  501    0  0.00000000000E+00 -0.00000000000E+00 -0.84923202762E+03  0.84923202762E+03  0.25500000000E-02 0. -1.
    8880023    1    1    2    0    0 -0.37659612358E+02 -0.32421765313E+02 -0.70816679709E+03  0.96839033247E+03  0.65864270000E+03 0. -1.
    8880022    1    1    2    0    0  0.37659612358E+02  0.32421765313E+02  0.57929527080E+03  0.60120219648E+03  0.15294330000E+03 0.  0.
<mgrwt>
<rscale>  0 0.46397295E+03</rscale>
<asrwt>0</asrwt>
<pdfrwt beam="1">  1        2 0.13065108E+00 0.66051467E+03</pdfrwt>
<pdfrwt beam="2">  1       -2 0.11082469E+00 0.66051467E+03</pdfrwt>
<totfact> 0.21006840E+01</totfact>
</mgrwt>
</event>
<event>
 4    1  0.8468429E-007  0.1019413E+04  0.7818608E-02  0.9356589E-01
         -2   -1    0    0    0  501 -0.00000000000E+00  0.00000000000E+00  0.49823642593E+03  0.49823642593E+03  0.25500000000E-02 0.  1.
          2   -1    0    0  501    0  0.00000000000E+00 -0.00000000000E+00 -0.19537366722E+04  0.19537366722E+04  0.25500000000E-02 0. -1.
    8880023    1    1    2    0    0 -0.63185049401E+03 -0.45404642503E+03 -0.32280754173E+03  0.10693026317E+04  0.65864270000E+03 0.  1.
    8880022    1    1    2    0    0  0.63185049401E+03  0.45404642503E+03 -0.11326927045E+04  0.13826704664E+04  0.15294330000E+03 0.  0.
<mgrwt>
<rscale>  0 0.95736042E+03</rscale>
<asrwt>0</asrwt>
<pdfrwt beam="1">  1        2 0.30057487E+00 0.10194133E+04</pdfrwt>
<pdfrwt beam="2">  1       -2 0.76651759E-01 0.10194133E+04</pdfrwt>
<totfact> 0.10781179E+01</totfact>
</mgrwt>
</event>
<event>
 4    1  0.8468429E-007  0.6653626E+03  0.7818608E-02  0.1019231E+00
         -2   -1    0    0    0  501 -0.00000000000E+00  0.00000000000E+00  0.11216740125E+03  0.11216740128E+03  0.25500000000E-02 0.  1.
          2   -1    0    0  501    0  0.00000000000E+00 -0.00000000000E+00 -0.20730803906E+04  0.20730803906E+04  0.25500000000E-02 0. -1.
    8880023    1    1    2    0    0 -0.26871728856E+02  0.90416357746E+02 -0.18679926225E+04  0.19829533156E+04  0.65864270000E+03 0. -1.
    8880022    1    1    2    0    0  0.26871728856E+02 -0.90416357746E+02 -0.92920366785E+02  0.20229447629E+03  0.15294330000E+03 0.  0.
<mgrwt>
<rscale>  0 0.47965104E+03</rscale>
<asrwt>0</asrwt>
<pdfrwt beam="1">  1        2 0.31893542E+00 0.66536262E+03</pdfrwt>
<pdfrwt beam="2">  1       -2 0.17256525E-01 0.66536262E+03</pdfrwt>
<totfact> 0.17359418E+02</totfact>
</mgrwt>
</event>
<event>
 4    1  0.8468429E-007  0.1153543E+04  0.7818608E-02  0.9203661E-01
          2   -1    0    0  501    0  0.00000000000E+00  0.00000000000E+00  0.28872896823E+04  0.28872896823E+04  0.25500000000E-02 0. -1.
         -2   -1    0    0    0  501 -0.00000000000E+00 -0.00000000000E+00 -0.43647399519E+03  0.43647399520E+03  0.25500000000E-02 0.  1.
    8880023    1    1    2    0    0 -0.75196155000E+03 -0.57567706653E+03  0.18852450730E+04  0.22101605030E+04  0.65864270000E+03 0.  0.
    8880022    1    1    2    0    0  0.75196155000E+03  0.57567706653E+03  0.56557061410E+03  0.11136031745E+04  0.15294330000E+03 0.  0.
<mgrwt>
<rscale>  0 0.11015722E+04</rscale>
<asrwt>0</asrwt>
<pdfrwt beam="1">  1        2 0.44419840E+00 0.11535426E+04</pdfrwt>
<pdfrwt beam="2">  1       -2 0.67149847E-01 0.11535426E+04</pdfrwt>
<totfact> 0.41592660E+00</totfact>
</mgrwt>
</event>
<event>
 4    1  0.8468429E-007  0.7863181E+03  0.7818608E-02  0.9741200E-01
         -2   -1    0    0    0  501 -0.00000000000E+00  0.00000000000E+00  0.92064175797E+03  0.92064175798E+03  0.25500000000E-02 0.  1.
          2   -1    0    0  501    0  0.00000000000E+00 -0.00000000000E+00 -0.54097539053E+03  0.54097539053E+03  0.25500000000E-02 0. -1.
    8880023    1    1    2    0    0  0.39281121044E+03  0.17373930185E+03 -0.10835997211E+03  0.79374938228E+03  0.65864270000E+03 0. -1.
    8880022    1    1    2    0    0 -0.39281121044E+03 -0.17373930185E+03  0.48802633955E+03  0.66786776623E+03  0.15294330000E+03 0.  0.
<mgrwt>
<rscale>  0 0.68615888E+03</rscale>
<asrwt>0</asrwt>
<pdfrwt beam="1">  1        2 0.83226983E-01 0.78631813E+03</pdfrwt>
<pdfrwt beam="2">  1       -2 0.14163719E+00 0.78631813E+03</pdfrwt>
<totfact> 0.19762826E+01</totfact>
</mgrwt>
</event>
<event>
 4    1  0.8468429E-007  0.7600260E+03  0.7818608E-02  0.9805040E-01
          2   -1    0    0  501    0  0.00000000000E+00  0.00000000000E+00  0.96061321700E+03  0.96061321700E+03  0.25500000000E-02 0. -1.
         -2   -1    0    0    0  501 -0.00000000000E+00 -0.00000000000E+00 -0.35705013092E+03  0.35705013093E+03  0.25500000000E-02 0.  1.
    8880023    1    1    2    0    0  0.36531531347E+03  0.10185304016E+03  0.35227012279E+03  0.83769550895E+03  0.65864270000E+03 0. -1.
    8880022    1    1    2    0    0 -0.36531531347E+03 -0.10185304016E+03  0.25129296329E+03  0.47996783898E+03  0.15294330000E+03 0.  1.
<mgrwt>
<rscale>  0 0.65092759E+03</rscale>
<asrwt>0</asrwt>
<pdfrwt beam="1">  1        2 0.14778665E+00 0.76002600E+03</pdfrwt>
<pdfrwt beam="2">  1       -2 0.54930789E-01 0.76002600E+03</pdfrwt>
<totfact> 0.84370738E+01</totfact>
</mgrwt>
</event>
<event>
 4    1  0.8468429E-007  0.8137427E+03  0.7818608E-02  0.9681833E-01
          2   -1    0    0  501    0  0.00000000000E+00  0.00000000000E+00  0.27789155987E+04  0.27789155987E+04  0.25500000000E-02 0. -1.
         -2   -1    0    0    0  501 -0.00000000000E+00 -0.00000000000E+00 -0.51156049823E+03  0.51156049824E+03  0.25500000000E-02 0.  1.
    8880023    1    1    2    0    0  0.10962445795E+03 -0.46513382368E+03  0.25759454296E+04  0.27014203780E+04  0.65864270000E+03 0. -1.
    8880022    1    1    2    0    0 -0.10962445795E+03  0.46513382368E+03 -0.30859032922E+03  0.58905571893E+03  0.15294330000E+03 0.  0.
<mgrwt>
<rscale>  0 0.72108819E+03</rscale>
<asrwt>0</asrwt>
<pdfrwt beam="1">  1        2 0.42752548E+00 0.81374271E+03</pdfrwt>
<pdfrwt beam="2">  1       -2 0.78701615E-01 0.81374271E+03</pdfrwt>
<totfact> 0.35744143E+00</totfact>
</mgrwt>
</event>
<event>
 4    1  0.8468429E-007  0.6761580E+03  0.7818608E-02  0.1011586E+00
          2   -1    0    0  501    0  0.00000000000E+00  0.00000000000E+00  0.48021131960E+03  0.48021131961E+03  0.25500000000E-02 0. -1.
         -2   -1    0    0    0  501 -0.00000000000E+00 -0.00000000000E+00 -0.51888629228E+03  0.51888629228E+03  0.25500000000E-02 0.  1.
    8880023    1    1    2    0    0  0.92721295785E+01 -0.15262210727E+03  0.17145620393E+03  0.69755782279E+03  0.65864270000E+03 0. -1.
    8880022    1    1    2    0    0 -0.92721295785E+01  0.15262210727E+03 -0.21013117660E+03  0.30153978910E+03  0.15294330000E+03 0.  0.
<mgrwt>
<rscale>  0 0.50849115E+03</rscale>
<asrwt>0</asrwt>
<pdfrwt beam="1">  1        2 0.73878664E-01 0.67615803E+03</pdfrwt>
<pdfrwt beam="2">  1       -2 0.79828661E-01 0.67615803E+03</pdfrwt>
<totfact> 0.91010186E+01</totfact>
</mgrwt>
</event>
<event>
 4    1  0.8468429E-007  0.6676780E+03  0.7818608E-02  0.1017385E+00
         -2   -1    0    0    0  501 -0.00000000000E+00  0.00000000000E+00  0.15384776596E+03  0.15384776598E+03  0.25500000000E-02 0.  1.
          2   -1    0    0  501    0  0.00000000000E+00 -0.00000000000E+00 -0.11981372656E+04  0.11981372656E+04  0.25500000000E-02 0. -1.
    8880023    1    1    2    0    0 -0.10206888597E+03 -0.39568783327E+02 -0.85894068218E+03  0.10879214346E+04  0.65864270000E+03 0. -1.
    8880022    1    1    2    0    0  0.10206888597E+03  0.39568783327E+02 -0.18534881744E+03  0.26406359696E+03  0.15294330000E+03 0. -1.
<mgrwt>
<rscale>  0 0.48642175E+03</rscale>
<asrwt>0</asrwt>
<pdfrwt beam="1">  1        2 0.18432880E+00 0.66767803E+03</pdfrwt>
<pdfrwt beam="2">  1       -2 0.23668888E-01 0.66767803E+03</pdfrwt>
<totfact> 0.30476798E+02</totfact>
</mgrwt>
</event>
<event>
 4    1  0.8468429E-007  0.1041579E+04  0.7818608E-02  0.9329073E-01
          2   -1    0    0  501    0  0.00000000000E+00  0.00000000000E+00  0.21370175759E+04  0.21370175759E+04  0.25500000000E-02 0. -1.
         -2   -1    0    0    0  501 -0.00000000000E+00 -0.00000000000E+00 -0.49108494231E+03  0.49108494232E+03  0.25500000000E-02 0.  1.
    8880023    1    1    2    0    0  0.57489145574E+03  0.56619514725E+03  0.35950379254E+03  0.11018758159E+04  0.65864270000E+03 0.  1.
    8880022    1    1    2    0    0 -0.57489145574E+03 -0.56619514725E+03  0.12864288411E+04  0.15262267023E+04  0.15294330000E+03 0.  0.
<mgrwt>
<rscale>  0 0.98149812E+03</rscale>
<asrwt>0</asrwt>
<pdfrwt beam="1">  1        2 0.32877194E+00 0.10415793E+04</pdfrwt>
<pdfrwt beam="2">  1       -2 0.75551529E-01 0.10415793E+04</pdfrwt>
<totfact> 0.87980201E+00</totfact>
</mgrwt>
</event>
<event>
 4    1  0.8468429E-007  0.8843547E+03  0.7818608E-02  0.9551629E-01
         -2   -1    0    0    0  501 -0.00000000000E+00  0.00000000000E+00  0.96489507679E+03  0.96489507679E+03  0.25500000000E-02 0.  1.
          2   -1    0    0  501    0  0.00000000000E+00 -0.00000000000E+00 -0.61336244832E+03  0.61336244832E+03  0.25500000000E-02 0. -1.
    8880023    1    1    2    0    0  0.32737700638E+03  0.49101660351E+03  0.20620315344E+02  0.88459505588E+03  0.65864270000E+03 0.  0.
    8880022    1    1    2    0    0 -0.32737700638E+03 -0.49101660351E+03  0.33091231313E+03  0.69366246923E+03  0.15294330000E+03 0.  0.
<mgrwt>
<rscale>  0 0.80582135E+03</rscale>
<asrwt>0</asrwt>
<pdfrwt beam="1">  1        2 0.94363454E-01 0.88435469E+03</pdfrwt>
<pdfrwt beam="2">  1       -2 0.14844540E+00 0.88435469E+03</pdfrwt>
<totfact> 0.14906462E+01</totfact>
</mgrwt>
</event>
<event>
 4    1  0.8468429E-007  0.7025305E+03  0.7818608E-02  0.9986861E-01
          2   -1    0    0  501    0  0.00000000000E+00  0.00000000000E+00  0.76076331227E+03  0.76076331227E+03  0.25500000000E-02 0. -1.
         -2   -1    0    0    0  501 -0.00000000000E+00 -0.00000000000E+00 -0.16783979657E+04  0.16783979657E+04  0.25500000000E-02 0.  1.
    8880023    1    1    2    0    0  0.24326963573E+03  0.23638733969E+02  0.58185873496E+03  0.91219992278E+03  0.65864270000E+03 0. -1.
    8880022    1    1    2    0    0 -0.24326963573E+03 -0.23638733969E+02 -0.14994933884E+04  0.15269613552E+04  0.15294330000E+03 0.  0.
<mgrwt>
<rscale>  0 0.56230116E+03</rscale>
<asrwt>0</asrwt>
<pdfrwt beam="1">  1        2 0.11704051E+00 0.70253051E+03</pdfrwt>
<pdfrwt beam="2">  1       -2 0.25821507E+00 0.70253051E+03</pdfrwt>
<totfact> 0.21930776E+00</totfact>
</mgrwt>
</event>
<event>
 4    1  0.8468429E-007  0.6831593E+03  0.7818608E-02  0.1007590E+00
         -2   -1    0    0    0  501 -0.00000000000E+00  0.00000000000E+00  0.97807223577E+02  0.97807223611E+02  0.25500000000E-02 0.  1.
          2   -1    0    0  501    0  0.00000000000E+00 -0.00000000000E+00 -0.25213216177E+04  0.25213216177E+04  0.25500000000E-02 0. -1.
    8880023    1    1    2    0    0  0.17972990002E+03  0.24362541084E+02 -0.21556041964E+04  0.22612686766E+04  0.65864270000E+03 0.  0.
    8880022    1    1    2    0    0 -0.17972990002E+03 -0.24362541084E+02 -0.26791019774E+03  0.35786016464E+03  0.15294330000E+03 0.  0.
<mgrwt>
<rscale>  0 0.52443718E+03</rscale>
<asrwt>0</asrwt>
<pdfrwt beam="1">  1        2 0.38789558E+00 0.68315926E+03</pdfrwt>
<pdfrwt beam="2">  1       -2 0.15047267E-01 0.68315926E+03</pdfrwt>
<totfact> 0.12343028E+02</totfact>
</mgrwt>
</event>
<event>
 4    1  0.8468429E-007  0.9221563E+03  0.7818608E-02  0.9491361E-01
         -2   -1    0    0    0  501 -0.00000000000E+00  0.00000000000E+00  0.11839365640E+04  0.11839365640E+04  0.25500000000E-02 0.  1.
          2   -1    0    0  501    0  0.00000000000E+00 -0.00000000000E+00 -0.62399719834E+03  0.62399719835E+03  0.25500000000E-02 0. -1.
    8880023    1    1    2    0    0 -0.64541622581E+03 -0.80660163672E-01 -0.26551055670E+02  0.92253849560E+03  0.65864270000E+03 0.  1.
    8880022    1    1    2    0    0  0.64541622581E+03  0.80660163672E-01  0.58649042131E+03  0.88539526673E+03  0.15294330000E+03 0.  0.
<mgrwt>
<rscale>  0 0.84923776E+03</rscale>
<asrwt>0</asrwt>
<pdfrwt beam="1">  1        2 0.95999569E-01 0.92215634E+03</pdfrwt>
<pdfrwt beam="2">  1       -2 0.18214409E+00 0.92215634E+03</pdfrwt>
<totfact> 0.82881070E+00</totfact>
</mgrwt>
</event>
<event>
 4    1  0.8468429E-007  0.7139541E+03  0.7818608E-02  0.9943601E-01
         -2   -1    0    0    0  501 -0.00000000000E+00  0.00000000000E+00  0.13302809676E+04  0.13302809676E+04  0.25500000000E-02 0.  1.
          2   -1    0    0  501    0  0.00000000000E+00 -0.00000000000E+00 -0.10236107656E+04  0.10236107656E+04  0.25500000000E-02 0. -1.
    8880023    1    1    2    0    0  0.20311314806E+03  0.18618622021E+03 -0.87592179607E+03  0.11300307335E+04  0.65864270000E+03 0. -1.
    8880022    1    1    2    0    0 -0.20311314806E+03 -0.18618622021E+03  0.11825919982E+04  0.12238609997E+04  0.15294330000E+03 0.  0.
<mgrwt>
<rscale>  0 0.58193957E+03</rscale>
<asrwt>0</asrwt>
<pdfrwt beam="1">  1        2 0.15747858E+00 0.71395411E+03</pdfrwt>
<pdfrwt beam="2">  1       -2 0.20465861E+00 0.71395411E+03</pdfrwt>
<totfact> 0.31098121E+00</totfact>
</mgrwt>
</event>
<event>
 4    1  0.8468429E-007  0.8285473E+03  0.7818608E-02  0.9652166E-01
          2   -1    0    0  501    0  0.00000000000E+00  0.00000000000E+00  0.19784421164E+04  0.19784421165E+04  0.25500000000E-02 0. -1.
         -2   -1    0    0    0  501 -0.00000000000E+00 -0.00000000000E+00 -0.28822854113E+03  0.28822854114E+03  0.25500000000E-02 0.  1.
    8880023    1    1    2    0    0  0.28971466974E+03 -0.41078677637E+03  0.14890702464E+04  0.17040600842E+04  0.65864270000E+03 0. -1.
    8880022    1    1    2    0    0 -0.28971466974E+03  0.41078677637E+03  0.20114332888E+03  0.56261057338E+03  0.15294330000E+03 0.  0.
<mgrwt>
<rscale>  0 0.73937671E+03</rscale>
<asrwt>0</asrwt>
<pdfrwt beam="1">  1        2 0.30437572E+00 0.82854727E+03</pdfrwt>
<pdfrwt beam="2">  1       -2 0.44342851E-01 0.82854727E+03</pdfrwt>
<totfact> 0.33848038E+01</totfact>
</mgrwt>
</event>
<event>
 4    1  0.8468429E-007  0.6852141E+03  0.7818608E-02  0.1006516E+00
          2   -1    0    0  501    0  0.00000000000E+00  0.00000000000E+00  0.28960895856E+03  0.28960895857E+03  0.25500000000E-02 0. -1.
         -2   -1    0    0    0  501 -0.00000000000E+00 -0.00000000000E+00 -0.98418736437E+03  0.98418736438E+03  0.25500000000E-02 0.  1.
    8880023    1    1    2    0    0 -0.18819181671E+03  0.17087781657E+02 -0.18585721450E+03  0.70997271962E+03  0.65864270000E+03 0. -1.
    8880022    1    1    2    0    0  0.18819181671E+03 -0.17087781657E+02 -0.50872119132E+03  0.56382360333E+03  0.15294330000E+03 0.  0.
<mgrwt>
<rscale>  0 0.52883230E+03</rscale>
<asrwt>0</asrwt>
<pdfrwt beam="1">  1        2 0.44555225E-01 0.68521410E+03</pdfrwt>
<pdfrwt beam="2">  1       -2 0.15141344E+00 0.68521410E+03</pdfrwt>
<totfact> 0.33919112E+01</totfact>
</mgrwt>
</event>
<event>
 4    1  0.8468429E-007  0.1124400E+04  0.7818608E-02  0.9234364E-01
         -2   -1    0    0    0  501 -0.00000000000E+00  0.00000000000E+00  0.13458938469E+04  0.13458938469E+04  0.25500000000E-02 0.  1.
          2   -1    0    0  501    0  0.00000000000E+00 -0.00000000000E+00 -0.14339723252E+04  0.14339723252E+04  0.25500000000E-02 0. -1.
    8880023    1    1    2    0    0  0.67795237822E+03  0.60897074153E+03 -0.98299374802E+03  0.14935031657E+04  0.65864270000E+03 0.  0.
    8880022    1    1    2    0    0 -0.67795237822E+03 -0.60897074153E+03  0.89491526972E+03  0.12863630064E+04  0.15294330000E+03 0.  0.
<mgrwt>
<rscale>  0 0.10705666E+04</rscale>
<asrwt>0</asrwt>
<pdfrwt beam="1">  1        2 0.22061113E+00 0.11243998E+04</pdfrwt>
<pdfrwt beam="2">  1       -2 0.20706059E+00 0.11243998E+04</pdfrwt>
<totfact> 0.16197077E+00</totfact>
</mgrwt>
</event>
<event>
 4    1  0.8468429E-007  0.7196170E+03  0.7818608E-02  0.9923884E-01
         -2   -1    0    0    0  501 -0.00000000000E+00  0.00000000000E+00  0.47729417730E+03  0.47729417731E+03  0.25500000000E-02 0.  1.
          2   -1    0    0  501    0  0.00000000000E+00 -0.00000000000E+00 -0.82670663734E+03  0.82670663734E+03  0.25500000000E-02 0. -1.
    8880023    1    1    2    0    0 -0.19819093420E+03 -0.21156277748E+03 -0.56222624031E+03  0.91320699010E+03  0.65864270000E+03 0. -1.
    8880022    1    1    2    0    0  0.19819093420E+03  0.21156277748E+03  0.21281378028E+03  0.39079382454E+03  0.15294330000E+03 0.  0.
<mgrwt>
<rscale>  0 0.59117604E+03</rscale>
<asrwt>0</asrwt>
<pdfrwt beam="1">  1        2 0.12718564E+00 0.71961702E+03</pdfrwt>
<pdfrwt beam="2">  1       -2 0.73429874E-01 0.71961702E+03</pdfrwt>
<totfact> 0.56048948E+01</totfact>
</mgrwt>
</event>
<event>
 4    1  0.8468429E-007  0.7585042E+03  0.7818608E-02  0.9808995E-01
         -2   -1    0    0    0  501 -0.00000000000E+00  0.00000000000E+00  0.30471087910E+03  0.30471087911E+03  0.25500000000E-02 0.  1.
          2   -1    0    0  501    0  0.00000000000E+00 -0.00000000000E+00 -0.26818002500E+04  0.26818002500E+04  0.25500000000E-02 0. -1.
    8880023    1    1    2    0    0  0.24913231442E+03  0.28187150133E+03 -0.24580581093E+04  0.25724265448E+04  0.65864270000E+03 0. -1.
    8880022    1    1    2    0    0 -0.24913231442E+03 -0.28187150133E+03  0.80968738408E+02  0.41408458432E+03  0.15294330000E+03 0.  0.
<mgrwt>
<rscale>  0 0.64882027E+03</rscale>
<asrwt>0</asrwt>
<pdfrwt beam="1">  1        2 0.41258464E+00 0.75850423E+03</pdfrwt>
<pdfrwt beam="2">  1       -2 0.46878599E-01 0.75850423E+03</pdfrwt>
<totfact> 0.12347496E+01</totfact>
</mgrwt>
</event>
<event>
 4    1  0.8468429E-007  0.6728821E+03  0.7818608E-02  0.1013676E+00
         -2   -1    0    0    0  501 -0.00000000000E+00  0.00000000000E+00  0.27282493236E+03  0.27282493237E+03  0.25500000000E-02 0.  1.
          2   -1    0    0  501    0  0.00000000000E+00 -0.00000000000E+00 -0.20357844560E+04  0.20357844560E+04  0.25500000000E-02 0. -1.
    8880023    1    1    2    0    0 -0.11833872534E+02 -0.13718630404E+03 -0.19297580381E+04  0.20437065382E+04  0.65864270000E+03 0. -1.
    8880022    1    1    2    0    0  0.11833872534E+02  0.13718630404E+03  0.16679851448E+03  0.26490285012E+03  0.15294330000E+03 0.  0.
<mgrwt>
<rscale>  0 0.50039526E+03</rscale>
<asrwt>0</asrwt>
<pdfrwt beam="1">  1        2 0.31319760E+00 0.67288211E+03</pdfrwt>
<pdfrwt beam="2">  1       -2 0.41973068E-01 0.67288211E+03</pdfrwt>
<totfact> 0.35814503E+01</totfact>
</mgrwt>
</event>
<event>
 4    1  0.8468429E-007  0.1013087E+04  0.7818608E-02  0.9364633E-01
         -2   -1    0    0    0  501 -0.00000000000E+00  0.00000000000E+00  0.11904051121E+04  0.11904051121E+04  0.25500000000E-02 0.  1.
          2   -1    0    0  501    0  0.00000000000E+00 -0.00000000000E+00 -0.24059062354E+04  0.24059062354E+04  0.25500000000E-02 0. -1.
    8880023    1    1    2    0    0 -0.37430971162E+03  0.67262644355E+03 -0.21495498253E+04  0.23763225266E+04  0.65864270000E+03 0.  0.
    8880022    1    1    2    0    0  0.37430971162E+03 -0.67262644355E+03  0.93404870195E+03  0.12199888210E+04  0.15294330000E+03 0.  0.
<mgrwt>
<rscale>  0 0.95044272E+03</rscale>
<asrwt>0</asrwt>
<pdfrwt beam="1">  1        2 0.37013942E+00 0.10130865E+04</pdfrwt>
<pdfrwt beam="2">  1       -2 0.18313925E+00 0.10130865E+04</pdfrwt>
<totfact> 0.68196325E-01</totfact>
</mgrwt>
</event>
<event>
 4    1  0.8468429E-007  0.6808294E+03  0.7818608E-02  0.1008858E+00
         -2   -1    0    0    0  501 -0.00000000000E+00  0.00000000000E+00  0.27374963414E+03  0.27374963415E+03  0.25500000000E-02 0.  1.
          2   -1    0    0  501    0  0.00000000000E+00 -0.00000000000E+00 -0.21588022646E+04  0.21588022646E+04  0.25500000000E-02 0. -1.
    8880023    1    1    2    0    0  0.15437933055E+03 -0.76716600023E+02 -0.20428065480E+04  0.21532736039E+04  0.65864270000E+03 0. -1.
    8880022    1    1    2    0    0 -0.15437933055E+03  0.76716600023E+02  0.15775391760E+03  0.27927829481E+03  0.15294330000E+03 0.  0.
<mgrwt>
<rscale>  0 0.51930896E+03</rscale>
<asrwt>0</asrwt>
<pdfrwt beam="1">  1        2 0.33212341E+00 0.68082936E+03</pdfrwt>
<pdfrwt beam="2">  1       -2 0.42115330E-01 0.68082936E+03</pdfrwt>
<totfact> 0.30442453E+01</totfact>
</mgrwt>
</event>
<event>
 4    1  0.8468429E-007  0.8898330E+03  0.7818608E-02  0.9542554E-01
          2   -1    0    0  501    0  0.00000000000E+00  0.00000000000E+00  0.10039065513E+04  0.10039065513E+04  0.25500000000E-02 0. -1.
         -2   -1    0    0    0  501 -0.00000000000E+00 -0.00000000000E+00 -0.85370171083E+03  0.85370171084E+03  0.25500000000E-02 0.  1.
    8880023    1    1    2    0    0 -0.53574884965E+03 -0.26639407929E+03  0.61756134047E+03  0.10831365800E+04  0.65864270000E+03 0.  1.
    8880022    1    1    2    0    0  0.53574884965E+03  0.26639407929E+03 -0.46735650000E+03  0.77447168217E+03  0.15294330000E+03 0.  0.
<mgrwt>
<rscale>  0 0.81217898E+03</rscale>
<asrwt>0</asrwt>
<pdfrwt beam="1">  1        2 0.15444716E+00 0.88983304E+03</pdfrwt>
<pdfrwt beam="2">  1       -2 0.13133873E+00 0.88983304E+03</pdfrwt>
<totfact> 0.10620326E+01</totfact>
</mgrwt>
</event>
<event>
 4    1  0.8468429E-007  0.6729880E+03  0.7818608E-02  0.1013606E+00
         -2   -1    0    0    0  501 -0.00000000000E+00  0.00000000000E+00  0.18849534258E+03  0.18849534259E+03  0.25500000000E-02 0.  1.
          2   -1    0    0  501    0  0.00000000000E+00 -0.00000000000E+00 -0.11915610861E+04  0.11915610862E+04  0.25500000000E-02 0. -1.
    8880023    1    1    2    0    0  0.39397172832E+02 -0.13247837427E+03 -0.95513517765E+03  0.11684160521E+04  0.65864270000E+03 0. -1.
    8880022    1    1    2    0    0 -0.39397172832E+02  0.13247837427E+03 -0.47930565923E+02  0.21164037668E+03  0.15294330000E+03 0. -1.
<mgrwt>
<rscale>  0 0.50066455E+03</rscale>
<asrwt>0</asrwt>
<pdfrwt beam="1">  1        2 0.18331709E+00 0.67298801E+03</pdfrwt>
<pdfrwt beam="2">  1       -2 0.28999284E-01 0.67298801E+03</pdfrwt>
<totfact> 0.21266052E+02</totfact>
</mgrwt>
</event>
<event>
 4    1  0.8468429E-007  0.7431401E+03  0.7818608E-02  0.9850893E-01
          2   -1    0    0  501    0  0.00000000000E+00  0.00000000000E+00  0.20758802713E+04  0.20758802713E+04  0.25500000000E-02 0. -1.
         -2   -1    0    0    0  501 -0.00000000000E+00 -0.00000000000E+00 -0.38138740303E+03  0.38138740304E+03  0.25500000000E-02 0.  1.
    8880023    1    1    2    0    0  0.56514099758E+02  0.33948961204E+03  0.18914930223E+04  0.20322409060E+04  0.65864270000E+03 0.  0.
    8880022    1    1    2    0    0 -0.56514099758E+02 -0.33948961204E+03 -0.19700015402E+03  0.42502676840E+03  0.15294330000E+03 0.  0.
<mgrwt>
<rscale>  0 0.62701420E+03</rscale>
<asrwt>0</asrwt>
<pdfrwt beam="1">  1        2 0.31936620E+00 0.74314013E+03</pdfrwt>
<pdfrwt beam="2">  1       -2 0.58674985E-01 0.74314013E+03</pdfrwt>
<totfact> 0.17068431E+01</totfact>
</mgrwt>
</event>
<event>
 4    1  0.8468429E-007  0.1155976E+04  0.7818608E-02  0.9201152E-01
          2   -1    0    0  501    0  0.00000000000E+00  0.00000000000E+00  0.19823578589E+04  0.19823578589E+04  0.25500000000E-02 0. -1.
         -2   -1    0    0    0  501 -0.00000000000E+00 -0.00000000000E+00 -0.67842332150E+03  0.67842332151E+03  0.25500000000E-02 0.  1.
    8880023    1    1    2    0    0 -0.85889779791E+03  0.40591192602E+03  0.12417862429E+04  0.16965592233E+04  0.65864270000E+03 0.  0.
    8880022    1    1    2    0    0  0.85889779791E+03 -0.40591192602E+03  0.62148294484E+02  0.96422195706E+03  0.15294330000E+03 0.  0.
<mgrwt>
<rscale>  0 0.11041544E+04</rscale>
<asrwt>0</asrwt>
<pdfrwt beam="1">  1        2 0.30497813E+00 0.11559758E+04</pdfrwt>
<pdfrwt beam="2">  1       -2 0.10437282E+00 0.11559758E+04</pdfrwt>
<totfact> 0.50078526E+00</totfact>
</mgrwt>
</event>
<event>
 4    1  0.8468429E-007  0.1435722E+04  0.7818608E-02  0.8956412E-01
         -2   -1    0    0    0  501 -0.00000000000E+00  0.00000000000E+00  0.15056123181E+04  0.15056123181E+04  0.25500000000E-02 0.  1.
          2   -1    0    0  501    0  0.00000000000E+00 -0.00000000000E+00 -0.20732259980E+04  0.20732259980E+04  0.25500000000E-02 0. -1.
    8880023    1    1    2    0    0  0.20159736336E+03  0.12597002651E+04 -0.14339683615E+04  0.20291775977E+04  0.65864270000E+03 0.  0.
    8880022    1    1    2    0    0 -0.20159736336E+03 -0.12597002651E+04  0.86635468159E+03  0.15496607184E+04  0.15294330000E+03 0.  0.
<mgrwt>
<rscale>  0 0.13964232E+04</rscale>
<asrwt>0</asrwt>
<pdfrwt beam="1">  1        2 0.31895785E+00 0.14357216E+04</pdfrwt>
<pdfrwt beam="2">  1       -2 0.23163266E+00 0.14357216E+04</pdfrwt>
<totfact> 0.47969975E-01</totfact>
</mgrwt>
</event>
<event>
 4    1  0.8468429E-007  0.8243962E+03  0.7818608E-02  0.9660336E-01
          2   -1    0    0  501    0  0.00000000000E+00  0.00000000000E+00  0.13527845152E+04  0.13527845152E+04  0.25500000000E-02 0. -1.
         -2   -1    0    0    0  501 -0.00000000000E+00 -0.00000000000E+00 -0.34170953760E+03  0.34170953761E+03  0.25500000000E-02 0.  1.
    8880023    1    1    2    0    0 -0.49146775785E+03  0.65408853406E+02  0.48936530044E+03  0.95870093285E+03  0.65864270000E+03 0. -1.
    8880022    1    1    2    0    0  0.49146775785E+03 -0.65408853406E+02  0.52170967711E+03  0.73579311992E+03  0.15294330000E+03 0.  0.
<mgrwt>
<rscale>  0 0.73428302E+03</rscale>
<asrwt>0</asrwt>
<pdfrwt beam="1">  1        2 0.20812069E+00 0.82439619E+03</pdfrwt>
<pdfrwt beam="2">  1       -2 0.52570698E-01 0.82439619E+03</pdfrwt>
<totfact> 0.53242807E+01</totfact>
</mgrwt>
</event>
<event>
 4    1  0.8468429E-007  0.1052744E+04  0.7818608E-02  0.9315590E-01
         -2   -1    0    0    0  501 -0.00000000000E+00  0.00000000000E+00  0.90954821366E+03  0.90954821367E+03  0.25500000000E-02 0.  1.
          2   -1    0    0  501    0  0.00000000000E+00 -0.00000000000E+00 -0.20411106317E+04  0.20411106317E+04  0.25500000000E-02 0. -1.
    8880023    1    1    2    0    0 -0.50312135531E+03  0.64909779559E+03 -0.16574629390E+04  0.19635306585E+04  0.65864270000E+03 0.  0.
    8880022    1    1    2    0    0  0.50312135531E+03 -0.64909779559E+03  0.52590052096E+03  0.98712818689E+03  0.15294330000E+03 0.  0.
<mgrwt>
<rscale>  0 0.99360163E+03</rscale>
<asrwt>0</asrwt>
<pdfrwt beam="1">  1        2 0.31401702E+00 0.10527437E+04</pdfrwt>
<pdfrwt beam="2">  1       -2 0.13993049E+00 0.10527437E+04</pdfrwt>
<totfact> 0.22602474E+00</totfact>
</mgrwt>
</event>
<event>
 4    1  0.1032783E-006  0.7252808E+03  0.7818608E-02  0.9905106E-01
          2   -1    0    0  501    0  0.00000000000E+00  0.00000000000E+00  0.20506841611E+04  0.20506841611E+04  0.25500000000E-02 0. -1.
         -2   -1    0    0    0  501 -0.00000000000E+00 -0.00000000000E+00 -0.46638874547E+03  0.46638874547E+03  0.25500000000E-02 0.  1.
    8880023    1    1    2    0    0  0.17980615862E+03  0.24472799327E+03  0.19119390634E+04  0.20448822054E+04  0.65864270000E+03 0. -1.
    8880022    1    1    2    0    0 -0.17980615862E+03 -0.24472799327E+03 -0.32764364778E+03  0.47219070121E+03  0.15294330000E+03 0.  0.
<mgrwt>
<rscale>  0 0.60014446E+03</rscale>
<asrwt>0</asrwt>
<pdfrwt beam="1">  1        2 0.31548987E+00 0.72528081E+03</pdfrwt>
<pdfrwt beam="2">  1       -2 0.71752115E-01 0.72528081E+03</pdfrwt>
<totfact> 0.11468689E+01</totfact>
</mgrwt>
</event>
<event>
 4    1  0.8468429E-007  0.7482706E+03  0.7818608E-02  0.9836479E-01
          2   -1    0    0  501    0  0.00000000000E+00  0.00000000000E+00  0.10725132894E+04  0.10725132894E+04  0.25500000000E-02 0. -1.
         -2   -1    0    0    0  501 -0.00000000000E+00 -0.00000000000E+00 -0.58909054032E+03  0.58909054033E+03  0.25500000000E-02 0.  1.
    8880023    1    1    2    0    0 -0.15357123052E+03  0.32017898380E+03  0.84747723600E+03  0.11305426026E+04  0.65864270000E+03 0. -1.
    8880022    1    1    2    0    0  0.15357123052E+03 -0.32017898380E+03 -0.36405448691E+03  0.53106122713E+03  0.15294330000E+03 0.  0.
<mgrwt>
<rscale>  0 0.63441094E+03</rscale>
<asrwt>0</asrwt>
<pdfrwt beam="1">  1        2 0.16500204E+00 0.74827061E+03</pdfrwt>
<pdfrwt beam="2">  1       -2 0.90629315E-01 0.74827061E+03</pdfrwt>
<totfact> 0.23974522E+01</totfact>
</mgrwt>
</event>
<event>
 4    1  0.8468429E-007  0.7322514E+03  0.7818608E-02  0.9883122E-01
          2   -1    0    0  501    0  0.00000000000E+00  0.00000000000E+00  0.10011283728E+04  0.10011283728E+04  0.25500000000E-02 0. -1.
         -2   -1    0    0    0  501 -0.00000000000E+00 -0.00000000000E+00 -0.56254698468E+03  0.56254698469E+03  0.25500000000E-02 0.  1.
    8880023    1    1    2    0    0 -0.22085527957E+03 -0.23152710297E+03  0.78108097251E+03  0.10706444535E+04  0.65864270000E+03 0.  0.
    8880022    1    1    2    0    0  0.22085527957E+03  0.23152710297E+03 -0.34249958442E+03  0.49303090397E+03  0.15294330000E+03 0.  0.
<mgrwt>
<rscale>  0 0.61086295E+03</rscale>
<asrwt>0</asrwt>
<pdfrwt beam="1">  1        2 0.15401975E+00 0.73225136E+03</pdfrwt>
<pdfrwt beam="2">  1       -2 0.86545691E-01 0.73225136E+03</pdfrwt>
<totfact> 0.29598660E+01</totfact>
</mgrwt>
</event>
<event>
 4    1  0.8468429E-007  0.7377899E+03  0.7818608E-02  0.9866432E-01
          2   -1    0    0  501    0  0.00000000000E+00  0.00000000000E+00  0.13713181935E+04  0.13713181935E+04  0.25500000000E-02 0. -1.
         -2   -1    0    0    0  501 -0.00000000000E+00 -0.00000000000E+00 -0.44313441180E+03  0.44313441180E+03  0.25500000000E-02 0.  1.
    8880023    1    1    2    0    0  0.27568473503E+03 -0.18580018081E+03  0.11647085323E+04  0.13787240304E+04  0.65864270000E+03 0.  0.
    8880022    1    1    2    0    0 -0.27568473503E+03  0.18580018081E+03 -0.23652475066E+03  0.43572857492E+03  0.15294330000E+03 0.  0.
<mgrwt>
<rscale>  0 0.61916069E+03</rscale>
<asrwt>0</asrwt>
<pdfrwt beam="1">  1        2 0.21097202E+00 0.73778993E+03</pdfrwt>
<pdfrwt beam="2">  1       -2 0.68174527E-01 0.73778993E+03</pdfrwt>
<totfact> 0.30264493E+01</totfact>
</mgrwt>
</event>
<event>
 4    1  0.8468429E-007  0.1742467E+04  0.7818608E-02  0.8755047E-01
         -2   -1    0    0    0  501 -0.00000000000E+00  0.00000000000E+00  0.20520411733E+04  0.20520411733E+04  0.25500000000E-02 0.  1.
          2   -1    0    0  501    0  0.00000000000E+00 -0.00000000000E+00 -0.26029590826E+04  0.26029590826E+04  0.25500000000E-02 0. -1.
    8880023    1    1    2    0    0 -0.15678041603E+04 -0.37996293484E+03  0.13155131869E+04  0.21832926666E+04  0.65864270000E+03 0.  0.
    8880022    1    1    2    0    0  0.15678041603E+04  0.37996293484E+03 -0.18664310962E+04  0.24717075892E+04  0.15294330000E+03 0.  0.
<mgrwt>
<rscale>  0 0.17111206E+04</rscale>
<asrwt>0</asrwt>
<pdfrwt beam="1">  1        2 0.40045524E+00 0.17424672E+04</pdfrwt>
<pdfrwt beam="2">  1       -2 0.31569864E+00 0.17424672E+04</pdfrwt>
<totfact> 0.70243380E-02</totfact>
</mgrwt>
</event>
<event>
 4    1  0.8468429E-007  0.7954697E+03  0.7818608E-02  0.9720678E-01
         -2   -1    0    0    0  501 -0.00000000000E+00  0.00000000000E+00  0.35667859074E+03  0.35667859075E+03  0.25500000000E-02 0.  1.
          2   -1    0    0  501    0  0.00000000000E+00 -0.00000000000E+00 -0.13893740704E+04  0.13893740704E+04  0.25500000000E-02 0. -1.
    8880023    1    1    2    0    0  0.30937607726E+03 -0.32132267808E+03 -0.99373423666E+03  0.12729021015E+04  0.65864270000E+03 0. -1.
    8880022    1    1    2    0    0 -0.30937607726E+03  0.32132267808E+03 -0.38961242989E+02  0.47315055965E+03  0.15294330000E+03 0.  0.
<mgrwt>
<rscale>  0 0.69798842E+03</rscale>
<asrwt>0</asrwt>
<pdfrwt beam="1">  1        2 0.21374985E+00 0.79546969E+03</pdfrwt>
<pdfrwt beam="2">  1       -2 0.54873630E-01 0.79546969E+03</pdfrwt>
<totfact> 0.46567479E+01</totfact>
</mgrwt>
</event>
<event>
 4    1  0.1290208E-006  0.9198218E+03  0.7818608E-02  0.9494932E-01
          2   -1    0    0  501    0  0.00000000000E+00  0.00000000000E+00  0.19038532669E+04  0.19038532669E+04  0.25500000000E-02 0. -1.
         -2   -1    0    0    0  501 -0.00000000000E+00 -0.00000000000E+00 -0.14990766165E+04  0.14990766165E+04  0.25500000000E-02 0.  1.
    8880023    1    1    2    0    0 -0.67193943560E+02 -0.63855062229E+03  0.17092189920E+04  0.19410053303E+04  0.65864270000E+03 0. -1.
    8880022    1    1    2    0    0  0.67193943560E+02  0.63855062229E+03 -0.13044423416E+04  0.14619245531E+04  0.15294330000E+03 0.  0.
<mgrwt>
<rscale>  0 0.84658473E+03</rscale>
<asrwt>0</asrwt>
<pdfrwt beam="1">  1        2 0.29290050E+00 0.91982179E+03</pdfrwt>
<pdfrwt beam="2">  1       -2 0.23062717E+00 0.91982179E+03</pdfrwt>
<totfact> 0.64874349E-01</totfact>
</mgrwt>
</event>
<event>
 4    1  0.8468429E-007  0.7433841E+03  0.7818608E-02  0.9850197E-01
         -2   -1    0    0    0  501 -0.00000000000E+00  0.00000000000E+00  0.49379484511E+03  0.49379484512E+03  0.25500000000E-02 0.  1.
          2   -1    0    0  501    0  0.00000000000E+00 -0.00000000000E+00 -0.28469058654E+04  0.28469058654E+04  0.25500000000E-02 0. -1.
    8880023    1    1    2    0    0 -0.19175253275E+03 -0.28642731698E+03 -0.27168797728E+04  0.28167455597E+04  0.65864270000E+03 0. -1.
    8880022    1    1    2    0    0  0.19175253275E+03  0.28642731698E+03  0.36376875255E+03  0.52395515082E+03  0.15294330000E+03 0.  0.
<mgrwt>
<rscale>  0 0.62736874E+03</rscale>
<asrwt>0</asrwt>
<pdfrwt beam="1">  1        2 0.43798551E+00 0.74338405E+03</pdfrwt>
<pdfrwt beam="2">  1       -2 0.75968439E-01 0.74338405E+03</pdfrwt>
<totfact> 0.35716877E+00</totfact>
</mgrwt>
</event>
<event>
 4    1  0.8468429E-007  0.8464761E+03  0.7818608E-02  0.9618088E-01
          2   -1    0    0  501    0  0.00000000000E+00  0.00000000000E+00  0.25780474393E+04  0.25780474393E+04  0.25500000000E-02 0. -1.
         -2   -1    0    0    0  501 -0.00000000000E+00 -0.00000000000E+00 -0.19716616643E+03  0.19716616645E+03  0.25500000000E-02 0.  1.
    8880023    1    1    2    0    0 -0.27872366239E+03 -0.45279656849E+03  0.11717845975E+04  0.14455452126E+04  0.65864270000E+03 0.  0.
    8880022    1    1    2    0    0  0.27872366239E+03  0.45279656849E+03  0.12090966753E+04  0.13296683931E+04  0.15294330000E+03 0.  0.
<mgrwt>
<rscale>  0 0.76110492E+03</rscale>
<asrwt>0</asrwt>
<pdfrwt beam="1">  1        2 0.39662266E+00 0.84647612E+03</pdfrwt>
<pdfrwt beam="2">  1       -2 0.30333258E-01 0.84647612E+03</pdfrwt>
<totfact> 0.32466706E+01</totfact>
</mgrwt>
</event>
<event>
 4    1  0.8468429E-007  0.8641230E+03  0.7818608E-02  0.9586271E-01
          2   -1    0    0  501    0  0.00000000000E+00  0.00000000000E+00  0.27404418640E+04  0.27404418640E+04  0.25500000000E-02 0. -1.
         -2   -1    0    0    0  501 -0.00000000000E+00 -0.00000000000E+00 -0.24613255491E+03  0.24613255492E+03  0.25500000000E-02 0.  1.
    8880023    1    1    2    0    0  0.93149125694E+02 -0.55156288128E+03  0.73591642664E+03  0.11350249182E+04  0.65864270000E+03 0.  0.
    8880022    1    1    2    0    0 -0.93149125694E+02  0.55156288128E+03  0.17583928825E+04  0.18515495007E+04  0.15294330000E+03 0.  0.
<mgrwt>
<rscale>  0 0.78211556E+03</rscale>
<asrwt>0</asrwt>
<pdfrwt beam="1">  1        2 0.42160643E+00 0.86412301E+03</pdfrwt>
<pdfrwt beam="2">  1       -2 0.37866547E-01 0.86412301E+03</pdfrwt>
<totfact> 0.17106352E+01</totfact>
</mgrwt>
</event>
<event>
 4    1  0.8468429E-007  0.8886862E+03  0.7818608E-02  0.9544444E-01
         -2   -1    0    0    0  501 -0.00000000000E+00  0.00000000000E+00  0.34607274271E+03  0.34607274272E+03  0.25500000000E-02 0.  1.
          2   -1    0    0  501    0  0.00000000000E+00 -0.00000000000E+00 -0.23685325953E+04  0.23685325953E+04  0.25500000000E-02 0. -1.
    8880023    1    1    2    0    0 -0.12379212245E+03 -0.58363381531E+03 -0.18843576014E+04  0.20834026726E+04  0.65864270000E+03 0. -1.
    8880022    1    1    2    0    0  0.12379212245E+03  0.58363381531E+03 -0.13810225110E+03  0.63120266534E+03  0.15294330000E+03 0.  0.
<mgrwt>
<rscale>  0 0.81085006E+03</rscale>
<asrwt>0</asrwt>
<pdfrwt beam="1">  1        2 0.36438962E+00 0.88868618E+03</pdfrwt>
<pdfrwt beam="2">  1       -2 0.53241962E-01 0.88868618E+03</pdfrwt>
<totfact> 0.14104996E+01</totfact>
</mgrwt>
</event>
<event>
 4    1  0.8468429E-007  0.6765442E+03  0.7818608E-02  0.1011350E+00
          2   -1    0    0  501    0  0.00000000000E+00  0.00000000000E+00  0.30015949395E+04  0.30015949395E+04  0.25500000000E-02 0. -1.
         -2   -1    0    0    0  501 -0.00000000000E+00 -0.00000000000E+00 -0.14717670536E+03  0.14717670538E+03  0.25500000000E-02 0.  1.
    8880023    1    1    2    0    0 -0.10927931326E+03  0.10936095002E+03  0.28521473715E+04  0.29312892421E+04  0.65864270000E+03 0. -1.
    8880022    1    1    2    0    0  0.10927931326E+03 -0.10936095002E+03  0.22708626386E+01  0.21748240280E+03  0.15294330000E+03 0.  0.
<mgrwt>
<rscale>  0 0.50941558E+03</rscale>
<asrwt>0</asrwt>
<pdfrwt beam="1">  1        2 0.46178385E+00 0.67654415E+03</pdfrwt>
<pdfrwt beam="2">  1       -2 0.22642569E-01 0.67654415E+03</pdfrwt>
<totfact> 0.31839000E+01</totfact>
</mgrwt>
</event>
<event>
 4    1  0.8468429E-007  0.8852393E+03  0.7818608E-02  0.9550155E-01
         -2   -1    0    0    0  501 -0.00000000000E+00  0.00000000000E+00  0.10291690817E+04  0.10291690817E+04  0.25500000000E-02 0.  1.
          2   -1    0    0  501    0  0.00000000000E+00 -0.00000000000E+00 -0.88147250271E+03  0.88147250271E+03  0.25500000000E-02 0. -1.
    8880023    1    1    2    0    0  0.58717575610E+02  0.58854961094E+03 -0.50294523262E+03  0.10181367843E+04  0.65864270000E+03 0. -1.
    8880022    1    1    2    0    0 -0.58717575610E+02 -0.58854961094E+03  0.65064181156E+03  0.89250480009E+03  0.15294330000E+03 0.  0.
<mgrwt>
<rscale>  0 0.80684960E+03</rscale>
<asrwt>0</asrwt>
<pdfrwt beam="1">  1        2 0.13561115E+00 0.88523929E+03</pdfrwt>
<pdfrwt beam="2">  1       -2 0.15833370E+00 0.88523929E+03</pdfrwt>
<totfact> 0.78426495E+00</totfact>
</mgrwt>
</event>
<event>
 4    1  0.8468429E-007  0.6635642E+03  0.7818608E-02  0.1020770E+00
          2   -1    0    0  501    0  0.00000000000E+00  0.00000000000E+00  0.66613790614E+03  0.66613790614E+03  0.25500000000E-02 0. -1.
         -2   -1    0    0    0  501 -0.00000000000E+00 -0.00000000000E+00 -0.57706805615E+03  0.57706805616E+03  0.25500000000E-02 0.  1.
    8880023    1    1    2    0    0 -0.69541084366E+02  0.40881826519E+02  0.47784487151E+03  0.81771218264E+03  0.65864270000E+03 0. -1.
    8880022    1    1    2    0    0  0.69541084366E+02 -0.40881826519E+02 -0.38877502152E+03  0.42549377966E+03  0.15294330000E+03 0.  0.
<mgrwt>
<rscale>  0 0.47409917E+03</rscale>
<asrwt>0</asrwt>
<pdfrwt beam="1">  1        2 0.10248275E+00 0.66356423E+03</pdfrwt>
<pdfrwt beam="2">  1       -2 0.88779701E-01 0.66356423E+03</pdfrwt>
<totfact> 0.48498521E+01</totfact>
</mgrwt>
</event>
<event>
 4    1  0.8468429E-007  0.6717047E+03  0.7818608E-02  0.1014469E+00
          2   -1    0    0  501    0  0.00000000000E+00  0.00000000000E+00  0.36820009111E+04  0.36820009111E+04  0.25500000000E-02 0. -1.
         -2   -1    0    0    0  501 -0.00000000000E+00 -0.00000000000E+00 -0.34244498714E+03  0.34244498715E+03  0.25500000000E-02 0.  1.
    8880023    1    1    2    0    0  0.13032334723E+03 -0.19819533876E+02  0.36183757574E+04  0.36801943314E+04  0.65864270000E+03 0. -1.
    8880022    1    1    2    0    0 -0.13032334723E+03  0.19819533876E+02 -0.27881983344E+03  0.34425156686E+03  0.15294330000E+03 0.  0.
<mgrwt>
<rscale>  0 0.49736425E+03</rscale>
<asrwt>0</asrwt>
<pdfrwt beam="1">  1        2 0.56646170E+00 0.67170469E+03</pdfrwt>
<pdfrwt beam="2">  1       -2 0.52683842E-01 0.67170469E+03</pdfrwt>
<totfact> 0.22823244E+00</totfact>
</mgrwt>
</event>
<event>
 4    1  0.8468429E-007  0.6815031E+03  0.7818608E-02  0.1008486E+00
          2   -1    0    0  501    0  0.00000000000E+00  0.00000000000E+00  0.11108107333E+04  0.11108107333E+04  0.25500000000E-02 0. -1.
         -2   -1    0    0    0  501 -0.00000000000E+00 -0.00000000000E+00 -0.30532912745E+03  0.30532912746E+03  0.25500000000E-02 0.  1.
    8880023    1    1    2    0    0  0.41960341808E+01  0.17498176991E+03  0.92959037642E+03  0.11526424861E+04  0.65864270000E+03 0. -1.
    8880022    1    1    2    0    0 -0.41960341808E+01 -0.17498176991E+03 -0.12410877059E+03  0.26349737467E+03  0.15294330000E+03 0.  0.
<mgrwt>
<rscale>  0 0.52080855E+03</rscale>
<asrwt>0</asrwt>
<pdfrwt beam="1">  1        2 0.17089396E+00 0.68150307E+03</pdfrwt>
<pdfrwt beam="2">  1       -2 0.46973712E-01 0.68150307E+03</pdfrwt>
<totfact> 0.94046066E+01</totfact>
</mgrwt>
</event>
<event>
 4    1  0.8468429E-007  0.7727651E+03  0.7818608E-02  0.9773115E-01
         -2   -1    0    0    0  501 -0.00000000000E+00  0.00000000000E+00  0.13669907327E+03  0.13669907330E+03  0.25500000000E-02 0.  1.
          2   -1    0    0  501    0  0.00000000000E+00 -0.00000000000E+00 -0.33388586702E+04  0.33388586702E+04  0.25500000000E-02 0. -1.
    8880023    1    1    2    0    0  0.34751077015E+03 -0.20637830941E+03 -0.27220116218E+04  0.28295782756E+04  0.65864270000E+03 0.  0.
    8880022    1    1    2    0    0 -0.34751077015E+03  0.20637830941E+03 -0.48014797508E+03  0.64597946790E+03  0.15294330000E+03 0.  0.
<mgrwt>
<rscale>  0 0.66825537E+03</rscale>
<asrwt>0</asrwt>
<pdfrwt beam="1">  1        2 0.51367050E+00 0.77276513E+03</pdfrwt>
<pdfrwt beam="2">  1       -2 0.21030629E-01 0.77276513E+03</pdfrwt>
<totfact> 0.21844516E+01</totfact>
</mgrwt>
</event>
<event>
 4    1  0.8468429E-007  0.6998283E+03  0.7818608E-02  0.9997914E-01
         -2   -1    0    0    0  501 -0.00000000000E+00  0.00000000000E+00  0.45294976167E+03  0.45294976168E+03  0.25500000000E-02 0.  1.
          2   -1    0    0  501    0  0.00000000000E+00 -0.00000000000E+00 -0.12988587272E+04  0.12988587272E+04  0.25500000000E-02 0. -1.
    8880023    1    1    2    0    0  0.23653532033E+03 -0.66588345789E+00 -0.11443843777E+04  0.13414079213E+04  0.65864270000E+03 0. -1.
    8880022    1    1    2    0    0 -0.23653532033E+03  0.66588345789E+00  0.29847541218E+03  0.41040056757E+03  0.15294330000E+03 0.  0.
<mgrwt>
<rscale>  0 0.55741783E+03</rscale>
<asrwt>0</asrwt>
<pdfrwt beam="1">  1        2 0.19982442E+00 0.69982827E+03</pdfrwt>
<pdfrwt beam="2">  1       -2 0.69684580E-01 0.69982827E+03</pdfrwt>
<totfact> 0.31880589E+01</totfact>
</mgrwt>
</event>
<event>
 4    1  0.8468429E-007  0.9135451E+03  0.7818608E-02  0.9504628E-01
         -2   -1    0    0    0  501 -0.00000000000E+00  0.00000000000E+00  0.48428409983E+03  0.48428409984E+03  0.25500000000E-02 0.  1.
          2   -1    0    0  501    0  0.00000000000E+00 -0.00000000000E+00 -0.21324829513E+04  0.21324829513E+04  0.25500000000E-02 0. -1.
    8880023    1    1    2    0    0 -0.44290372463E+03 -0.45231714664E+03 -0.17339464320E+04  0.19598813601E+04  0.65864270000E+03 0. -1.
    8880022    1    1    2    0    0  0.44290372463E+03  0.45231714664E+03  0.85747580567E+02  0.65688569099E+03  0.15294330000E+03 0.  0.
<mgrwt>
<rscale>  0 0.83943476E+03</rscale>
<asrwt>0</asrwt>
<pdfrwt beam="1">  1        2 0.32807430E+00 0.91354514E+03</pdfrwt>
<pdfrwt beam="2">  1       -2 0.74505247E-01 0.91354514E+03</pdfrwt>
<totfact> 0.92686128E+00</totfact>
</mgrwt>
</event>
<event>
 4    1  0.8468429E-007  0.1022600E+04  0.7818608E-02  0.9352570E-01
         -2   -1    0    0    0  501 -0.00000000000E+00  0.00000000000E+00  0.44683902785E+03  0.44683902786E+03  0.25500000000E-02 0.  1.
          2   -1    0    0  501    0  0.00000000000E+00 -0.00000000000E+00 -0.24880626628E+04  0.24880626628E+04  0.25500000000E-02 0. -1.
    8880023    1    1    2    0    0 -0.58547849181E+02  0.78004638751E+03 -0.18522040314E+04  0.21157434149E+04  0.65864270000E+03 0. -1.
    8880022    1    1    2    0    0  0.58547849181E+02 -0.78004638751E+03 -0.18901960357E+03  0.81915827582E+03  0.15294330000E+03 0.  1.
<mgrwt>
<rscale>  0 0.96083973E+03</rscale>
<asrwt>0</asrwt>
<pdfrwt beam="1">  1        2 0.38277886E+00 0.10225998E+04</pdfrwt>
<pdfrwt beam="2">  1       -2 0.68744468E-01 0.10225998E+04</pdfrwt>
<totfact> 0.68950710E+00</totfact>
</mgrwt>
</event>
<event>
 4    1  0.8468429E-007  0.8108186E+03  0.7818608E-02  0.9687874E-01
         -2   -1    0    0    0  501 -0.00000000000E+00  0.00000000000E+00  0.12426659443E+04  0.12426659443E+04  0.25500000000E-02 0.  1.
          2   -1    0    0  501    0  0.00000000000E+00 -0.00000000000E+00 -0.43025944019E+03  0.43025944020E+03  0.25500000000E-02 0. -1.
    8880023    1    1    2    0    0 -0.94053407600E+02 -0.46343340909E+03  0.11855586293E+03  0.81944021566E+03  0.65864270000E+03 0.  0.
    8880022    1    1    2    0    0  0.94053407600E+02  0.46343340909E+03  0.69385064116E+03  0.85348516882E+03  0.15294330000E+03 0.  0.
<mgrwt>
<rscale>  0 0.71743357E+03</rscale>
<asrwt>0</asrwt>
<pdfrwt beam="1">  1        2 0.66193761E-01 0.81081858E+03</pdfrwt>
<pdfrwt beam="2">  1       -2 0.19117937E+00 0.81081858E+03</pdfrwt>
<totfact> 0.11270942E+01</totfact>
</mgrwt>
</event>
<event>
 4    1  0.8468429E-007  0.6593344E+03  0.7818608E-02  0.1024849E+00
          2   -1    0    0  501    0  0.00000000000E+00  0.00000000000E+00  0.11604368001E+04  0.11604368001E+04  0.25500000000E-02 0. -1.
         -2   -1    0    0    0  501 -0.00000000000E+00 -0.00000000000E+00 -0.15810774415E+03  0.15810774417E+03  0.25500000000E-02 0.  1.
    8880023    1    1    2    0    0 -0.28443700685E+02 -0.10128889960E+02  0.94534343623E+03  0.11525606523E+04  0.65864270000E+03 0. -1.
    8880022    1    1    2    0    0  0.28443700685E+02  0.10128889960E+02  0.56985619681E+02  0.16598389195E+03  0.15294330000E+03 0.  0.
<mgrwt>
<rscale>  0 0.45976662E+03</rscale>
<asrwt>0</asrwt>
<pdfrwt beam="1">  1        2 0.17852874E+00 0.65933440E+03</pdfrwt>
<pdfrwt beam="2">  1       -2 0.24324268E-01 0.65933440E+03</pdfrwt>
<totfact> 0.30572038E+02</totfact>
</mgrwt>
</event>
<event>
 4    1  0.8468429E-007  0.7506602E+03  0.7818608E-02  0.9829916E-01
          2   -1    0    0  501    0  0.00000000000E+00  0.00000000000E+00  0.16823989604E+04  0.16823989604E+04  0.25500000000E-02 0. -1.
         -2   -1    0    0    0  501 -0.00000000000E+00 -0.00000000000E+00 -0.44536525043E+03  0.44536525043E+03  0.25500000000E-02 0.  1.
    8880023    1    1    2    0    0 -0.34747943674E+03  0.94543877559E+02  0.14854290719E+04  0.16643287649E+04  0.65864270000E+03 0. -1.
    8880022    1    1    2    0    0  0.34747943674E+03 -0.94543877559E+02 -0.24839536191E+03  0.46343544596E+03  0.15294330000E+03 0.  0.
<mgrwt>
<rscale>  0 0.63781475E+03</rscale>
<asrwt>0</asrwt>
<pdfrwt beam="1">  1        2 0.25883061E+00 0.75066018E+03</pdfrwt>
<pdfrwt beam="2">  1       -2 0.68517731E-01 0.75066018E+03</pdfrwt>
<totfact> 0.20071181E+01</totfact>
</mgrwt>
</event>
<event>
 4    1  0.8468429E-007  0.8566550E+03  0.7818608E-02  0.9599541E-01
         -2   -1    0    0    0  501 -0.00000000000E+00  0.00000000000E+00  0.14080981346E+04  0.14080981346E+04  0.25500000000E-02 0.  1.
          2   -1    0    0  501    0  0.00000000000E+00 -0.00000000000E+00 -0.10080108079E+04  0.10080108079E+04  0.25500000000E-02 0. -1.
    8880023    1    1    2    0    0 -0.41325102281E+03 -0.35954297967E+03 -0.74646834356E+03  0.11362538256E+04  0.65864270000E+03 0. -1.
    8880022    1    1    2    0    0  0.41325102281E+03  0.35954297967E+03  0.11465556702E+04  0.12798551168E+04  0.15294330000E+03 0.  0.
<mgrwt>
<rscale>  0 0.77326534E+03</rscale>
<asrwt>0</asrwt>
<pdfrwt beam="1">  1        2 0.15507859E+00 0.85665499E+03</pdfrwt>
<pdfrwt beam="2">  1       -2 0.21663048E+00 0.85665499E+03</pdfrwt>
<totfact> 0.26138046E+00</totfact>
</mgrwt>
</event>
<event>
 4    1  0.8468429E-007  0.6815890E+03  0.7818608E-02  0.1008439E+00
          2   -1    0    0  501    0  0.00000000000E+00  0.00000000000E+00  0.43019525862E+04  0.43019525862E+04  0.25500000000E-02 0. -1.
         -2   -1    0    0    0  501 -0.00000000000E+00 -0.00000000000E+00 -0.57316670934E+02  0.57316670991E+02  0.25500000000E-02 0.  1.
    8880023    1    1    2    0    0 -0.17323525791E+03  0.27257090815E+02  0.37646620443E+04  0.38258651201E+04  0.65864270000E+03 0. -1.
    8880022    1    1    2    0    0  0.17323525791E+03 -0.27257090815E+02  0.47997387101E+03  0.53340413708E+03  0.15294330000E+03 0.  0.
<mgrwt>
<rscale>  0 0.52099889E+03</rscale>
<asrwt>0</asrwt>
<pdfrwt beam="1">  1        2 0.66183909E+00 0.68158903E+03</pdfrwt>
<pdfrwt beam="2">  1       -2 0.88179463E-02 0.68158903E+03</pdfrwt>
<totfact> 0.18036783E+01</totfact>
</mgrwt>
</event>
<event>
 4    1  0.8468429E-007  0.9749866E+03  0.7818608E-02  0.9415040E-01
         -2   -1    0    0    0  501 -0.00000000000E+00  0.00000000000E+00  0.47435851209E+03  0.47435851210E+03  0.25500000000E-02 0.  1.
          2   -1    0    0  501    0  0.00000000000E+00 -0.00000000000E+00 -0.28873225165E+04  0.28873225165E+04  0.25500000000E-02 0. -1.
    8880023    1    1    2    0    0 -0.68338673042E+03 -0.22309468908E+03 -0.24385794898E+04  0.26262651804E+04  0.65864270000E+03 0.  0.
    8880022    1    1    2    0    0  0.68338673042E+03  0.22309468908E+03  0.25615485414E+02  0.73541584815E+03  0.15294330000E+03 0.  0.
<mgrwt>
<rscale>  0 0.90848201E+03</rscale>
<asrwt>0</asrwt>
<pdfrwt beam="1">  1        2 0.44420345E+00 0.97498660E+03</pdfrwt>
<pdfrwt beam="2">  1       -2 0.72978234E-01 0.97498660E+03</pdfrwt>
<totfact> 0.35491748E+00</totfact>
</mgrwt>
</event>
<event>
 4    1  0.8468429E-007  0.6877235E+03  0.7818608E-02  0.1005254E+00
         -2   -1    0    0    0  501 -0.00000000000E+00  0.00000000000E+00  0.51769851813E+03  0.51769851813E+03  0.25500000000E-02 0.  1.
          2   -1    0    0  501    0  0.00000000000E+00 -0.00000000000E+00 -0.11560659671E+04  0.11560659671E+04  0.25500000000E-02 0. -1.
    8880023    1    1    2    0    0  0.94522915708E+02  0.17383576930E+03 -0.10123582287E+04  0.12238598146E+04  0.65864270000E+03 0.  0.
    8880022    1    1    2    0    0 -0.94522915708E+02 -0.17383576930E+03  0.37399077976E+03  0.44990467062E+03  0.15294330000E+03 0.  1.
<mgrwt>
<rscale>  0 0.53405328E+03</rscale>
<asrwt>0</asrwt>
<pdfrwt beam="1">  1        2 0.17785630E+00 0.68772354E+03</pdfrwt>
<pdfrwt beam="2">  1       -2 0.79645926E-01 0.68772354E+03</pdfrwt>
<totfact> 0.28808768E+01</totfact>
</mgrwt>
</event>
<event>
 4    1  0.8468429E-007  0.9740068E+03  0.7818608E-02  0.9416384E-01
         -2   -1    0    0    0  501 -0.00000000000E+00  0.00000000000E+00  0.86725627499E+03  0.86725627500E+03  0.25500000000E-02 0.  1.
          2   -1    0    0  501    0  0.00000000000E+00 -0.00000000000E+00 -0.23847268898E+04  0.23847268898E+04  0.25500000000E-02 0. -1.
    8880023    1    1    2    0    0  0.71637643733E+03 -0.41035709400E+02 -0.21001895107E+04  0.23150562232E+04  0.65864270000E+03 0.  0.
    8880022    1    1    2    0    0 -0.71637643733E+03  0.41035709400E+02  0.58271889584E+03  0.93692694166E+03  0.15294330000E+03 0.  0.
<mgrwt>
<rscale>  0 0.90739547E+03</rscale>
<asrwt>0</asrwt>
<pdfrwt beam="1">  1        2 0.36688106E+00 0.97400685E+03</pdfrwt>
<pdfrwt beam="2">  1       -2 0.13342404E+00 0.97400685E+03</pdfrwt>
<totfact> 0.16624851E+00</totfact>
</mgrwt>
</event>
<event>
 4    1  0.8468429E-007  0.7866276E+03  0.7818608E-02  0.9740493E-01
          2   -1    0    0  501    0  0.00000000000E+00  0.00000000000E+00  0.51191373742E+03  0.51191373743E+03  0.25500000000E-02 0. -1.
         -2   -1    0    0    0  501 -0.00000000000E+00 -0.00000000000E+00 -0.85598011868E+03  0.85598011868E+03  0.25500000000E-02 0.  1.
    8880023    1    1    2    0    0 -0.33790951741E+03 -0.26606366826E+03  0.15554790357E+02  0.78678133893E+03  0.65864270000E+03 0.  0.
    8880022    1    1    2    0    0  0.33790951741E+03  0.26606366826E+03 -0.35962117161E+03  0.58111251717E+03  0.15294330000E+03 0.  0.
<mgrwt>
<rscale>  0 0.68656206E+03</rscale>
<asrwt>0</asrwt>
<pdfrwt beam="1">  1        2 0.78755960E-01 0.78662756E+03</pdfrwt>
<pdfrwt beam="2">  1       -2 0.13168925E+00 0.78662756E+03</pdfrwt>
<totfact> 0.25425677E+01</totfact>
</mgrwt>
</event>
<event>
 4    1  0.8468429E-007  0.6806242E+03  0.7818608E-02  0.1008973E+00
         -2   -1    0    0    0  501 -0.00000000000E+00  0.00000000000E+00  0.64566815906E+03  0.64566815906E+03  0.25500000000E-02 0.  1.
          2   -1    0    0  501    0  0.00000000000E+00 -0.00000000000E+00 -0.51801790839E+03  0.51801790839E+03  0.25500000000E-02 0. -1.
    8880023    1    1    2    0    0 -0.17115927986E+03  0.11980915262E+02 -0.24707660832E+03  0.72408293590E+03  0.65864270000E+03 0. -1.
    8880022    1    1    2    0    0  0.17115927986E+03 -0.11980915262E+02  0.37472685899E+03  0.43960313156E+03  0.15294330000E+03 0.  0.
<mgrwt>
<rscale>  0 0.51884939E+03</rscale>
<asrwt>0</asrwt>
<pdfrwt beam="1">  1        2 0.79695063E-01 0.68062416E+03</pdfrwt>
<pdfrwt beam="2">  1       -2 0.99333563E-01 0.68062416E+03</pdfrwt>
<totfact> 0.50414551E+01</totfact>
</mgrwt>
</event>
<event>
 4    1  0.8468429E-007  0.6940417E+03  0.7818608E-02  0.1002288E+00
          2   -1    0    0  501    0  0.00000000000E+00  0.00000000000E+00  0.91920739812E+03  0.91920739813E+03  0.25500000000E-02 0. -1.
         -2   -1    0    0    0  501 -0.00000000000E+00 -0.00000000000E+00 -0.83815061463E+03  0.83815061464E+03  0.25500000000E-02 0.  1.
    8880023    1    1    2    0    0 -0.16022729528E+03 -0.14903319685E+03  0.75915549952E+03  0.10285965966E+04  0.65864270000E+03 0. -1.
    8880022    1    1    2    0    0  0.16022729528E+03  0.14903319685E+03 -0.67809871604E+03  0.72876141612E+03  0.15294330000E+03 0.  0.
<mgrwt>
<rscale>  0 0.54658358E+03</rscale>
<asrwt>0</asrwt>
<pdfrwt beam="1">  1        2 0.14141652E+00 0.69404170E+03</pdfrwt>
<pdfrwt beam="2">  1       -2 0.12894625E+00 0.69404170E+03</pdfrwt>
<totfact> 0.12906547E+01</totfact>
</mgrwt>
</event>
<event>
 4    1  0.8468429E-007  0.1047102E+04  0.7818608E-02  0.9322373E-01
         -2   -1    0    0    0  501 -0.00000000000E+00  0.00000000000E+00  0.70572267244E+03  0.70572267244E+03  0.25500000000E-02 0.  1.
          2   -1    0    0  501    0  0.00000000000E+00 -0.00000000000E+00 -0.22730618112E+04  0.22730618112E+04  0.25500000000E-02 0. -1.
    8880023    1    1    2    0    0 -0.76781046854E+02 -0.81038067812E+03 -0.18312698183E+04  0.21094955620E+04  0.65864270000E+03 0.  0.
    8880022    1    1    2    0    0  0.76781046854E+02  0.81038067812E+03  0.26393067952E+03  0.86928892161E+03  0.15294330000E+03 0.  0.
<mgrwt>
<rscale>  0 0.98748959E+03</rscale>
<asrwt>0</asrwt>
<pdfrwt beam="1">  1        2 0.34970181E+00 0.10471019E+04</pdfrwt>
<pdfrwt beam="2">  1       -2 0.10857272E+00 0.10471019E+04</pdfrwt>
<totfact> 0.31770673E+00</totfact>
</mgrwt>
</event>
<event>
 4    1  0.8468429E-007  0.1399189E+04  0.7818608E-02  0.8984314E-01
         -2   -1    0    0    0  501 -0.00000000000E+00  0.00000000000E+00  0.17695867077E+04  0.17695867077E+04  0.25500000000E-02 0.  1.
          2   -1    0    0  501    0  0.00000000000E+00 -0.00000000000E+00 -0.17050193325E+04  0.17050193325E+04  0.25500000000E-02 0. -1.
    8880023    1    1    2    0    0 -0.11341502056E+04  0.48746456675E+03 -0.10929343635E+04  0.17754532159E+04  0.65864270000E+03 0.  0.
    8880022    1    1    2    0    0  0.11341502056E+04 -0.48746456675E+03  0.11575017387E+04  0.16991528244E+04  0.15294330000E+03 0.  0.
<mgrwt>
<rscale>  0 0.13586399E+04</rscale>
<asrwt>0</asrwt>
<pdfrwt beam="1">  1        2 0.26231067E+00 0.13991886E+04</pdfrwt>
<pdfrwt beam="2">  1       -2 0.27224411E+00 0.13991886E+04</pdfrwt>
<totfact> 0.43446729E-01</totfact>
</mgrwt>
</event>
<event>
 4    1  0.8468429E-007  0.1414919E+04  0.7818608E-02  0.8972176E-01
          2   -1    0    0  501    0  0.00000000000E+00  0.00000000000E+00  0.42669256596E+04  0.42669256596E+04  0.25500000000E-02 0. -1.
         -2   -1    0    0    0  501 -0.00000000000E+00 -0.00000000000E+00 -0.97042118699E+03  0.97042118699E+03  0.25500000000E-02 0.  1.
    8880023    1    1    2    0    0 -0.15483165624E+03 -0.12426634006E+04  0.36603885864E+04  0.39243394322E+04  0.65864270000E+03 0.  0.
    8880022    1    1    2    0    0  0.15483165624E+03  0.12426634006E+04 -0.36388411386E+03  0.13130074144E+04  0.15294330000E+03 0.  0.
<mgrwt>
<rscale>  0 0.13749190E+04</rscale>
<asrwt>0</asrwt>
<pdfrwt beam="1">  1        2 0.65645012E+00 0.14149189E+04</pdfrwt>
<pdfrwt beam="2">  1       -2 0.14929556E+00 0.14149189E+04</pdfrwt>
<totfact> 0.60323142E-02</totfact>
</mgrwt>
</event>
<event>
 4    1  0.8468429E-007  0.6661269E+03  0.7818608E-02  0.1018606E+00
         -2   -1    0    0    0  501 -0.00000000000E+00  0.00000000000E+00  0.12947255683E+03  0.12947255685E+03  0.25500000000E-02 0.  1.
          2   -1    0    0  501    0  0.00000000000E+00 -0.00000000000E+00 -0.16752792965E+04  0.16752792965E+04  0.25500000000E-02 0. -1.
    8880023    1    1    2    0    0  0.85205257789E+02  0.51525715692E+02 -0.14564432171E+04  0.16015467168E+04  0.65864270000E+03 0. -1.
    8880022    1    1    2    0    0 -0.85205257789E+02 -0.51525715692E+02 -0.89363522614E+02  0.20320513655E+03  0.15294330000E+03 0.  0.
<mgrwt>
<rscale>  0 0.48192986E+03</rscale>
<asrwt>0</asrwt>
<pdfrwt beam="1">  1        2 0.25773526E+00 0.66612690E+03</pdfrwt>
<pdfrwt beam="2">  1       -2 0.19918856E-01 0.66612690E+03</pdfrwt>
<totfact> 0.22283497E+02</totfact>
</mgrwt>
</event>
<event>
 4    1  0.8468429E-007  0.7396051E+03  0.7818608E-02  0.9861099E-01
         -2   -1    0    0    0  501 -0.00000000000E+00  0.00000000000E+00  0.13735285975E+03  0.13735285978E+03  0.25500000000E-02 0.  1.
          2   -1    0    0  501    0  0.00000000000E+00 -0.00000000000E+00 -0.28682941996E+04  0.28682941996E+04  0.25500000000E-02 0. -1.
    8880023    1    1    2    0    0 -0.24229547270E+03  0.23344887571E+03 -0.23935613146E+04  0.25052248295E+04  0.65864270000E+03 0.  0.
    8880022    1    1    2    0    0  0.24229547270E+03 -0.23344887571E+03 -0.33738002530E+03  0.50042222987E+03  0.15294330000E+03 0.  0.
<mgrwt>
<rscale>  0 0.62184209E+03</rscale>
<asrwt>0</asrwt>
<pdfrwt beam="1">  1        2 0.44127598E+00 0.73960508E+03</pdfrwt>
<pdfrwt beam="2">  1       -2 0.21131211E-01 0.73960508E+03</pdfrwt>
<totfact> 0.42867100E+01</totfact>
</mgrwt>
</event>
<event>
 4    1  0.8468429E-007  0.8256834E+03  0.7818608E-02  0.9657790E-01
          2   -1    0    0  501    0  0.00000000000E+00  0.00000000000E+00  0.31794867596E+04  0.31794867596E+04  0.25500000000E-02 0. -1.
         -2   -1    0    0    0  501 -0.00000000000E+00 -0.00000000000E+00 -0.23221671217E+03  0.23221671218E+03  0.25500000000E-02 0.  1.
    8880023    1    1    2    0    0 -0.49642520518E+03  0.38792454211E+02  0.27214759967E+04  0.28439733905E+04  0.65864270000E+03 0.  0.
    8880022    1    1    2    0    0  0.49642520518E+03 -0.38792454211E+02  0.22579405068E+03  0.56773008127E+03  0.15294330000E+03 0.  0.
<mgrwt>
<rscale>  0 0.73586523E+03</rscale>
<asrwt>0</asrwt>
<pdfrwt beam="1">  1        2 0.48915182E+00 0.82568338E+03</pdfrwt>
<pdfrwt beam="2">  1       -2 0.35725647E-01 0.82568338E+03</pdfrwt>
<totfact> 0.10386197E+01</totfact>
</mgrwt>
</event>
<event>
 4    1  0.8468429E-007  0.6586714E+03  0.7818608E-02  0.1025561E+00
         -2   -1    0    0    0  501 -0.00000000000E+00  0.00000000000E+00  0.16392348446E+03  0.16392348448E+03  0.25500000000E-02 0.  1.
          2   -1    0    0  501    0  0.00000000000E+00 -0.00000000000E+00 -0.11334493171E+04  0.11334493171E+04  0.25500000000E-02 0. -1.
    8880023    1    1    2    0    0 -0.47646124620E+01  0.38843968220E+01 -0.92939520847E+03  0.11391327622E+04  0.65864270000E+03 0. -1.
    8880022    1    1    2    0    0  0.47646124620E+01 -0.38843968220E+01 -0.40130624203E+02  0.15824003945E+03  0.15294330000E+03 0.  0.
<mgrwt>
<rscale>  0 0.45732174E+03</rscale>
<asrwt>0</asrwt>
<pdfrwt beam="1">  1        2 0.17437681E+00 0.65867139E+03</pdfrwt>
<pdfrwt beam="2">  1       -2 0.25218998E-01 0.65867139E+03</pdfrwt>
<totfact> 0.29737571E+02</totfact>
</mgrwt>
</event>
<event>
 4    1  0.8468429E-007  0.9482992E+03  0.7818608E-02  0.9452565E-01
          2   -1    0    0  501    0  0.00000000000E+00  0.00000000000E+00  0.11490558481E+04  0.11490558481E+04  0.25500000000E-02 0. -1.
         -2   -1    0    0    0  501 -0.00000000000E+00 -0.00000000000E+00 -0.89592503163E+03  0.89592503163E+03  0.25500000000E-02 0.  1.
    8880023    1    1    2    0    0 -0.63059846740E+03  0.26039731118E+03  0.73164108440E+03  0.11977353921E+04  0.65864270000E+03 0.  0.
    8880022    1    1    2    0    0  0.63059846740E+03 -0.26039731118E+03 -0.47851026796E+03  0.84724548763E+03  0.15294330000E+03 0.  0.
<mgrwt>
<rscale>  0 0.87873173E+03</rscale>
<asrwt>0</asrwt>
<pdfrwt beam="1">  1        2 0.17677782E+00 0.94829921E+03</pdfrwt>
<pdfrwt beam="2">  1       -2 0.13783462E+00 0.94829921E+03</pdfrwt>
<totfact> 0.75783787E+00</totfact>
</mgrwt>
</event>
<event>
 4    1  0.8468429E-007  0.1226371E+04  0.7818608E-02  0.9131904E-01
         -2   -1    0    0    0  501 -0.00000000000E+00  0.00000000000E+00  0.72888812046E+03  0.72888812046E+03  0.25500000000E-02 0.  1.
          2   -1    0    0  501    0  0.00000000000E+00 -0.00000000000E+00 -0.20648092003E+04  0.20648092003E+04  0.25500000000E-02 0. -1.
    8880023    1    1    2    0    0 -0.18086044195E+03 -0.10185606886E+04 -0.12392810106E+04  0.17435033712E+04  0.65864270000E+03 0.  0.
    8880022    1    1    2    0    0  0.18086044195E+03  0.10185606886E+04 -0.96640069303E+02  0.10501939496E+04  0.15294330000E+03 0.  0.
<mgrwt>
<rscale>  0 0.11784800E+04</rscale>
<asrwt>0</asrwt>
<pdfrwt beam="1">  1        2 0.31766295E+00 0.12263713E+04</pdfrwt>
<pdfrwt beam="2">  1       -2 0.11213664E+00 0.12263713E+04</pdfrwt>
<totfact> 0.37587520E+00</totfact>
</mgrwt>
</event>
<event>
 4    1  0.8468429E-007  0.7050576E+03  0.7818608E-02  0.9976833E-01
         -2   -1    0    0    0  501 -0.00000000000E+00  0.00000000000E+00  0.12451111417E+04  0.12451111417E+04  0.25500000000E-02 0.  1.
          2   -1    0    0  501    0  0.00000000000E+00 -0.00000000000E+00 -0.98166128611E+03  0.98166128611E+03  0.25500000000E-02 0. -1.
    8880023    1    1    2    0    0  0.90470100484E+02  0.23475782275E+03 -0.83308802632E+03  0.10913944934E+04  0.65864270000E+03 0. -1.
    8880022    1    1    2    0    0 -0.90470100484E+02 -0.23475782275E+03  0.10965378819E+04  0.11353779344E+04  0.15294330000E+03 0.  0.
<mgrwt>
<rscale>  0 0.56677824E+03</rscale>
<asrwt>0</asrwt>
<pdfrwt beam="1">  1        2 0.15102481E+00 0.70505764E+03</pdfrwt>
<pdfrwt beam="2">  1       -2 0.19155556E+00 0.70505764E+03</pdfrwt>
<totfact> 0.40324956E+00</totfact>
</mgrwt>
</event>
<event>
 4    1  0.8468429E-007  0.7665554E+03  0.7818608E-02  0.9788423E-01
         -2   -1    0    0    0  501 -0.00000000000E+00  0.00000000000E+00  0.65345549393E+03  0.65345549393E+03  0.25500000000E-02 0.  1.
          2   -1    0    0  501    0  0.00000000000E+00 -0.00000000000E+00 -0.54151705717E+03  0.54151705718E+03  0.25500000000E-02 0. -1.
    8880023    1    1    2    0    0  0.32967588723E+03  0.21239301125E+03  0.10714653410E+03  0.77400747276E+03  0.65864270000E+03 0.  0.
    8880022    1    1    2    0    0 -0.32967588723E+03 -0.21239301125E+03  0.47919026512E+01  0.42096507836E+03  0.15294330000E+03 0.  1.
<mgrwt>
<rscale>  0 0.65987571E+03</rscale>
<asrwt>0</asrwt>
<pdfrwt beam="1">  1        2 0.83310317E-01 0.76655540E+03</pdfrwt>
<pdfrwt beam="2">  1       -2 0.10053161E+00 0.76655540E+03</pdfrwt>
<totfact> 0.46234724E+01</totfact>
</mgrwt>
</event>
<event>
 4    1  0.8468429E-007  0.9656717E+03  0.7818608E-02  0.9427916E-01
         -2   -1    0    0    0  501 -0.00000000000E+00  0.00000000000E+00  0.11608668031E+04  0.11608668031E+04  0.25500000000E-02 0.  1.
          2   -1    0    0  501    0  0.00000000000E+00 -0.00000000000E+00 -0.12710711135E+04  0.12710711135E+04  0.25500000000E-02 0. -1.
    8880023    1    1    2    0    0  0.50283892451E+03 -0.49584746295E+03 -0.92894571802E+03  0.13399485228E+04  0.65864270000E+03 0. -1.
    8880022    1    1    2    0    0 -0.50283892451E+03  0.49584746295E+03  0.81874140760E+03  0.10919893937E+04  0.15294330000E+03 0.  0.
<mgrwt>
<rscale>  0 0.89813516E+03</rscale>
<asrwt>0</asrwt>
<pdfrwt beam="1">  1        2 0.19554940E+00 0.96567173E+03</pdfrwt>
<pdfrwt beam="2">  1       -2 0.17859489E+00 0.96567173E+03</pdfrwt>
<totfact> 0.31735624E+00</totfact>
</mgrwt>
</event>
<event>
 4    1  0.8468429E-007  0.8119597E+03  0.7818608E-02  0.9685509E-01
         -2   -1    0    0    0  501 -0.00000000000E+00  0.00000000000E+00  0.29345926853E+03  0.29345926854E+03  0.25500000000E-02 0.  1.
          2   -1    0    0  501    0  0.00000000000E+00 -0.00000000000E+00 -0.25037500431E+04  0.25037500431E+04  0.25500000000E-02 0. -1.
    8880023    1    1    2    0    0  0.46788096440E+03  0.80967204567E+02 -0.21456959243E+04  0.22941860192E+04  0.65864270000E+03 0. -1.
    8880022    1    1    2    0    0 -0.46788096440E+03 -0.80967204567E+02 -0.64594850346E+02  0.50302329247E+03  0.15294330000E+03 0.  0.
<mgrwt>
<rscale>  0 0.71886148E+03</rscale>
<asrwt>0</asrwt>
<pdfrwt beam="1">  1        2 0.38519230E+00 0.81195966E+03</pdfrwt>
<pdfrwt beam="2">  1       -2 0.45147581E-01 0.81195966E+03</pdfrwt>
<totfact> 0.16712114E+01</totfact>
</mgrwt>
</event>
<event>
 4    1  0.8468429E-007  0.6939472E+03  0.7818608E-02  0.1002330E+00
          2   -1    0    0  501    0  0.00000000000E+00  0.00000000000E+00  0.38351832265E+03  0.38351832266E+03  0.25500000000E-02 0. -1.
         -2   -1    0    0    0  501 -0.00000000000E+00 -0.00000000000E+00 -0.67491156158E+03  0.67491156159E+03  0.25500000000E-02 0.  1.
    8880023    1    1    2    0    0 -0.13745919967E+03  0.16987491587E+03 -0.36175230314E+03  0.78257744263E+03  0.65864270000E+03 0.  1.
    8880022    1    1    2    0    0  0.13745919967E+03 -0.16987491587E+03  0.70359064212E+02  0.27585244162E+03  0.15294330000E+03 0.  0.
<mgrwt>
<rscale>  0 0.54640195E+03</rscale>
<asrwt>0</asrwt>
<pdfrwt beam="1">  1        2 0.59002819E-01 0.69394721E+03</pdfrwt>
<pdfrwt beam="2">  1       -2 0.10383255E+00 0.69394721E+03</pdfrwt>
<totfact> 0.63855024E+01</totfact>
</mgrwt>
</event>
<event>
 4    1  0.8468429E-007  0.7352375E+03  0.7818608E-02  0.9874043E-01
         -2   -1    0    0    0  501 -0.00000000000E+00  0.00000000000E+00  0.28767983953E+03  0.28767983954E+03  0.25500000000E-02 0.  1.
          2   -1    0    0  501    0  0.00000000000E+00 -0.00000000000E+00 -0.10453018584E+04  0.10453018584E+04  0.25500000000E-02 0. -1.
    8880023    1    1    2    0    0 -0.32377582410E+03  0.43967853478E+02 -0.48511075060E+03  0.88085560850E+03  0.65864270000E+03 0. -1.
    8880022    1    1    2    0    0  0.32377582410E+03 -0.43967853478E+02 -0.27251126826E+03  0.45212608945E+03  0.15294330000E+03 0.  1.
<mgrwt>
<rscale>  0 0.61535905E+03</rscale>
<asrwt>0</asrwt>
<pdfrwt beam="1">  1        2 0.16081567E+00 0.73523749E+03</pdfrwt>
<pdfrwt beam="2">  1       -2 0.44258437E-01 0.73523749E+03</pdfrwt>
<totfact> 0.11573808E+02</totfact>
</mgrwt>
</event>
<event>
 4    1  0.8468429E-007  0.6982800E+03  0.7818608E-02  0.1000441E+00
         -2   -1    0    0    0  501 -0.00000000000E+00  0.00000000000E+00  0.10071526897E+03  0.10071526900E+03  0.25500000000E-02 0.  1.
          2   -1    0    0  501    0  0.00000000000E+00 -0.00000000000E+00 -0.23737497557E+04  0.23737497557E+04  0.25500000000E-02 0. -1.
    8880023    1    1    2    0    0 -0.21704893045E+03  0.81697823848E+02 -0.16923102815E+04  0.18307127212E+04  0.65864270000E+03 0.  0.
    8880022    1    1    2    0    0  0.21704893045E+03 -0.81697823848E+02 -0.58072420527E+03  0.64375230348E+03  0.15294330000E+03 0. -1.
<mgrwt>
<rscale>  0 0.55457181E+03</rscale>
<asrwt>0</asrwt>
<pdfrwt beam="1">  1        2 0.36519223E+00 0.69828001E+03</pdfrwt>
<pdfrwt beam="2">  1       -2 0.15494659E-01 0.69828001E+03</pdfrwt>
<totfact> 0.14192788E+02</totfact>
</mgrwt>
</event>
<event>
 4    1  0.8540876E-007  0.1031341E+04  0.7818608E-02  0.9341655E-01
         -2   -1    0    0    0  501 -0.00000000000E+00  0.00000000000E+00  0.14417582459E+04  0.14417582459E+04  0.25500000000E-02 0.  1.
          2   -1    0    0  501    0  0.00000000000E+00 -0.00000000000E+00 -0.23299780267E+04  0.23299780267E+04  0.25500000000E-02 0. -1.
    8880023    1    1    2    0    0 -0.70492781471E+03 -0.36459792545E+03 -0.20858509562E+04  0.23268947739E+04  0.65864270000E+03 0.  0.
    8880022    1    1    2    0    0  0.70492781471E+03  0.36459792545E+03  0.11976311754E+04  0.14448414987E+04  0.15294330000E+03 0.  0.
<mgrwt>
<rscale>  0 0.97036802E+03</rscale>
<asrwt>0</asrwt>
<pdfrwt beam="1">  1        2 0.35845816E+00 0.10313414E+04</pdfrwt>
<pdfrwt beam="2">  1       -2 0.22180896E+00 0.10313414E+04</pdfrwt>
<totfact> 0.41957269E-01</totfact>
</mgrwt>
</event>
<event>
 4    1  0.8468429E-007  0.7293801E+03  0.7818608E-02  0.9892037E-01
         -2   -1    0    0    0  501 -0.00000000000E+00  0.00000000000E+00  0.11628208548E+04  0.11628208548E+04  0.25500000000E-02 0.  1.
          2   -1    0    0  501    0  0.00000000000E+00 -0.00000000000E+00 -0.66829991127E+03  0.66829991128E+03  0.25500000000E-02 0. -1.
    8880023    1    1    2    0    0  0.15178913084E+03  0.27412633063E+03 -0.42746026200E+03  0.84540976292E+03  0.65864270000E+03 0. -1.
    8880022    1    1    2    0    0 -0.15178913084E+03 -0.27412633063E+03  0.92198120552E+03  0.98571100315E+03  0.15294330000E+03 0.  0.
<mgrwt>
<rscale>  0 0.60648743E+03</rscale>
<asrwt>0</asrwt>
<pdfrwt beam="1">  1        2 0.10281537E+00 0.72938014E+03</pdfrwt>
<pdfrwt beam="2">  1       -2 0.17889551E+00 0.72938014E+03</pdfrwt>
<totfact> 0.81779071E+00</totfact>
</mgrwt>
</event>
<event>
 4    1  0.8468429E-007  0.8454194E+03  0.7818608E-02  0.9620045E-01
          2   -1    0    0  501    0  0.00000000000E+00  0.00000000000E+00  0.12581508106E+04  0.12581508106E+04  0.25500000000E-02 0. -1.
         -2   -1    0    0    0  501 -0.00000000000E+00 -0.00000000000E+00 -0.50013995870E+03  0.50013995871E+03  0.25500000000E-02 0.  1.
    8880023    1    1    2    0    0  0.10691277827E+03 -0.51912752753E+03  0.85020464966E+03  0.11989920286E+04  0.65864270000E+03 0. -1.
    8880022    1    1    2    0    0 -0.10691277827E+03  0.51912752753E+03 -0.92193797793E+02  0.55929874071E+03  0.15294330000E+03 0.  1.
<mgrwt>
<rscale>  0 0.75983561E+03</rscale>
<asrwt>0</asrwt>
<pdfrwt beam="1">  1        2 0.19356166E+00 0.84541939E+03</pdfrwt>
<pdfrwt beam="2">  1       -2 0.76944609E-01 0.84541939E+03</pdfrwt>
<totfact> 0.26644075E+01</totfact>
</mgrwt>
</event>
<event>
 4    1  0.8468429E-007  0.7895528E+03  0.7818608E-02  0.9733858E-01
          2   -1    0    0  501    0  0.00000000000E+00  0.00000000000E+00  0.49071684399E+04  0.49071684399E+04  0.25500000000E-02 0. -1.
         -2   -1    0    0    0  501 -0.00000000000E+00 -0.00000000000E+00 -0.10205805607E+03  0.10205805611E+03  0.25500000000E-02 0.  1.
    8880023    1    1    2    0    0  0.94401474341E+02  0.42505504795E+03  0.40342201398E+04  0.41107573237E+04  0.65864270000E+03 0. -1.
    8880022    1    1    2    0    0 -0.94401474341E+02 -0.42505504795E+03  0.77089024407E+03  0.89846917230E+03  0.15294330000E+03 0.  0.
<mgrwt>
<rscale>  0 0.69036217E+03</rscale>
<asrwt>0</asrwt>
<pdfrwt beam="1">  1        2 0.75494881E+00 0.78955281E+03</pdfrwt>
<pdfrwt beam="2">  1       -2 0.15701243E-01 0.78955281E+03</pdfrwt>
<totfact> 0.16677305E+00</totfact>
</mgrwt>
</event>
<event>
 4    1  0.8468429E-007  0.6608589E+03  0.7818608E-02  0.1023293E+00
          2   -1    0    0  501    0  0.00000000000E+00  0.00000000000E+00  0.81069918745E+03  0.81069918746E+03  0.25500000000E-02 0. -1.
         -2   -1    0    0    0  501 -0.00000000000E+00 -0.00000000000E+00 -0.37160762105E+03  0.37160762106E+03  0.25500000000E-02 0.  1.
    8880023    1    1    2    0    0 -0.53415993382E+01 -0.53812510793E+02  0.64278838551E+03  0.92190641272E+03  0.65864270000E+03 0. -1.
    8880022    1    1    2    0    0  0.53415993382E+01  0.53812510793E+02 -0.20369681911E+03  0.26040039580E+03  0.15294330000E+03 0.  0.
<mgrwt>
<rscale>  0 0.46516711E+03</rscale>
<asrwt>0</asrwt>
<pdfrwt beam="1">  1        2 0.12472295E+00 0.66085893E+03</pdfrwt>
<pdfrwt beam="2">  1       -2 0.57170403E-01 0.66085893E+03</pdfrwt>
<totfact> 0.98860541E+01</totfact>
</mgrwt>
</event>
<event>
 4    1  0.8468429E-007  0.7404041E+03  0.7818608E-02  0.9858772E-01
         -2   -1    0    0    0  501 -0.00000000000E+00  0.00000000000E+00  0.24097506142E+03  0.24097506143E+03  0.25500000000E-02 0.  1.
          2   -1    0    0  501    0  0.00000000000E+00 -0.00000000000E+00 -0.33032982516E+04  0.33032982516E+04  0.25500000000E-02 0. -1.
    8880023    1    1    2    0    0 -0.52002870099E+02 -0.33419114921E+03 -0.30847960488E+04  0.31724067979E+04  0.65864270000E+03 0. -1.
    8880022    1    1    2    0    0  0.52002870099E+02  0.33419114921E+03  0.22472858547E+02  0.37186651516E+03  0.15294330000E+03 0.  0.
<mgrwt>
<rscale>  0 0.62301680E+03</rscale>
<asrwt>0</asrwt>
<pdfrwt beam="1">  1        2 0.50819970E+00 0.74040410E+03</pdfrwt>
<pdfrwt beam="2">  1       -2 0.37073089E-01 0.74040410E+03</pdfrwt>
<totfact> 0.81773121E+00</totfact>
</mgrwt>
</event>
<event>
 4    1  0.8468429E-007  0.9497244E+03  0.7818608E-02  0.9450511E-01
         -2   -1    0    0    0  501 -0.00000000000E+00  0.00000000000E+00  0.85203981375E+03  0.85203981375E+03  0.25500000000E-02 0.  1.
          2   -1    0    0  501    0  0.00000000000E+00 -0.00000000000E+00 -0.16103610114E+04  0.16103610114E+04  0.25500000000E-02 0. -1.
    8880023    1    1    2    0    0 -0.63152219726E+03 -0.26333613339E+03 -0.12761678369E+04  0.15907799216E+04  0.65864270000E+03 0.  0.
    8880022    1    1    2    0    0  0.63152219726E+03  0.26333613339E+03  0.51784663922E+03  0.87162090358E+03  0.15294330000E+03 0.  0.
<mgrwt>
<rscale>  0 0.88032903E+03</rscale>
<asrwt>0</asrwt>
<pdfrwt beam="1">  1        2 0.24774785E+00 0.94972439E+03</pdfrwt>
<pdfrwt beam="2">  1       -2 0.13108305E+00 0.94972439E+03</pdfrwt>
<totfact> 0.46801268E+00</totfact>
</mgrwt>
</event>
<event>
 4    1  0.8468429E-007  0.9889381E+03  0.7818608E-02  0.9396175E-01
          2   -1    0    0  501    0  0.00000000000E+00  0.00000000000E+00  0.25411305460E+04  0.25411305460E+04  0.25500000000E-02 0. -1.
         -2   -1    0    0    0  501 -0.00000000000E+00 -0.00000000000E+00 -0.43378457467E+03  0.43378457468E+03  0.25500000000E-02 0.  1.
    8880023    1    1    2    0    0 -0.73246515979E+03 -0.87654024571E+02  0.19767154311E+04  0.22102946727E+04  0.65864270000E+03 0.  0.
    8880022    1    1    2    0    0  0.73246515979E+03  0.87654024571E+02  0.13063054014E+03  0.76462044791E+03  0.15294330000E+03 0.  0.
<mgrwt>
<rscale>  0 0.92391122E+03</rscale>
<asrwt>0</asrwt>
<pdfrwt beam="1">  1        2 0.39094317E+00 0.98893814E+03</pdfrwt>
<pdfrwt beam="2">  1       -2 0.66736087E-01 0.98893814E+03</pdfrwt>
<totfact> 0.68869837E+00</totfact>
</mgrwt>
</event>
<event>
 4    1  0.8468429E-007  0.7441989E+03  0.7818608E-02  0.9847880E-01
          2   -1    0    0  501    0  0.00000000000E+00  0.00000000000E+00  0.15994165130E+04  0.15994165130E+04  0.25500000000E-02 0. -1.
         -2   -1    0    0    0  501 -0.00000000000E+00 -0.00000000000E+00 -0.24249850786E+03  0.24249850787E+03  0.25500000000E-02 0.  1.
    8880023    1    1    2    0    0  0.34482765309E+03  0.33402345756E+02  0.12389293299E+04  0.14452605017E+04  0.65864270000E+03 0. -1.
    8880022    1    1    2    0    0 -0.34482765309E+03 -0.33402345756E+02  0.11798867517E+03  0.39665451910E+03  0.15294330000E+03 0.  1.
<mgrwt>
<rscale>  0 0.62855100E+03</rscale>
<asrwt>0</asrwt>
<pdfrwt beam="1">  1        2 0.24606409E+00 0.74419892E+03</pdfrwt>
<pdfrwt beam="2">  1       -2 0.37307461E-01 0.74419892E+03</pdfrwt>
<totfact> 0.77234758E+01</totfact>
</mgrwt>
</event>
<event>
 4    1  0.8468429E-007  0.1265712E+04  0.7818608E-02  0.9095750E-01
         -2   -1    0    0    0  501 -0.00000000000E+00  0.00000000000E+00  0.70802172887E+03  0.70802172887E+03  0.25500000000E-02 0.  1.
          2   -1    0    0  501    0  0.00000000000E+00 -0.00000000000E+00 -0.28281255090E+04  0.28281255090E+04  0.25500000000E-02 0. -1.
    8880023    1    1    2    0    0  0.21719343652E+03  0.10587934283E+04 -0.20908932972E+04  0.24441484200E+04  0.65864270000E+03 0. -1.
    8880022    1    1    2    0    0 -0.21719343652E+03 -0.10587934283E+04 -0.29210482930E+02  0.10919988178E+04  0.15294330000E+03 0.  0.
<mgrwt>
<rscale>  0 0.12197416E+04</rscale>
<asrwt>0</asrwt>
<pdfrwt beam="1">  1        2 0.43509623E+00 0.12657119E+04</pdfrwt>
<pdfrwt beam="2">  1       -2 0.10892642E+00 0.12657119E+04</pdfrwt>
<totfact> 0.14636099E+00</totfact>
</mgrwt>
</event>
<event>
 4    1  0.8468429E-007  0.8347945E+03  0.7818608E-02  0.9640075E-01
         -2   -1    0    0    0  501 -0.00000000000E+00  0.00000000000E+00  0.95448343446E+03  0.95448343446E+03  0.25500000000E-02 0.  1.
          2   -1    0    0  501    0  0.00000000000E+00 -0.00000000000E+00 -0.19514420389E+04  0.19514420389E+04  0.25500000000E-02 0. -1.
    8880023    1    1    2    0    0  0.51119772163E+03 -0.41815025260E+02 -0.17750355170E+04  0.19615384013E+04  0.65864270000E+03 0. -1.
    8880022    1    1    2    0    0 -0.51119772163E+03  0.41815025260E+02  0.77807691257E+03  0.94438707204E+03  0.15294330000E+03 0.  0.
<mgrwt>
<rscale>  0 0.74699602E+03</rscale>
<asrwt>0</asrwt>
<pdfrwt beam="1">  1        2 0.30022185E+00 0.83479447E+03</pdfrwt>
<pdfrwt beam="2">  1       -2 0.14684361E+00 0.83479447E+03</pdfrwt>
<totfact> 0.23022623E+00</totfact>
</mgrwt>
</event>
<event>
 4    1  0.8468429E-007  0.6670326E+03  0.7818608E-02  0.1017886E+00
         -2   -1    0    0    0  501 -0.00000000000E+00  0.00000000000E+00  0.10949745287E+04  0.10949745288E+04  0.25500000000E-02 0.  1.
          2   -1    0    0  501    0  0.00000000000E+00 -0.00000000000E+00 -0.52807503514E+03  0.52807503515E+03  0.25500000000E-02 0. -1.
    8880023    1    1    2    0    0 -0.27072006905E+02 -0.10192824698E+03 -0.30365159429E+03  0.73289614412E+03  0.65864270000E+03 0. -1.
    8880022    1    1    2    0    0  0.27072006905E+02  0.10192824698E+03  0.87055108790E+03  0.89015341978E+03  0.15294330000E+03 0.  0.
<mgrwt>
<rscale>  0 0.48457339E+03</rscale>
<asrwt>0</asrwt>
<pdfrwt beam="1">  1        2 0.81242313E-01 0.66703258E+03</pdfrwt>
<pdfrwt beam="2">  1       -2 0.16845762E+00 0.66703258E+03</pdfrwt>
<totfact> 0.12935314E+01</totfact>
</mgrwt>
</event>
<event>
 4    1  0.8468429E-007  0.9591606E+03  0.7818608E-02  0.9437055E-01
          2   -1    0    0  501    0  0.00000000000E+00  0.00000000000E+00  0.12094024801E+04  0.12094024801E+04  0.25500000000E-02 0. -1.
         -2   -1    0    0    0  501 -0.00000000000E+00 -0.00000000000E+00 -0.73320362917E+03  0.73320362917E+03  0.25500000000E-02 0.  1.
    8880023    1    1    2    0    0 -0.30833156014E+03 -0.62538835282E+03  0.70789825934E+03  0.11921028037E+04  0.65864270000E+03 0. -1.
    8880022    1    1    2    0    0  0.30833156014E+03  0.62538835282E+03 -0.23169940838E+03  0.75050330557E+03  0.15294330000E+03 0.  0.
<mgrwt>
<rscale>  0 0.89087969E+03</rscale>
<asrwt>0</asrwt>
<pdfrwt beam="1">  1        2 0.18606192E+00 0.95916065E+03</pdfrwt>
<pdfrwt beam="2">  1       -2 0.11280056E+00 0.95916065E+03</pdfrwt>
<totfact> 0.11522031E+01</totfact>
</mgrwt>
</event>
<event>
 4    1  0.8468429E-007  0.8022554E+03  0.7818608E-02  0.9705940E-01
         -2   -1    0    0    0  501 -0.00000000000E+00  0.00000000000E+00  0.52384503259E+03  0.52384503260E+03  0.25500000000E-02 0.  1.
          2   -1    0    0  501    0  0.00000000000E+00 -0.00000000000E+00 -0.92063284260E+03  0.92063284261E+03  0.25500000000E-02 0. -1.
    8880023    1    1    2    0    0 -0.35044106580E+03 -0.29494847658E+03 -0.50716555651E+03  0.94912098934E+03  0.65864270000E+03 0.  0.
    8880022    1    1    2    0    0  0.35044106580E+03  0.29494847658E+03  0.11037774650E+03  0.49535688586E+03  0.15294330000E+03 0.  0.
<mgrwt>
<rscale>  0 0.70664199E+03</rscale>
<asrwt>0</asrwt>
<pdfrwt beam="1">  1        2 0.14163582E+00 0.80225541E+03</pdfrwt>
<pdfrwt beam="2">  1       -2 0.80591544E-01 0.80225541E+03</pdfrwt>
<totfact> 0.39013026E+01</totfact>
</mgrwt>
</event>
<event>
 4    1  0.8468429E-007  0.6712998E+03  0.7818608E-02  0.1014748E+00
          2   -1    0    0  501    0  0.00000000000E+00  0.00000000000E+00  0.16030254022E+03  0.16030254024E+03  0.25500000000E-02 0. -1.
         -2   -1    0    0    0  501 -0.00000000000E+00 -0.00000000000E+00 -0.29347278907E+04  0.29347278907E+04  0.25500000000E-02 0.  1.
    8880023    1    1    2    0    0  0.57886391333E+02 -0.11611376139E+03 -0.56756537995E+03  0.87907559781E+03  0.65864270000E+03 0. -1.
    8880022    1    1    2    0    0 -0.57886391333E+02  0.11611376139E+03 -0.22068599706E+04  0.22159548332E+04  0.15294330000E+03 0.  0.
<mgrwt>
<rscale>  0 0.49630570E+03</rscale>
<asrwt>0</asrwt>
<pdfrwt beam="1">  1        2 0.24661931E-01 0.67129982E+03</pdfrwt>
<pdfrwt beam="2">  1       -2 0.45149656E+00 0.67129982E+03</pdfrwt>
<totfact> 0.81446487E-01</totfact>
</mgrwt>
</event>
<event>
 4    1  0.8468429E-007  0.7739232E+03  0.7818608E-02  0.9770310E-01
         -2   -1    0    0    0  501 -0.00000000000E+00  0.00000000000E+00  0.66101089883E+03  0.66101089883E+03  0.25500000000E-02 0.  1.
          2   -1    0    0  501    0  0.00000000000E+00 -0.00000000000E+00 -0.10981436398E+04  0.10981436398E+04  0.25500000000E-02 0. -1.
    8880023    1    1    2    0    0 -0.19259478098E+03 -0.35784646668E+03 -0.85728758600E+03  0.11549454770E+04  0.65864270000E+03 0. -1.
    8880022    1    1    2    0    0  0.19259478098E+03  0.35784646668E+03  0.42015484504E+03  0.60420906167E+03  0.15294330000E+03 0.  0.
<mgrwt>
<rscale>  0 0.66980500E+03</rscale>
<asrwt>0</asrwt>
<pdfrwt beam="1">  1        2 0.16894518E+00 0.77392315E+03</pdfrwt>
<pdfrwt beam="2">  1       -2 0.10169398E+00 0.77392315E+03</pdfrwt>
<totfact> 0.17598928E+01</totfact>
</mgrwt>
</event>
<event>
 4    1  0.8468429E-007  0.7222696E+03  0.7818608E-02  0.9914980E-01
          2   -1    0    0  501    0  0.00000000000E+00  0.00000000000E+00  0.22227051265E+04  0.22227051266E+04  0.25500000000E-02 0. -1.
         -2   -1    0    0    0  501 -0.00000000000E+00 -0.00000000000E+00 -0.19868941250E+03  0.19868941252E+03  0.25500000000E-02 0.  1.
    8880023    1    1    2    0    0  0.12283400779E+03 -0.26976833404E+03  0.19503707699E+04  0.20798123698E+04  0.65864270000E+03 0.  0.
    8880022    1    1    2    0    0 -0.12283400779E+03  0.26976833404E+03  0.73644944188E+02  0.34158216924E+03  0.15294330000E+03 0.  0.
<mgrwt>
<rscale>  0 0.59540755E+03</rscale>
<asrwt>0</asrwt>
<pdfrwt beam="1">  1        2 0.34195463E+00 0.72226959E+03</pdfrwt>
<pdfrwt beam="2">  1       -2 0.30567602E-01 0.72226959E+03</pdfrwt>
<totfact> 0.51507113E+01</totfact>
</mgrwt>
</event>
<event>
 4    1  0.8468429E-007  0.8885935E+03  0.7818608E-02  0.9544596E-01
         -2   -1    0    0    0  501 -0.00000000000E+00  0.00000000000E+00  0.38947829109E+03  0.38947829110E+03  0.25500000000E-02 0.  1.
          2   -1    0    0  501    0  0.00000000000E+00 -0.00000000000E+00 -0.19151848901E+04  0.19151848901E+04  0.25500000000E-02 0. -1.
    8880023    1    1    2    0    0  0.23563863095E+03  0.54796229513E+03 -0.14269664776E+04  0.16810210515E+04  0.65864270000E+03 0. -1.
    8880022    1    1    2    0    0 -0.23563863095E+03 -0.54796229513E+03 -0.98740121420E+02  0.62364212965E+03  0.15294330000E+03 0.  0.
<mgrwt>
<rscale>  0 0.81074265E+03</rscale>
<asrwt>0</asrwt>
<pdfrwt beam="1">  1        2 0.29464382E+00 0.88859352E+03</pdfrwt>
<pdfrwt beam="2">  1       -2 0.59919738E-01 0.88859352E+03</pdfrwt>
<totfact> 0.19624827E+01</totfact>
</mgrwt>
</event>
<event>
 4    1  0.8468429E-007  0.1074718E+04  0.7818608E-02  0.9289740E-01
         -2   -1    0    0    0  501 -0.00000000000E+00  0.00000000000E+00  0.29581322726E+04  0.29581322726E+04  0.25500000000E-02 0.  1.
          2   -1    0    0  501    0  0.00000000000E+00 -0.00000000000E+00 -0.56542981960E+03  0.56542981960E+03  0.25500000000E-02 0. -1.
    8880023    1    1    2    0    0 -0.84248810670E+03  0.10687625918E+03  0.10655832591E+03  0.10799877906E+04  0.65864270000E+03 0. -1.
    8880022    1    1    2    0    0  0.84248810670E+03 -0.10687625918E+03  0.22861441271E+04  0.24435743016E+04  0.15294330000E+03 0.  0.
<mgrwt>
<rscale>  0 0.10173288E+04</rscale>
<asrwt>0</asrwt>
<pdfrwt beam="1">  1        2 0.86989204E-01 0.10747181E+04</pdfrwt>
<pdfrwt beam="2">  1       -2 0.45509727E+00 0.10747181E+04</pdfrwt>
<totfact> 0.17251819E-01</totfact>
</mgrwt>
</event>
<event>
 4    1  0.8468429E-007  0.7294079E+03  0.7818608E-02  0.9891950E-01
         -2   -1    0    0    0  501 -0.00000000000E+00  0.00000000000E+00  0.88165726973E+03  0.88165726973E+03  0.25500000000E-02 0.  1.
          2   -1    0    0  501    0  0.00000000000E+00 -0.00000000000E+00 -0.74942096391E+03  0.74942096391E+03  0.25500000000E-02 0. -1.
    8880023    1    1    2    0    0 -0.23100529624E+03 -0.21180722914E+03 -0.51703989115E+03  0.89407281835E+03  0.65864270000E+03 0. -1.
    8880022    1    1    2    0    0  0.23100529624E+03  0.21180722914E+03  0.64927619697E+03  0.73700541529E+03  0.15294330000E+03 0.  0.
<mgrwt>
<rscale>  0 0.60653007E+03</rscale>
<asrwt>0</asrwt>
<pdfrwt beam="1">  1        2 0.11529553E+00 0.72940795E+03</pdfrwt>
<pdfrwt beam="2">  1       -2 0.13563958E+00 0.72940795E+03</pdfrwt>
<totfact> 0.14879358E+01</totfact>
</mgrwt>
</event>
<event>
 4    1  0.8468429E-007  0.7579516E+03  0.7818608E-02  0.9810440E-01
         -2   -1    0    0    0  501 -0.00000000000E+00  0.00000000000E+00  0.55120694785E+03  0.55120694785E+03  0.25500000000E-02 0.  1.
          2   -1    0    0  501    0  0.00000000000E+00 -0.00000000000E+00 -0.11929565239E+04  0.11929565239E+04  0.25500000000E-02 0. -1.
    8880023    1    1    2    0    0 -0.86748897594E+01 -0.37497354308E+03 -0.96418903196E+03  0.12264383830E+04  0.65864270000E+03 0.  0.
    8880022    1    1    2    0    0  0.86748897594E+01  0.37497354308E+03  0.32243945594E+03  0.51772508871E+03  0.15294330000E+03 0.  1.
<mgrwt>
<rscale>  0 0.64805286E+03</rscale>
<asrwt>0</asrwt>
<pdfrwt beam="1">  1        2 0.18353177E+00 0.75795159E+03</pdfrwt>
<pdfrwt beam="2">  1       -2 0.84801069E-01 0.75795159E+03</pdfrwt>
<totfact> 0.23584674E+01</totfact>
</mgrwt>
</event>
<event>
 4    1  0.8468429E-007  0.7318249E+03  0.7818608E-02  0.9884434E-01
         -2   -1    0    0    0  501 -0.00000000000E+00  0.00000000000E+00  0.62498627900E+03  0.62498627900E+03  0.25500000000E-02 0.  1.
          2   -1    0    0  501    0  0.00000000000E+00 -0.00000000000E+00 -0.76861190799E+03  0.76861190799E+03  0.25500000000E-02 0. -1.
    8880023    1    1    2    0    0 -0.31675830830E+03  0.37703983249E+02 -0.50401498130E+03  0.88859367760E+03  0.65864270000E+03 0. -1.
    8880022    1    1    2    0    0  0.31675830830E+03 -0.37703983249E+02  0.36038935231E+03  0.50500450939E+03  0.15294330000E+03 0.  0.
<mgrwt>
<rscale>  0 0.61021632E+03</rscale>
<asrwt>0</asrwt>
<pdfrwt beam="1">  1        2 0.11824798E+00 0.73182486E+03</pdfrwt>
<pdfrwt beam="2">  1       -2 0.96151736E-01 0.73182486E+03</pdfrwt>
<totfact> 0.33414195E+01</totfact>
</mgrwt>
</event>
<event>
 4    1  0.9918225E-007  0.8456433E+03  0.7818608E-02  0.9619630E-01
          2   -1    0    0  501    0  0.00000000000E+00  0.00000000000E+00  0.14663477231E+04  0.14663477231E+04  0.25500000000E-02 0. -1.
         -2   -1    0    0    0  501 -0.00000000000E+00 -0.00000000000E+00 -0.21406012480E+04  0.21406012480E+04  0.25500000000E-02 0.  1.
    8880023    1    1    2    0    0  0.16093319750E+03 -0.50537408444E+03  0.13034066867E+04  0.15536993456E+04  0.65864270000E+03 0.  0.
    8880022    1    1    2    0    0 -0.16093319750E+03  0.50537408444E+03 -0.19776602116E+04  0.20532496255E+04  0.15294330000E+03 0.  0.
<mgrwt>
<rscale>  0 0.76010473E+03</rscale>
<asrwt>0</asrwt>
<pdfrwt beam="1">  1        2 0.22559196E+00 0.84564334E+03</pdfrwt>
<pdfrwt beam="2">  1       -2 0.32932327E+00 0.84564334E+03</pdfrwt>
<totfact> 0.28898845E-01</totfact>
</mgrwt>
</event>
<event>
 4    1  0.8468429E-007  0.1140138E+04  0.7818608E-02  0.9217631E-01
         -2   -1    0    0    0  501 -0.00000000000E+00  0.00000000000E+00  0.14045840133E+04  0.14045840133E+04  0.25500000000E-02 0.  1.
          2   -1    0    0  501    0  0.00000000000E+00 -0.00000000000E+00 -0.83891530102E+03  0.83891530102E+03  0.25500000000E-02 0. -1.
    8880023    1    1    2    0    0  0.78466376335E+03  0.50040650391E+03 -0.69260555549E+01  0.11401587903E+04  0.65864270000E+03 0.  0.
    8880022    1    1    2    0    0 -0.78466376335E+03 -0.50040650391E+03  0.57259476779E+03  0.11033405239E+04  0.15294330000E+03 0. -1.
<mgrwt>
<rscale>  0 0.10873290E+04</rscale>
<asrwt>0</asrwt>
<pdfrwt beam="1">  1        2 0.12906389E+00 0.11401378E+04</pdfrwt>
<pdfrwt beam="2">  1       -2 0.21608985E+00 0.11401378E+04</pdfrwt>
<totfact> 0.33141165E+00</totfact>
</mgrwt>
</event>
<event>
 4    1  0.8468429E-007  0.7695681E+03  0.7818608E-02  0.9780938E-01
         -2   -1    0    0    0  501 -0.00000000000E+00  0.00000000000E+00  0.51255291236E+03  0.51255291236E+03  0.25500000000E-02 0.  1.
          2   -1    0    0  501    0  0.00000000000E+00 -0.00000000000E+00 -0.17235630060E+04  0.17235630060E+04  0.25500000000E-02 0. -1.
    8880023    1    1    2    0    0 -0.17728347111E+03 -0.35636408545E+03 -0.15239276762E+04  0.17072171974E+04  0.65864270000E+03 0. -1.
    8880022    1    1    2    0    0  0.17728347111E+03  0.35636408545E+03  0.31291758258E+03  0.52889872095E+03  0.15294330000E+03 0.  0.
<mgrwt>
<rscale>  0 0.66395618E+03</rscale>
<asrwt>0</asrwt>
<pdfrwt beam="1">  1        2 0.26516354E+00 0.76956806E+03</pdfrwt>
<pdfrwt beam="2">  1       -2 0.78854295E-01 0.76956806E+03</pdfrwt>
<totfact> 0.13940361E+01</totfact>
</mgrwt>
</event>
<event>
 4    1  0.8468429E-007  0.8021156E+03  0.7818608E-02  0.9706240E-01
          2   -1    0    0  501    0  0.00000000000E+00  0.00000000000E+00  0.24187204240E+04  0.24187204240E+04  0.25500000000E-02 0. -1.
         -2   -1    0    0    0  501 -0.00000000000E+00 -0.00000000000E+00 -0.57969509914E+03  0.57969509914E+03  0.25500000000E-02 0.  1.
    8880023    1    1    2    0    0 -0.31785994437E+03 -0.32946067978E+03  0.22346989190E+04  0.23742933156E+04  0.65864270000E+03 0. -1.
    8880022    1    1    2    0    0  0.31785994437E+03  0.32946067978E+03 -0.39567359416E+03  0.62412220749E+03  0.15294330000E+03 0.  0.
<mgrwt>
<rscale>  0 0.70646468E+03</rscale>
<asrwt>0</asrwt>
<pdfrwt beam="1">  1        2 0.37211083E+00 0.80211563E+03</pdfrwt>
<pdfrwt beam="2">  1       -2 0.89183863E-01 0.80211563E+03</pdfrwt>
<totfact> 0.43453533E+00</totfact>
</mgrwt>
</event>
<event>
 4    1  0.8468429E-007  0.6708449E+03  0.7818608E-02  0.1015064E+00
         -2   -1    0    0    0  501 -0.00000000000E+00  0.00000000000E+00  0.21901345714E+03  0.21901345715E+03  0.25500000000E-02 0.  1.
          2   -1    0    0  501    0  0.00000000000E+00 -0.00000000000E+00 -0.98278765681E+03  0.98278765681E+03  0.25500000000E-02 0. -1.
    8880023    1    1    2    0    0 -0.28611138828E+02  0.12411303475E+03 -0.74400775446E+03  0.10017885943E+04  0.65864270000E+03 0. -1.
    8880022    1    1    2    0    0  0.28611138828E+02 -0.12411303475E+03 -0.19766445210E+02  0.20001251969E+03  0.15294330000E+03 0.  0.
<mgrwt>
<rscale>  0 0.49510587E+03</rscale>
<asrwt>0</asrwt>
<pdfrwt beam="1">  1        2 0.15119810E+00 0.67084488E+03</pdfrwt>
<pdfrwt beam="2">  1       -2 0.33694378E-01 0.67084488E+03</pdfrwt>
<totfact> 0.21592678E+02</totfact>
</mgrwt>
</event>
<event>
 4    1  0.8468429E-007  0.9627502E+03  0.7818608E-02  0.9432002E-01
         -2   -1    0    0    0  501 -0.00000000000E+00  0.00000000000E+00  0.64240118781E+03  0.64240118781E+03  0.25500000000E-02 0.  1.
          2   -1    0    0  501    0  0.00000000000E+00 -0.00000000000E+00 -0.19802306116E+04  0.19802306116E+04  0.25500000000E-02 0. -1.
    8880023    1    1    2    0    0  0.33674579201E+03 -0.61618175506E+03 -0.15918991818E+04  0.18603846094E+04  0.65864270000E+03 0. -1.
    8880022    1    1    2    0    0 -0.33674579201E+03  0.61618175506E+03  0.25406975800E+03  0.76224718999E+03  0.15294330000E+03 0.  0.
<mgrwt>
<rscale>  0 0.89488200E+03</rscale>
<asrwt>0</asrwt>
<pdfrwt beam="1">  1        2 0.30465086E+00 0.96275017E+03</pdfrwt>
<pdfrwt beam="2">  1       -2 0.98830953E-01 0.96275017E+03</pdfrwt>
<totfact> 0.58484450E+00</totfact>
</mgrwt>
</event>
<event>
 4    1  0.8468429E-007  0.7710863E+03  0.7818608E-02  0.9777208E-01
          2   -1    0    0  501    0  0.00000000000E+00  0.00000000000E+00  0.21919386098E+04  0.21919386098E+04  0.25500000000E-02 0. -1.
         -2   -1    0    0    0  501 -0.00000000000E+00 -0.00000000000E+00 -0.55743326051E+03  0.55743326052E+03  0.25500000000E-02 0.  1.
    8880023    1    1    2    0    0 -0.51996330446E+02  0.39756796893E+03  0.20264442624E+04  0.21681905966E+04  0.65864270000E+03 0. -1.
    8880022    1    1    2    0    0  0.51996330446E+02 -0.39756796893E+03 -0.39193891311E+03  0.58118127372E+03  0.15294330000E+03 0.  0.
<mgrwt>
<rscale>  0 0.66600172E+03</rscale>
<asrwt>0</asrwt>
<pdfrwt beam="1">  1        2 0.33722133E+00 0.77108632E+03</pdfrwt>
<pdfrwt beam="2">  1       -2 0.85758963E-01 0.77108632E+03</pdfrwt>
<totfact> 0.63902943E+00</totfact>
</mgrwt>
</event>
<event>
 4    1  0.8468429E-007  0.8858348E+03  0.7818608E-02  0.9549165E-01
         -2   -1    0    0    0  501 -0.00000000000E+00  0.00000000000E+00  0.37662059772E+03  0.37662059772E+03  0.25500000000E-02 0.  1.
          2   -1    0    0  501    0  0.00000000000E+00 -0.00000000000E+00 -0.30610623321E+04  0.30610623321E+04  0.25500000000E-02 0. -1.
    8880023    1    1    2    0    0  0.73880918354E+02 -0.58773688678E+03 -0.26834630360E+04  0.28258940373E+04  0.65864270000E+03 0.  0.
    8880022    1    1    2    0    0 -0.73880918354E+02  0.58773688678E+03 -0.97869840202E+00  0.61178889255E+03  0.15294330000E+03 0.  0.
<mgrwt>
<rscale>  0 0.80754141E+03</rscale>
<asrwt>0</asrwt>
<pdfrwt beam="1">  1        2 0.47093265E+00 0.88583477E+03</pdfrwt>
<pdfrwt beam="2">  1       -2 0.57941632E-01 0.88583477E+03</pdfrwt>
<totfact> 0.46308729E+00</totfact>
</mgrwt>
</event>
<event>
 4    1  0.8468429E-007  0.7869607E+03  0.7818608E-02  0.9739733E-01
         -2   -1    0    0    0  501 -0.00000000000E+00  0.00000000000E+00  0.83330584624E+03  0.83330584624E+03  0.25500000000E-02 0.  1.
          2   -1    0    0  501    0  0.00000000000E+00 -0.00000000000E+00 -0.59020800895E+03  0.59020800895E+03  0.25500000000E-02 0. -1.
    8880023    1    1    2    0    0 -0.42929733760E+03 -0.34651894945E+02 -0.17263877088E+03  0.80567444379E+03  0.65864270000E+03 0. -1.
    8880022    1    1    2    0    0  0.42929733760E+03  0.34651894945E+02  0.41573660817E+03  0.61783941140E+03  0.15294330000E+03 0.  0.
<mgrwt>
<rscale>  0 0.68699588E+03</rscale>
<asrwt>0</asrwt>
<pdfrwt beam="1">  1        2 0.90801233E-01 0.78696071E+03</pdfrwt>
<pdfrwt beam="2">  1       -2 0.12820090E+00 0.78696071E+03</pdfrwt>
<totfact> 0.22989007E+01</totfact>
</mgrwt>
</event>
<event>
 4    1  0.8468429E-007  0.6781360E+03  0.7818608E-02  0.1010398E+00
          2   -1    0    0  501    0  0.00000000000E+00  0.00000000000E+00  0.69236494840E+03  0.69236494840E+03  0.25500000000E-02 0. -1.
         -2   -1    0    0    0  501 -0.00000000000E+00 -0.00000000000E+00 -0.37517508647E+03  0.37517508648E+03  0.25500000000E-02 0.  1.
    8880023    1    1    2    0    0  0.21306745780E+02 -0.16001321644E+03  0.44494966839E+03  0.81107867714E+03  0.65864270000E+03 0. -1.
    8880022    1    1    2    0    0 -0.21306745780E+02  0.16001321644E+03 -0.12775980646E+03  0.25646135774E+03  0.15294330000E+03 0.  0.
<mgrwt>
<rscale>  0 0.51316642E+03</rscale>
<asrwt>0</asrwt>
<pdfrwt beam="1">  1        2 0.10651768E+00 0.67813598E+03</pdfrwt>
<pdfrwt beam="2">  1       -2 0.57719245E-01 0.67813598E+03</pdfrwt>
<totfact> 0.11861521E+02</totfact>
</mgrwt>
</event>
<event>
 4    1  0.8468429E-007  0.7446295E+03  0.7818608E-02  0.9846661E-01
         -2   -1    0    0    0  501 -0.00000000000E+00  0.00000000000E+00  0.26208394635E+03  0.26208394637E+03  0.25500000000E-02 0.  1.
          2   -1    0    0  501    0  0.00000000000E+00 -0.00000000000E+00 -0.12187322015E+04  0.12187322015E+04  0.25500000000E-02 0. -1.
    8880023    1    1    2    0    0 -0.92111842280E+02  0.33493033450E+03 -0.55896266014E+03  0.93108129728E+03  0.65864270000E+03 0. -1.
    8880022    1    1    2    0    0  0.92111842280E+02 -0.33493033450E+03 -0.39768559499E+03  0.54973485057E+03  0.15294330000E+03 0.  1.
<mgrwt>
<rscale>  0 0.62917444E+03</rscale>
<asrwt>0</asrwt>
<pdfrwt beam="1">  1        2 0.18749726E+00 0.74462952E+03</pdfrwt>
<pdfrwt beam="2">  1       -2 0.40320608E-01 0.74462952E+03</pdfrwt>
<totfact> 0.10911894E+02</totfact>
</mgrwt>
</event>
<event>
 4    1  0.8468429E-007  0.7866794E+03  0.7818608E-02  0.9740375E-01
         -2   -1    0    0    0  501 -0.00000000000E+00  0.00000000000E+00  0.12104645738E+03  0.12104645740E+03  0.25500000000E-02 0.  1.
          2   -1    0    0  501    0  0.00000000000E+00 -0.00000000000E+00 -0.34719654407E+04  0.34719654407E+04  0.25500000000E-02 0. -1.
    8880023    1    1    2    0    0 -0.17518424165E+03 -0.39289280387E+03 -0.25776200328E+04  0.26949934162E+04  0.65864270000E+03 0.  0.
    8880022    1    1    2    0    0  0.17518424165E+03  0.39289280387E+03 -0.77329895051E+03  0.89801848185E+03  0.15294330000E+03 0.  0.
<mgrwt>
<rscale>  0 0.68662958E+03</rscale>
<asrwt>0</asrwt>
<pdfrwt beam="1">  1        2 0.53414845E+00 0.78667940E+03</pdfrwt>
<pdfrwt beam="2">  1       -2 0.18622535E-01 0.78667940E+03</pdfrwt>
<totfact> 0.21973005E+01</totfact>
</mgrwt>
</event>
<event>
 4    1  0.8468429E-007  0.7542353E+03  0.7818608E-02  0.9820267E-01
          2   -1    0    0  501    0  0.00000000000E+00  0.00000000000E+00  0.14734374331E+04  0.14734374331E+04  0.25500000000E-02 0. -1.
         -2   -1    0    0    0  501 -0.00000000000E+00 -0.00000000000E+00 -0.50230496271E+03  0.50230496272E+03  0.25500000000E-02 0.  1.
    8880023    1    1    2    0    0  0.30460841673E+03 -0.20560735151E+03  0.12706102502E+04  0.14776066069E+04  0.65864270000E+03 0. -1.
    8880022    1    1    2    0    0 -0.30460841673E+03  0.20560735151E+03 -0.29947777985E+03  0.49813578890E+03  0.15294330000E+03 0.  1.
<mgrwt>
<rscale>  0 0.64286157E+03</rscale>
<asrwt>0</asrwt>
<pdfrwt beam="1">  1        2 0.22668268E+00 0.75423529E+03</pdfrwt>
<pdfrwt beam="2">  1       -2 0.77277688E-01 0.75423529E+03</pdfrwt>
<totfact> 0.20082325E+01</totfact>
</mgrwt>
</event>
<event>
 4    1  0.8468429E-007  0.8103842E+03  0.7818608E-02  0.9688777E-01
          2   -1    0    0  501    0  0.00000000000E+00  0.00000000000E+00  0.25232415249E+04  0.25232415249E+04  0.25500000000E-02 0. -1.
         -2   -1    0    0    0  501 -0.00000000000E+00 -0.00000000000E+00 -0.34088547231E+03  0.34088547232E+03  0.25500000000E-02 0.  1.
    8880023    1    1    2    0    0 -0.94405707171E+02 -0.46260121989E+03  0.22230691002E+04  0.23661696382E+04  0.65864270000E+03 0. -1.
    8880022    1    1    2    0    0  0.94405707171E+02  0.46260121989E+03 -0.40713047570E+02  0.49795735906E+03  0.15294330000E+03 0.  0.
<mgrwt>
<rscale>  0 0.71688938E+03</rscale>
<asrwt>0</asrwt>
<pdfrwt beam="1">  1        2 0.38819101E+00 0.81038419E+03</pdfrwt>
<pdfrwt beam="2">  1       -2 0.52443918E-01 0.81038419E+03</pdfrwt>
<totfact> 0.12026791E+01</totfact>
</mgrwt>
</event>
<event>
 4    1  0.8468429E-007  0.7026145E+03  0.7818608E-02  0.9986523E-01
         -2   -1    0    0    0  501 -0.00000000000E+00  0.00000000000E+00  0.18733452177E+03  0.18733452179E+03  0.25500000000E-02 0.  1.
          2   -1    0    0  501    0  0.00000000000E+00 -0.00000000000E+00 -0.29064263981E+04  0.29064263981E+04  0.25500000000E-02 0. -1.
    8880023    1    1    2    0    0 -0.18756608328E+03 -0.15708552628E+03 -0.27157978076E+04  0.28052138664E+04  0.65864270000E+03 0. -1.
    8880022    1    1    2    0    0  0.18756608328E+03  0.15708552628E+03 -0.32940686946E+01  0.28854705347E+03  0.15294330000E+03 0.  0.
<mgrwt>
<rscale>  0 0.56245128E+03</rscale>
<asrwt>0</asrwt>
<pdfrwt beam="1">  1        2 0.44714249E+00 0.70261448E+03</pdfrwt>
<pdfrwt beam="2">  1       -2 0.28820698E-01 0.70261448E+03</pdfrwt>
<totfact> 0.23395973E+01</totfact>
</mgrwt>
</event>
<event>
 4    1  0.8468429E-007  0.6872093E+03  0.7818608E-02  0.1005508E+00
         -2   -1    0    0    0  501 -0.00000000000E+00  0.00000000000E+00  0.97925524409E+03  0.97925524410E+03  0.25500000000E-02 0.  1.
          2   -1    0    0  501    0  0.00000000000E+00 -0.00000000000E+00 -0.28395584936E+03  0.28395584938E+03  0.25500000000E-02 0. -1.
    8880023    1    1    2    0    0 -0.13835717088E+03 -0.13893797648E+03  0.21112255789E+03  0.71890848427E+03  0.65864270000E+03 0.  0.
    8880022    1    1    2    0    0  0.13835717088E+03  0.13893797648E+03  0.48417683683E+03  0.54430260920E+03  0.15294330000E+03 0.  0.
<mgrwt>
<rscale>  0 0.53299585E+03</rscale>
<asrwt>0</asrwt>
<pdfrwt beam="1">  1        2 0.43685515E-01 0.68720934E+03</pdfrwt>
<pdfrwt beam="2">  1       -2 0.15065465E+00 0.68720934E+03</pdfrwt>
<totfact> 0.35127744E+01</totfact>
</mgrwt>
</event>
<event>
 4    1  0.8468429E-007  0.6727833E+03  0.7818608E-02  0.1013741E+00
         -2   -1    0    0    0  501 -0.00000000000E+00  0.00000000000E+00  0.28976312340E+03  0.28976312342E+03  0.25500000000E-02 0.  1.
          2   -1    0    0  501    0  0.00000000000E+00 -0.00000000000E+00 -0.67086727943E+03  0.67086727944E+03  0.25500000000E-02 0. -1.
    8880023    1    1    2    0    0 -0.39724386757E+02  0.13133616547E+03 -0.32761079418E+03  0.74830892951E+03  0.65864270000E+03 0. -1.
    8880022    1    1    2    0    0  0.39724386757E+02 -0.13133616547E+03 -0.53493361854E+02  0.21232147334E+03  0.15294330000E+03 0.  1.
<mgrwt>
<rscale>  0 0.50014363E+03</rscale>
<asrwt>0</asrwt>
<pdfrwt beam="1">  1        2 0.10321035E+00 0.67278334E+03</pdfrwt>
<pdfrwt beam="2">  1       -2 0.44578942E-01 0.67278334E+03</pdfrwt>
<totfact> 0.20897691E+02</totfact>
</mgrwt>
</event>
<event>
 4    1  0.8468429E-007  0.9611569E+03  0.7818608E-02  0.9434240E-01
          2   -1    0    0  501    0  0.00000000000E+00  0.00000000000E+00  0.13307065201E+04  0.13307065201E+04  0.25500000000E-02 0. -1.
         -2   -1    0    0    0  501 -0.00000000000E+00 -0.00000000000E+00 -0.67102529978E+03  0.67102529978E+03  0.25500000000E-02 0.  1.
    8880023    1    1    2    0    0 -0.38524360335E+03  0.58446531612E+03  0.82467751787E+03  0.12664578771E+04  0.65864270000E+03 0. -1.
    8880022    1    1    2    0    0  0.38524360335E+03 -0.58446531612E+03 -0.16499629759E+03  0.73527394276E+03  0.15294330000E+03 0.  0.
<mgrwt>
<rscale>  0 0.89310622E+03</rscale>
<asrwt>0</asrwt>
<pdfrwt beam="1">  1        2 0.20472408E+00 0.96115688E+03</pdfrwt>
<pdfrwt beam="2">  1       -2 0.10323466E+00 0.96115688E+03</pdfrwt>
<totfact> 0.12121940E+01</totfact>
</mgrwt>
</event>
<event>
 4    1  0.8468429E-007  0.7545312E+03  0.7818608E-02  0.9819477E-01
         -2   -1    0    0    0  501 -0.00000000000E+00  0.00000000000E+00  0.20228995794E+03  0.20228995795E+03  0.25500000000E-02 0.  1.
          2   -1    0    0  501    0  0.00000000000E+00 -0.00000000000E+00 -0.16438221556E+04  0.16438221556E+04  0.25500000000E-02 0. -1.
    8880023    1    1    2    0    0 -0.16451205566E+03 -0.32930680951E+03 -0.92883406551E+03  0.11966829650E+04  0.65864270000E+03 0.  1.
    8880022    1    1    2    0    0  0.16451205566E+03  0.32930680951E+03 -0.51269813218E+03  0.64942914857E+03  0.15294330000E+03 0. -1.
<mgrwt>
<rscale>  0 0.64327698E+03</rscale>
<asrwt>0</asrwt>
<pdfrwt beam="1">  1        2 0.25289571E+00 0.75453124E+03</pdfrwt>
<pdfrwt beam="2">  1       -2 0.31121533E-01 0.75453124E+03</pdfrwt>
<totfact> 0.10285573E+02</totfact>
</mgrwt>
</event>
<event>
 4    1  0.8468429E-007  0.8715614E+03  0.7818608E-02  0.9573320E-01
         -2   -1    0    0    0  501 -0.00000000000E+00  0.00000000000E+00  0.24396948687E+03  0.24396948688E+03  0.25500000000E-02 0.  1.
          2   -1    0    0  501    0  0.00000000000E+00 -0.00000000000E+00 -0.23383851731E+04  0.23383851731E+04  0.25500000000E-02 0. -1.
    8880023    1    1    2    0    0 -0.20307260346E+03  0.53345156131E+03 -0.15532455233E+04  0.17810645447E+04  0.65864270000E+03 0. -1.
    8880022    1    1    2    0    0  0.20307260346E+03 -0.53345156131E+03 -0.54117016288E+03  0.80129011522E+03  0.15294330000E+03 0.  1.
<mgrwt>
<rscale>  0 0.79087505E+03</rscale>
<asrwt>0</asrwt>
<pdfrwt beam="1">  1        2 0.35975155E+00 0.87156139E+03</pdfrwt>
<pdfrwt beam="2">  1       -2 0.37533769E-01 0.87156139E+03</pdfrwt>
<totfact> 0.29543347E+01</totfact>
</mgrwt>
</event>
<event>
 4    1  0.8468429E-007  0.7315952E+03  0.7818608E-02  0.9885143E-01
          2   -1    0    0  501    0  0.00000000000E+00  0.00000000000E+00  0.40426870555E+03  0.40426870556E+03  0.25500000000E-02 0. -1.
         -2   -1    0    0    0  501 -0.00000000000E+00 -0.00000000000E+00 -0.10671060607E+04  0.10671060607E+04  0.25500000000E-02 0.  1.
    8880023    1    1    2    0    0 -0.63818749520E+02 -0.31200716159E+03 -0.12998877743E+02  0.73171065235E+03  0.65864270000E+03 0. -1.
    8880022    1    1    2    0    0  0.63818749520E+02  0.31200716159E+03 -0.64983847736E+03  0.73966411387E+03  0.15294330000E+03 0.  1.
<mgrwt>
<rscale>  0 0.60986763E+03</rscale>
<asrwt>0</asrwt>
<pdfrwt beam="1">  1        2 0.62195186E-01 0.73159518E+03</pdfrwt>
<pdfrwt beam="2">  1       -2 0.16417016E+00 0.73159518E+03</pdfrwt>
<totfact> 0.18734448E+01</totfact>
</mgrwt>
</event>
<event>
 4    1  0.8468429E-007  0.8483648E+03  0.7818608E-02  0.9614605E-01
         -2   -1    0    0    0  501 -0.00000000000E+00  0.00000000000E+00  0.61504022095E+03  0.61504022095E+03  0.25500000000E-02 0.  1.
          2   -1    0    0  501    0  0.00000000000E+00 -0.00000000000E+00 -0.17181755862E+04  0.17181755862E+04  0.25500000000E-02 0. -1.
    8880023    1    1    2    0    0  0.53273284795E+03  0.45915974872E+02 -0.14484296073E+04  0.16785919986E+04  0.65864270000E+03 0.  0.
    8880022    1    1    2    0    0 -0.53273284795E+03 -0.45915974872E+02  0.34529424213E+03  0.65462380853E+03  0.15294330000E+03 0.  0.
<mgrwt>
<rscale>  0 0.76337019E+03</rscale>
<asrwt>0</asrwt>
<pdfrwt beam="1">  1        2 0.26433470E+00 0.84836476E+03</pdfrwt>
<pdfrwt beam="2">  1       -2 0.94621573E-01 0.84836476E+03</pdfrwt>
<totfact> 0.91526531E+00</totfact>
</mgrwt>
</event>
<event>
 4    1  0.8468429E-007  0.8485211E+03  0.7818608E-02  0.9614318E-01
         -2   -1    0    0    0  501 -0.00000000000E+00  0.00000000000E+00  0.42914849367E+03  0.42914849368E+03  0.25500000000E-02 0.  1.
          2   -1    0    0  501    0  0.00000000000E+00 -0.00000000000E+00 -0.35502653743E+04  0.35502653743E+04  0.25500000000E-02 0. -1.
    8880023    1    1    2    0    0 -0.23781904684E+03  0.47918681505E+03 -0.32902372384E+04  0.33978889320E+04  0.65864270000E+03 0. -1.
    8880022    1    1    2    0    0  0.23781904684E+03 -0.47918681505E+03  0.16912035778E+03  0.58152493600E+03  0.15294330000E+03 0.  0.
<mgrwt>
<rscale>  0 0.76355755E+03</rscale>
<asrwt>0</asrwt>
<pdfrwt beam="1">  1        2 0.54619466E+00 0.84852113E+03</pdfrwt>
<pdfrwt beam="2">  1       -2 0.66022847E-01 0.84852113E+03</pdfrwt>
<totfact> 0.16877629E+00</totfact>
</mgrwt>
</event>
<event>
 4    1  0.8468429E-007  0.7169976E+03  0.7818608E-02  0.9932879E-01
          2   -1    0    0  501    0  0.00000000000E+00  0.00000000000E+00  0.68600477127E+03  0.68600477128E+03  0.25500000000E-02 0. -1.
         -2   -1    0    0    0  501 -0.00000000000E+00 -0.00000000000E+00 -0.15922407025E+04  0.15922407025E+04  0.25500000000E-02 0.  1.
    8880023    1    1    2    0    0 -0.24852197641E+03 -0.13605927202E+03  0.47494417691E+03  0.86003341546E+03  0.65864270000E+03 0. -1.
    8880022    1    1    2    0    0  0.24852197641E+03  0.13605927202E+03 -0.13811801082E+04  0.14182120584E+04  0.15294330000E+03 0.  0.
<mgrwt>
<rscale>  0 0.58693945E+03</rscale>
<asrwt>0</asrwt>
<pdfrwt beam="1">  1        2 0.10553920E+00 0.71699756E+03</pdfrwt>
<pdfrwt beam="2">  1       -2 0.24496011E+00 0.71699756E+03</pdfrwt>
<totfact> 0.30017516E+00</totfact>
</mgrwt>
</event>
<event>
 4    1  0.8468429E-007  0.7214893E+03  0.7818608E-02  0.9917579E-01
         -2   -1    0    0    0  501 -0.00000000000E+00  0.00000000000E+00  0.57040236299E+03  0.57040236300E+03  0.25500000000E-02 0.  1.
          2   -1    0    0  501    0  0.00000000000E+00 -0.00000000000E+00 -0.74843271979E+03  0.74843271979E+03  0.25500000000E-02 0. -1.
    8880023    1    1    2    0    0 -0.23503044870E+03  0.17747457644E+03 -0.48291344938E+03  0.86818900186E+03  0.65864270000E+03 0. -1.
    8880022    1    1    2    0    0  0.23503044870E+03 -0.17747457644E+03  0.30488309259E+03  0.45064608093E+03  0.15294330000E+03 0.  0.
<mgrwt>
<rscale>  0 0.59416862E+03</rscale>
<asrwt>0</asrwt>
<pdfrwt beam="1">  1        2 0.11514350E+00 0.72148925E+03</pdfrwt>
<pdfrwt beam="2">  1       -2 0.87754210E-01 0.72148925E+03</pdfrwt>
<totfact> 0.42784205E+01</totfact>
</mgrwt>
</event>
<event>
 4    1  0.8468429E-007  0.6753890E+03  0.7818608E-02  0.1012062E+00
         -2   -1    0    0    0  501 -0.00000000000E+00  0.00000000000E+00  0.19274067920E+03  0.19274067922E+03  0.25500000000E-02 0.  1.
          2   -1    0    0  501    0  0.00000000000E+00 -0.00000000000E+00 -0.10317737232E+04  0.10317737232E+04  0.25500000000E-02 0. -1.
    8880023    1    1    2    0    0 -0.11666162023E+03 -0.93435142242E+02 -0.67629581396E+03  0.95578569443E+03  0.65864270000E+03 0.  0.
    8880022    1    1    2    0    0  0.11666162023E+03  0.93435142242E+02 -0.16273723002E+03  0.26872870797E+03  0.15294330000E+03 0. -1.
<mgrwt>
<rscale>  0 0.50663205E+03</rscale>
<asrwt>0</asrwt>
<pdfrwt beam="1">  1        2 0.15873442E+00 0.67538897E+03</pdfrwt>
<pdfrwt beam="2">  1       -2 0.29652413E-01 0.67538897E+03</pdfrwt>
<totfact> 0.25518701E+02</totfact>
</mgrwt>
</event>
<event>
 4    1  0.8468429E-007  0.7643869E+03  0.7818608E-02  0.9793880E-01
         -2   -1    0    0    0  501 -0.00000000000E+00  0.00000000000E+00  0.31681384426E+03  0.31681384427E+03  0.25500000000E-02 0.  1.
          2   -1    0    0  501    0  0.00000000000E+00 -0.00000000000E+00 -0.19699514822E+04  0.19699514822E+04  0.25500000000E-02 0. -1.
    8880023    1    1    2    0    0 -0.25557461000E+03  0.29181966546E+03 -0.17031341485E+04  0.18668029442E+04  0.65864270000E+03 0. -1.
    8880022    1    1    2    0    0  0.25557461000E+03 -0.29181966546E+03  0.49996510582E+02  0.41996238225E+03  0.15294330000E+03 0.  0.
<mgrwt>
<rscale>  0 0.65692019E+03</rscale>
<asrwt>0</asrwt>
<pdfrwt beam="1">  1        2 0.30306945E+00 0.76438688E+03</pdfrwt>
<pdfrwt beam="2">  1       -2 0.48740592E-01 0.76438688E+03</pdfrwt>
<totfact> 0.28514695E+01</totfact>
</mgrwt>
</event>
<event>
 4    1  0.8468429E-007  0.8180332E+03  0.7818608E-02  0.9673081E-01
         -2   -1    0    0    0  501 -0.00000000000E+00  0.00000000000E+00  0.10673953038E+04  0.10673953038E+04  0.25500000000E-02 0.  1.
          2   -1    0    0  501    0  0.00000000000E+00 -0.00000000000E+00 -0.53430822761E+03  0.53430822761E+03  0.25500000000E-02 0. -1.
    8880023    1    1    2    0    0 -0.35565864406E+03  0.32996222870E+03 -0.60144342841E+02  0.82024123994E+03  0.65864270000E+03 0.  0.
    8880022    1    1    2    0    0  0.35565864406E+03 -0.32996222870E+03  0.59323141906E+03  0.78146229150E+03  0.15294330000E+03 0.  0.
<mgrwt>
<rscale>  0 0.72642420E+03</rscale>
<asrwt>0</asrwt>
<pdfrwt beam="1">  1        2 0.82201268E-01 0.81803322E+03</pdfrwt>
<pdfrwt beam="2">  1       -2 0.16421466E+00 0.81803322E+03</pdfrwt>
<totfact> 0.13480099E+01</totfact>
</mgrwt>
</event>
<event>
 4    1  0.8468429E-007  0.6597220E+03  0.7818608E-02  0.1024443E+00
         -2   -1    0    0    0  501 -0.00000000000E+00  0.00000000000E+00  0.50183822431E+03  0.50183822432E+03  0.25500000000E-02 0.  1.
          2   -1    0    0  501    0  0.00000000000E+00 -0.00000000000E+00 -0.14967211519E+04  0.14967211519E+04  0.25500000000E-02 0. -1.
    8880023    1    1    2    0    0  0.29761580207E+02 -0.23177925367E+02 -0.14088332326E+04  0.15556491415E+04  0.65864270000E+03 0. -1.
    8880022    1    1    2    0    0 -0.29761580207E+02  0.23177925367E+02  0.41395030508E+03  0.44291023466E+03  0.15294330000E+03 0.  0.
<mgrwt>
<rscale>  0 0.46116804E+03</rscale>
<asrwt>0</asrwt>
<pdfrwt beam="1">  1        2 0.23026479E+00 0.65972204E+03</pdfrwt>
<pdfrwt beam="2">  1       -2 0.77205882E-01 0.65972204E+03</pdfrwt>
<totfact> 0.19773375E+01</totfact>
</mgrwt>
</event>
<event>
 4    1  0.8468429E-007  0.8174473E+03  0.7818608E-02  0.9674268E-01
         -2   -1    0    0    0  501 -0.00000000000E+00  0.00000000000E+00  0.43322433827E+03  0.43322433828E+03  0.25500000000E-02 0.  1.
          2   -1    0    0  501    0  0.00000000000E+00 -0.00000000000E+00 -0.16683400566E+04  0.16683400566E+04  0.25500000000E-02 0. -1.
    8880023    1    1    2    0    0  0.14349669324E+03 -0.46240519836E+03 -0.13525831286E+04  0.15804117168E+04  0.65864270000E+03 0. -1.
    8880022    1    1    2    0    0 -0.14349669324E+03  0.46240519836E+03  0.11746741025E+03  0.52115267814E+03  0.15294330000E+03 0.  0.
<mgrwt>
<rscale>  0 0.72569729E+03</rscale>
<asrwt>0</asrwt>
<pdfrwt beam="1">  1        2 0.25666770E+00 0.81744729E+03</pdfrwt>
<pdfrwt beam="2">  1       -2 0.66649899E-01 0.81744729E+03</pdfrwt>
<totfact> 0.21517088E+01</totfact>
</mgrwt>
</event>
<event>
 4    1  0.8468429E-007  0.6675443E+03  0.7818608E-02  0.1017488E+00
         -2   -1    0    0    0  501 -0.00000000000E+00  0.00000000000E+00  0.18432670377E+03  0.18432670379E+03  0.25500000000E-02 0.  1.
          2   -1    0    0  501    0  0.00000000000E+00 -0.00000000000E+00 -0.21824551328E+04  0.21824551328E+04  0.25500000000E-02 0. -1.
    8880023    1    1    2    0    0 -0.10173469019E+03 -0.38147087074E+02 -0.20629694033E+04  0.21682846014E+04  0.65864270000E+03 0.  0.
    8880022    1    1    2    0    0  0.10173469019E+03  0.38147087074E+02  0.64840974227E+02  0.19849723523E+03  0.15294330000E+03 0.  1.
<mgrwt>
<rscale>  0 0.48604105E+03</rscale>
<asrwt>0</asrwt>
<pdfrwt beam="1">  1        2 0.33576231E+00 0.66754427E+03</pdfrwt>
<pdfrwt beam="2">  1       -2 0.28357956E-01 0.66754427E+03</pdfrwt>
<totfact> 0.62721453E+01</totfact>
</mgrwt>
</event>
<event>
 4    1  0.8468429E-007  0.7714504E+03  0.7818608E-02  0.9776317E-01
          2   -1    0    0  501    0  0.00000000000E+00  0.00000000000E+00  0.31236091065E+04  0.31236091065E+04  0.25500000000E-02 0. -1.
         -2   -1    0    0    0  501 -0.00000000000E+00 -0.00000000000E+00 -0.26391593976E+03  0.26391593978E+03  0.25500000000E-02 0.  1.
    8880023    1    1    2    0    0 -0.39361242573E+03 -0.79967235234E+02  0.28553364143E+04  0.29577156296E+04  0.65864270000E+03 0.  0.
    8880022    1    1    2    0    0  0.39361242573E+03  0.79967235234E+02  0.43567524719E+01  0.42980941673E+03  0.15294330000E+03 0.  0.
<mgrwt>
<rscale>  0 0.66649118E+03</rscale>
<asrwt>0</asrwt>
<pdfrwt beam="1">  1        2 0.48055527E+00 0.77145039E+03</pdfrwt>
<pdfrwt beam="2">  1       -2 0.40602450E-01 0.77145039E+03</pdfrwt>
<totfact> 0.88770280E+00</totfact>
</mgrwt>
</event>
<event>
 4    1  0.8989701E-007  0.7323585E+03  0.7818608E-02  0.9882793E-01
          2   -1    0    0  501    0  0.00000000000E+00  0.00000000000E+00  0.14697979163E+04  0.14697979163E+04  0.25500000000E-02 0. -1.
         -2   -1    0    0    0  501 -0.00000000000E+00 -0.00000000000E+00 -0.13774305830E+04  0.13774305830E+04  0.25500000000E-02 0.  1.
    8880023    1    1    2    0    0  0.98306950640E+02 -0.30475324588E+03  0.13525160100E+04  0.15380665009E+04  0.65864270000E+03 0. -1.
    8880022    1    1    2    0    0 -0.98306950640E+02  0.30475324588E+03 -0.12601486768E+04  0.13091619984E+04  0.15294330000E+03 0.  0.
<mgrwt>
<rscale>  0 0.61102524E+03</rscale>
<asrwt>0</asrwt>
<pdfrwt beam="1">  1        2 0.22612276E+00 0.73235852E+03</pdfrwt>
<pdfrwt beam="2">  1       -2 0.21191240E+00 0.73235852E+03</pdfrwt>
<totfact> 0.15243146E+00</totfact>
</mgrwt>
</event>
<event>
 4    1  0.8468429E-007  0.8194978E+03  0.7818608E-02  0.9670123E-01
          2   -1    0    0  501    0  0.00000000000E+00  0.00000000000E+00  0.16191314134E+04  0.16191314134E+04  0.25500000000E-02 0. -1.
         -2   -1    0    0    0  501 -0.00000000000E+00 -0.00000000000E+00 -0.85657978757E+03  0.85657978757E+03  0.25500000000E-02 0.  1.
    8880023    1    1    2    0    0 -0.28767558657E+03  0.39371213421E+03  0.14221142792E+04  0.16413365642E+04  0.65864270000E+03 0. -1.
    8880022    1    1    2    0    0  0.28767558657E+03 -0.39371213421E+03 -0.65956265336E+03  0.83437463675E+03  0.15294330000E+03 0.  0.
<mgrwt>
<rscale>  0 0.72823878E+03</rscale>
<asrwt>0</asrwt>
<pdfrwt beam="1">  1        2 0.24909714E+00 0.81949783E+03</pdfrwt>
<pdfrwt beam="2">  1       -2 0.13178151E+00 0.81949783E+03</pdfrwt>
<totfact> 0.46444180E+00</totfact>
</mgrwt>
</event>
<event>
 4    1  0.8468429E-007  0.6613910E+03  0.7818608E-02  0.1022774E+00
         -2   -1    0    0    0  501 -0.00000000000E+00  0.00000000000E+00  0.56457264846E+03  0.56457264847E+03  0.25500000000E-02 0.  1.
          2   -1    0    0  501    0  0.00000000000E+00 -0.00000000000E+00 -0.12771468018E+04  0.12771468018E+04  0.25500000000E-02 0. -1.
    8880023    1    1    2    0    0 -0.89407388195E+01 -0.59564546060E+02 -0.11764287622E+04  0.13496009450E+04  0.65864270000E+03 0. -1.
    8880022    1    1    2    0    0  0.89407388195E+01  0.59564546060E+02  0.46385460891E+03  0.49211850522E+03  0.15294330000E+03 0.  0.
<mgrwt>
<rscale>  0 0.46698554E+03</rscale>
<asrwt>0</asrwt>
<pdfrwt beam="1">  1        2 0.19648412E+00 0.66139102E+03</pdfrwt>
<pdfrwt beam="2">  1       -2 0.86857331E-01 0.66139102E+03</pdfrwt>
<totfact> 0.20165389E+01</totfact>
</mgrwt>
</event>
<event>
 4    1  0.8468429E-007  0.7476604E+03  0.7818608E-02  0.9838170E-01
         -2   -1    0    0    0  501 -0.00000000000E+00  0.00000000000E+00  0.26091210226E+03  0.26091210227E+03  0.25500000000E-02 0.  1.
          2   -1    0    0  501    0  0.00000000000E+00 -0.00000000000E+00 -0.23221913153E+04  0.23221913153E+04  0.25500000000E-02 0. -1.
    8880023    1    1    2    0    0 -0.26689889565E+03  0.23227314986E+03 -0.20665176174E+04  0.21976103171E+04  0.65864270000E+03 0.  0.
    8880022    1    1    2    0    0  0.26689889565E+03 -0.23227314986E+03  0.52384042985E+01  0.38549310051E+03  0.15294330000E+03 0.  0.
<mgrwt>
<rscale>  0 0.63353761E+03</rscale>
<asrwt>0</asrwt>
<pdfrwt beam="1">  1        2 0.35726019E+00 0.74766038E+03</pdfrwt>
<pdfrwt beam="2">  1       -2 0.40140325E-01 0.74766038E+03</pdfrwt>
<totfact> 0.26909476E+01</totfact>
</mgrwt>
</event>
<event>
 4    1  0.8468429E-007  0.9657274E+03  0.7818608E-02  0.9427838E-01
          2   -1    0    0  501    0  0.00000000000E+00  0.00000000000E+00  0.19239173827E+04  0.19239173827E+04  0.25500000000E-02 0. -1.
         -2   -1    0    0    0  501 -0.00000000000E+00 -0.00000000000E+00 -0.49895128527E+03  0.49895128528E+03  0.25500000000E-02 0.  1.
    8880023    1    1    2    0    0  0.70346875885E+03 -0.62855506479E+02  0.13987594254E+04  0.16997521130E+04  0.65864270000E+03 0. -1.
    8880022    1    1    2    0    0 -0.70346875885E+03  0.62855506479E+02  0.26206672037E+02  0.72311655495E+03  0.15294330000E+03 0.  1.
<mgrwt>
<rscale>  0 0.89819705E+03</rscale>
<asrwt>0</asrwt>
<pdfrwt beam="1">  1        2 0.29598728E+00 0.96572735E+03</pdfrwt>
<pdfrwt beam="2">  1       -2 0.76761738E-01 0.96572735E+03</pdfrwt>
<totfact> 0.11226717E+01</totfact>
</mgrwt>
</event>
<event>
 4    1  0.8468429E-007  0.6870574E+03  0.7818608E-02  0.1005584E+00
         -2   -1    0    0    0  501 -0.00000000000E+00  0.00000000000E+00  0.23382095314E+03  0.23382095316E+03  0.25500000000E-02 0.  1.
          2   -1    0    0  501    0  0.00000000000E+00 -0.00000000000E+00 -0.13484327256E+04  0.13484327256E+04  0.25500000000E-02 0. -1.
    8880023    1    1    2    0    0  0.66609975477E+01  0.19543121536E+03 -0.11417399455E+04  0.13325231848E+04  0.65864270000E+03 0. -1.
    8880022    1    1    2    0    0 -0.66609975477E+01 -0.19543121536E+03  0.27128172968E+02  0.24973049395E+03  0.15294330000E+03 0.  0.
<mgrwt>
<rscale>  0 0.53268230E+03</rscale>
<asrwt>0</asrwt>
<pdfrwt beam="1">  1        2 0.20745118E+00 0.68705745E+03</pdfrwt>
<pdfrwt beam="2">  1       -2 0.35972455E-01 0.68705745E+03</pdfrwt>
<totfact> 0.11501293E+02</totfact>
</mgrwt>
</event>
<event>
 4    1  0.8468429E-007  0.6922968E+03  0.7818608E-02  0.1003079E+00
         -2   -1    0    0    0  501 -0.00000000000E+00  0.00000000000E+00  0.11305210353E+03  0.11305210356E+03  0.25500000000E-02 0.  1.
          2   -1    0    0  501    0  0.00000000000E+00 -0.00000000000E+00 -0.27606004055E+04  0.27606004055E+04  0.25500000000E-02 0. -1.
    8880023    1    1    2    0    0  0.17763518384E+03  0.11794241060E+03 -0.24479548343E+04  0.25439649659E+04  0.65864270000E+03 0.  0.
    8880022    1    1    2    0    0 -0.17763518384E+03 -0.11794241060E+03 -0.19959346765E+03  0.32968754314E+03  0.15294330000E+03 0.  0.
<mgrwt>
<rscale>  0 0.54320309E+03</rscale>
<asrwt>0</asrwt>
<pdfrwt beam="1">  1        2 0.42470770E+00 0.69229681E+03</pdfrwt>
<pdfrwt beam="2">  1       -2 0.17392633E-01 0.69229681E+03</pdfrwt>
<totfact> 0.70133356E+01</totfact>
</mgrwt>
</event>
<event>
 4    1  0.8468429E-007  0.6669367E+03  0.7818608E-02  0.1017961E+00
          2   -1    0    0  501    0  0.00000000000E+00  0.00000000000E+00  0.22007333474E+04  0.22007333474E+04  0.25500000000E-02 0. -1.
         -2   -1    0    0    0  501 -0.00000000000E+00 -0.00000000000E+00 -0.64982288096E+03  0.64982288097E+03  0.25500000000E-02 0.  1.
    8880023    1    1    2    0    0 -0.15738285117E+02 -0.10366609265E+03  0.21355201931E+04  0.22372418407E+04  0.65864270000E+03 0. -1.
    8880022    1    1    2    0    0  0.15738285117E+02  0.10366609265E+03 -0.58460972675E+03  0.61331438758E+03  0.15294330000E+03 0.  0.
<mgrwt>
<rscale>  0 0.48429633E+03</rscale>
<asrwt>0</asrwt>
<pdfrwt beam="1">  1        2 0.33857436E+00 0.66693670E+03</pdfrwt>
<pdfrwt beam="2">  1       -2 0.99972752E-01 0.66693670E+03</pdfrwt>
<totfact> 0.45091424E+00</totfact>
</mgrwt>
</event>
<event>
 4    1  0.8468429E-007  0.7407112E+03  0.7818608E-02  0.9857880E-01
          2   -1    0    0  501    0  0.00000000000E+00  0.00000000000E+00  0.66245882372E+03  0.66245882373E+03  0.25500000000E-02 0. -1.
         -2   -1    0    0    0  501 -0.00000000000E+00 -0.00000000000E+00 -0.74306317037E+03  0.74306317037E+03  0.25500000000E-02 0.  1.
    8880023    1    1    2    0    0  0.33858250897E+03 -0.14311708542E+02  0.36452044680E+03  0.82554727471E+03  0.65864270000E+03 0.  0.
    8880022    1    1    2    0    0 -0.33858250897E+03  0.14311708542E+02 -0.44512479344E+03  0.57997471939E+03  0.15294330000E+03 0.  0.
<mgrwt>
<rscale>  0 0.62346747E+03</rscale>
<asrwt>0</asrwt>
<pdfrwt beam="1">  1        2 0.10191674E+00 0.74071124E+03</pdfrwt>
<pdfrwt beam="2">  1       -2 0.11431741E+00 0.74071124E+03</pdfrwt>
<totfact> 0.26643519E+01</totfact>
</mgrwt>
</event>
<event>
 4    1  0.8468429E-007  0.9751660E+03  0.7818608E-02  0.9414795E-01
         -2   -1    0    0    0  501 -0.00000000000E+00  0.00000000000E+00  0.26187632515E+03  0.26187632516E+03  0.25500000000E-02 0.  1.
          2   -1    0    0  501    0  0.00000000000E+00 -0.00000000000E+00 -0.36368055323E+04  0.36368055323E+04  0.25500000000E-02 0. -1.
    8880023    1    1    2    0    0 -0.71125027399E+03  0.10612019274E+03 -0.28012626861E+04  0.29661458646E+04  0.65864270000E+03 0. -1.
    8880022    1    1    2    0    0  0.71125027399E+03 -0.10612019274E+03 -0.57366652112E+03  0.93253599289E+03  0.15294330000E+03 0.  0.
<mgrwt>
<rscale>  0 0.90868087E+03</rscale>
<asrwt>0</asrwt>
<pdfrwt beam="1">  1        2 0.55950850E+00 0.97516596E+03</pdfrwt>
<pdfrwt beam="2">  1       -2 0.40288668E-01 0.97516596E+03</pdfrwt>
<totfact> 0.39596717E+00</totfact>
</mgrwt>
</event>
<event>
 4    1  0.8468429E-007  0.1147465E+04  0.7818608E-02  0.9209963E-01
         -2   -1    0    0    0  501 -0.00000000000E+00  0.00000000000E+00  0.75732637379E+03  0.75732637380E+03  0.25500000000E-02 0.  1.
          2   -1    0    0  501    0  0.00000000000E+00 -0.00000000000E+00 -0.17903025404E+04  0.17903025404E+04  0.25500000000E-02 0. -1.
    8880023    1    1    2    0    0  0.88664445065E+03  0.31101149039E+03 -0.11048904493E+04  0.15929405639E+04  0.65864270000E+03 0. -1.
    8880022    1    1    2    0    0 -0.88664445065E+03 -0.31101149039E+03  0.71914282704E+02  0.95468835024E+03  0.15294330000E+03 0.  0.
<mgrwt>
<rscale>  0 0.10951187E+04</rscale>
<asrwt>0</asrwt>
<pdfrwt beam="1">  1        2 0.27543116E+00 0.11474654E+04</pdfrwt>
<pdfrwt beam="2">  1       -2 0.11651175E+00 0.11474654E+04</pdfrwt>
<totfact> 0.48940687E+00</totfact>
</mgrwt>
</event>
<event>
 4    1  0.8468429E-007  0.1080379E+04  0.7818608E-02  0.9283222E-01
         -2   -1    0    0    0  501 -0.00000000000E+00  0.00000000000E+00  0.13293704054E+04  0.13293704055E+04  0.25500000000E-02 0.  1.
          2   -1    0    0  501    0  0.00000000000E+00 -0.00000000000E+00 -0.90997687107E+03  0.90997687108E+03  0.25500000000E-02 0. -1.
    8880023    1    1    2    0    0  0.77899732140E+03  0.35576952123E+03 -0.28798694636E+03  0.11181035133E+04  0.65864270000E+03 0.  0.
    8880022    1    1    2    0    0 -0.77899732140E+03 -0.35576952123E+03  0.70738048074E+03  0.11212437632E+04  0.15294330000E+03 0.  0.
<mgrwt>
<rscale>  0 0.10234221E+04</rscale>
<asrwt>0</asrwt>
<pdfrwt beam="1">  1        2 0.13999644E+00 0.10803791E+04</pdfrwt>
<pdfrwt beam="2">  1       -2 0.20451852E+00 0.10803791E+04</pdfrwt>
<totfact> 0.35316041E+00</totfact>
</mgrwt>
</event>
<event>
 4    1  0.8468429E-007  0.7307713E+03  0.7818608E-02  0.9887694E-01
          2   -1    0    0  501    0  0.00000000000E+00  0.00000000000E+00  0.20604663922E+04  0.20604663922E+04  0.25500000000E-02 0. -1.
         -2   -1    0    0    0  501 -0.00000000000E+00 -0.00000000000E+00 -0.36227166753E+03  0.36227166754E+03  0.25500000000E-02 0.  1.
    8880023    1    1    2    0    0 -0.16389985768E+03 -0.27083813998E+03  0.18870779428E+04  0.20236328298E+04  0.65864270000E+03 0. -1.
    8880022    1    1    2    0    0  0.16389985768E+03  0.27083813998E+03 -0.18888321817E+03  0.39910522990E+03  0.15294330000E+03 0.  0.
<mgrwt>
<rscale>  0 0.60861405E+03</rscale>
<asrwt>0</asrwt>
<pdfrwt beam="1">  1        2 0.31699484E+00 0.73077128E+03</pdfrwt>
<pdfrwt beam="2">  1       -2 0.55734101E-01 0.73077128E+03</pdfrwt>
<totfact> 0.19412824E+01</totfact>
</mgrwt>
</event>
<event>
 4    1  0.8468429E-007  0.1043348E+04  0.7818608E-02  0.9326921E-01
         -2   -1    0    0    0  501 -0.00000000000E+00  0.00000000000E+00  0.45017318119E+03  0.45017318120E+03  0.25500000000E-02 0.  1.
          2   -1    0    0  501    0  0.00000000000E+00 -0.00000000000E+00 -0.28997041778E+04  0.28997041778E+04  0.25500000000E-02 0. -1.
    8880023    1    1    2    0    0  0.27922629973E+03  0.75947192898E+03 -0.22824273671E+04  0.25095915663E+04  0.65864270000E+03 0.  0.
    8880022    1    1    2    0    0 -0.27922629973E+03 -0.75947192898E+03 -0.16710362952E+03  0.84028579269E+03  0.15294330000E+03 0.  0.
<mgrwt>
<rscale>  0 0.98341800E+03</rscale>
<asrwt>0</asrwt>
<pdfrwt beam="1">  1        2 0.44610832E+00 0.10433480E+04</pdfrwt>
<pdfrwt beam="2">  1       -2 0.69257414E-01 0.10433480E+04</pdfrwt>
<totfact> 0.38756603E+00</totfact>
</mgrwt>
</event>
<event>
 4    1  0.8468429E-007  0.8514157E+03  0.7818608E-02  0.9609019E-01
         -2   -1    0    0    0  501 -0.00000000000E+00  0.00000000000E+00  0.89960849156E+03  0.89960849157E+03  0.25500000000E-02 0.  1.
          2   -1    0    0  501    0  0.00000000000E+00 -0.00000000000E+00 -0.99861797906E+03  0.99861797906E+03  0.25500000000E-02 0. -1.
    8880023    1    1    2    0    0 -0.85815278970E+02  0.53266709626E+03 -0.68081805456E+03  0.10901476630E+04  0.65864270000E+03 0.  0.
    8880022    1    1    2    0    0  0.85815278970E+02 -0.53266709626E+03  0.58180856707E+03  0.80807880759E+03  0.15294330000E+03 0.  0.
<mgrwt>
<rscale>  0 0.76702077E+03</rscale>
<asrwt>0</asrwt>
<pdfrwt beam="1">  1        2 0.15363354E+00 0.85141571E+03</pdfrwt>
<pdfrwt beam="2">  1       -2 0.13840131E+00 0.85141571E+03</pdfrwt>
<totfact> 0.93965573E+00</totfact>
</mgrwt>
</event>
<event>
 4    1  0.8468429E-007  0.7300809E+03  0.7818608E-02  0.9889844E-01
          2   -1    0    0  501    0  0.00000000000E+00  0.00000000000E+00  0.17785915506E+04  0.17785915506E+04  0.25500000000E-02 0. -1.
         -2   -1    0    0    0  501 -0.00000000000E+00 -0.00000000000E+00 -0.16980344763E+03  0.16980344765E+03  0.25500000000E-02 0.  1.
    8880023    1    1    2    0    0 -0.25837391936E+03 -0.18014098278E+03  0.12464186129E+04  0.14444990207E+04  0.65864270000E+03 0. -1.
    8880022    1    1    2    0    0  0.25837391936E+03  0.18014098278E+03  0.36236949006E+03  0.50389597758E+03  0.15294330000E+03 0.  1.
<mgrwt>
<rscale>  0 0.60756020E+03</rscale>
<asrwt>0</asrwt>
<pdfrwt beam="1">  1        2 0.27362948E+00 0.73008086E+03</pdfrwt>
<pdfrwt beam="2">  1       -2 0.26123606E-01 0.73008086E+03</pdfrwt>
<totfact> 0.12008494E+02</totfact>
</mgrwt>
</event>
<event>
 4    1  0.8468429E-007  0.7623288E+03  0.7818608E-02  0.9799115E-01
          2   -1    0    0  501    0  0.00000000000E+00  0.00000000000E+00  0.50225902542E+03  0.50225902543E+03  0.25500000000E-02 0. -1.
         -2   -1    0    0    0  501 -0.00000000000E+00 -0.00000000000E+00 -0.13231090066E+04  0.13231090066E+04  0.25500000000E-02 0.  1.
    8880023    1    1    2    0    0 -0.25660718028E+03  0.28546054788E+03  0.14396116287E+03  0.77580280487E+03  0.65864270000E+03 0.  0.
    8880022    1    1    2    0    0  0.25660718028E+03 -0.28546054788E+03 -0.96481114403E+03  0.10495652271E+04  0.15294330000E+03 0.  0.
<mgrwt>
<rscale>  0 0.65410037E+03</rscale>
<asrwt>0</asrwt>
<pdfrwt beam="1">  1        2 0.77270620E-01 0.76232878E+03</pdfrwt>
<pdfrwt beam="2">  1       -2 0.20355523E+00 0.76232878E+03</pdfrwt>
<totfact> 0.78655077E+00</totfact>
</mgrwt>
</event>
<event>
 4    1  0.8468429E-007  0.9078404E+03  0.7818608E-02  0.9513561E-01
         -2   -1    0    0    0  501 -0.00000000000E+00  0.00000000000E+00  0.14041575188E+04  0.14041575188E+04  0.25500000000E-02 0.  1.
          2   -1    0    0  501    0  0.00000000000E+00 -0.00000000000E+00 -0.83479647923E+03  0.83479647924E+03  0.25500000000E-02 0. -1.
    8880023    1    1    2    0    0  0.46972633390E+03 -0.41197229477E+03 -0.46568882857E+03  0.10203138202E+04  0.65864270000E+03 0. -1.
    8880022    1    1    2    0    0 -0.46972633390E+03  0.41197229477E+03  0.10350498681E+04  0.12186401778E+04  0.15294330000E+03 0.  0.
<mgrwt>
<rscale>  0 0.83291393E+03</rscale>
<asrwt>0</asrwt>
<pdfrwt beam="1">  1        2 0.12843023E+00 0.90784041E+03</pdfrwt>
<pdfrwt beam="2">  1       -2 0.21602423E+00 0.90784041E+03</pdfrwt>
<totfact> 0.34218984E+00</totfact>
</mgrwt>
</event>
<event>
 4    1  0.8468429E-007  0.7700009E+03  0.7818608E-02  0.9779872E-01
          2   -1    0    0  501    0  0.00000000000E+00  0.00000000000E+00  0.71326974091E+03  0.71326974091E+03  0.25500000000E-02 0. -1.
         -2   -1    0    0    0  501 -0.00000000000E+00 -0.00000000000E+00 -0.70743554724E+03  0.70743554725E+03  0.25500000000E-02 0.  1.
    8880023    1    1    2    0    0 -0.10024991872E+03 -0.38605854835E+03  0.37467910604E+03  0.85632113586E+03  0.65864270000E+03 0. -1.
    8880022    1    1    2    0    0  0.10024991872E+03  0.38605854835E+03 -0.36884491238E+03  0.56438415229E+03  0.15294330000E+03 0.  0.
<mgrwt>
<rscale>  0 0.66454014E+03</rscale>
<asrwt>0</asrwt>
<pdfrwt beam="1">  1        2 0.10973381E+00 0.77000094E+03</pdfrwt>
<pdfrwt beam="2">  1       -2 0.10883624E+00 0.77000094E+03</pdfrwt>
<totfact> 0.27289779E+01</totfact>
</mgrwt>
</event>
<event>
 4    1  0.8468429E-007  0.9928035E+03  0.7818608E-02  0.9391034E-01
         -2   -1    0    0    0  501 -0.00000000000E+00  0.00000000000E+00  0.23664727319E+03  0.23664727321E+03  0.25500000000E-02 0.  1.
          2   -1    0    0  501    0  0.00000000000E+00 -0.00000000000E+00 -0.39254230776E+04  0.39254230776E+04  0.25500000000E-02 0. -1.
    8880023    1    1    2    0    0  0.56231637659E+03 -0.48543677477E+03 -0.11849161896E+04  0.15458606510E+04  0.65864270000E+03 0.  0.
    8880022    1    1    2    0    0 -0.56231637659E+03  0.48543677477E+03 -0.25038596147E+04  0.26162096997E+04  0.15294330000E+03 0.  0.
<mgrwt>
<rscale>  0 0.92817235E+03</rscale>
<asrwt>0</asrwt>
<pdfrwt beam="1">  1        2 0.60391119E+00 0.99280349E+03</pdfrwt>
<pdfrwt beam="2">  1       -2 0.36407276E-01 0.99280349E+03</pdfrwt>
<totfact> 0.29352304E+00</totfact>
</mgrwt>
</event>
<event>
 4    1  0.8468429E-007  0.1528348E+04  0.7818608E-02  0.8889874E-01
          2   -1    0    0  501    0  0.00000000000E+00  0.00000000000E+00  0.23568962273E+04  0.23568962273E+04  0.25500000000E-02 0. -1.
         -2   -1    0    0    0  501 -0.00000000000E+00 -0.00000000000E+00 -0.15784594232E+04  0.15784594232E+04  0.25500000000E-02 0.  1.
    8880023    1    1    2    0    0 -0.11472414598E+04  0.76542415664E+03  0.16873156128E+04  0.22765942304E+04  0.65864270000E+03 0.  0.
    8880022    1    1    2    0    0  0.11472414598E+04 -0.76542415664E+03 -0.90887880877E+03  0.16587614201E+04  0.15294330000E+03 0.  0.
<mgrwt>
<rscale>  0 0.14918756E+04</rscale>
<asrwt>0</asrwt>
<pdfrwt beam="1">  1        2 0.36259942E+00 0.15283479E+04</pdfrwt>
<pdfrwt beam="2">  1       -2 0.24283991E+00 0.15283479E+04</pdfrwt>
<totfact> 0.27970595E-01</totfact>
</mgrwt>
</event>
<event>
 4    1  0.8468429E-007  0.8767662E+03  0.7818608E-02  0.9564409E-01
          2   -1    0    0  501    0  0.00000000000E+00  0.00000000000E+00  0.17244533598E+04  0.17244533598E+04  0.25500000000E-02 0. -1.
         -2   -1    0    0    0  501 -0.00000000000E+00 -0.00000000000E+00 -0.60811049278E+03  0.60811049278E+03  0.25500000000E-02 0.  1.
    8880023    1    1    2    0    0 -0.55004315539E+03  0.17989236957E+03  0.14142259306E+04  0.16639573090E+04  0.65864270000E+03 0. -1.
    8880022    1    1    2    0    0  0.55004315539E+03 -0.17989236957E+03 -0.29788306357E+03  0.66860654349E+03  0.15294330000E+03 0.  0.
<mgrwt>
<rscale>  0 0.79697327E+03</rscale>
<asrwt>0</asrwt>
<pdfrwt beam="1">  1        2 0.26530051E+00 0.87676619E+03</pdfrwt>
<pdfrwt beam="2">  1       -2 0.93555463E-01 0.87676619E+03</pdfrwt>
<totfact> 0.92907949E+00</totfact>
</mgrwt>
</event>
<event>
 4    1  0.8468429E-007  0.7107157E+03  0.7818608E-02  0.9955353E-01
         -2   -1    0    0    0  501 -0.00000000000E+00  0.00000000000E+00  0.23703177164E+03  0.23703177165E+03  0.25500000000E-02 0.  1.
          2   -1    0    0  501    0  0.00000000000E+00 -0.00000000000E+00 -0.19196331820E+04  0.19196331820E+04  0.25500000000E-02 0. -1.
    8880023    1    1    2    0    0  0.15354718233E+02  0.26659114486E+03 -0.17059243279E+04  0.18480515752E+04  0.65864270000E+03 0. -1.
    8880022    1    1    2    0    0 -0.15354718233E+02 -0.26659114486E+03  0.23322917487E+02  0.30861337849E+03  0.15294330000E+03 0.  0.
<mgrwt>
<rscale>  0 0.57652041E+03</rscale>
<asrwt>0</asrwt>
<pdfrwt beam="1">  1        2 0.29532817E+00 0.71071570E+03</pdfrwt>
<pdfrwt beam="2">  1       -2 0.36466428E-01 0.71071570E+03</pdfrwt>
<totfact> 0.54145805E+01</totfact>
</mgrwt>
</event>
<event>
 4    1  0.8468429E-007  0.6759737E+03  0.7818608E-02  0.1011699E+00
          2   -1    0    0  501    0  0.00000000000E+00  0.00000000000E+00  0.20346741950E+04  0.20346741950E+04  0.25500000000E-02 0. -1.
         -2   -1    0    0    0  501 -0.00000000000E+00 -0.00000000000E+00 -0.99094646809E+02  0.99094646842E+02  0.25500000000E-02 0.  1.
    8880023    1    1    2    0    0  0.79761358198E+02 -0.12949276408E+03  0.15693845613E+04  0.17087739340E+04  0.65864270000E+03 0. -1.
    8880022    1    1    2    0    0 -0.79761358198E+02  0.12949276408E+03  0.36619498698E+03  0.42499490787E+03  0.15294330000E+03 0. -1.
<mgrwt>
<rscale>  0 0.50804776E+03</rscale>
<asrwt>0</asrwt>
<pdfrwt beam="1">  1        2 0.31302679E+00 0.67597371E+03</pdfrwt>
<pdfrwt beam="2">  1       -2 0.15245331E-01 0.67597371E+03</pdfrwt>
<totfact> 0.22471585E+02</totfact>
</mgrwt>
</event>
<event>
 4    1  0.8468429E-007  0.1125840E+04  0.7818608E-02  0.9232818E-01
         -2   -1    0    0    0  501 -0.00000000000E+00  0.00000000000E+00  0.95001752073E+03  0.95001752073E+03  0.25500000000E-02 0.  1.
          2   -1    0    0  501    0  0.00000000000E+00 -0.00000000000E+00 -0.19575960006E+04  0.19575960006E+04  0.25500000000E-02 0. -1.
    8880023    1    1    2    0    0 -0.89841729975E+03 -0.16294613860E+03 -0.14869406652E+04  0.18650758259E+04  0.65864270000E+03 0.  0.
    8880022    1    1    2    0    0  0.89841729975E+03  0.16294613860E+03  0.47936218530E+03  0.10425376954E+04  0.15294330000E+03 0.  0.
<mgrwt>
<rscale>  0 0.10721022E+04</rscale>
<asrwt>0</asrwt>
<pdfrwt beam="1">  1        2 0.30116862E+00 0.11258398E+04</pdfrwt>
<pdfrwt beam="2">  1       -2 0.14615654E+00 0.11258398E+04</pdfrwt>
<totfact> 0.22222065E+00</totfact>
</mgrwt>
</event>
<event>
 4    1  0.8468429E-007  0.7086646E+03  0.7818608E-02  0.9962994E-01
         -2   -1    0    0    0  501 -0.00000000000E+00  0.00000000000E+00  0.14337534670E+03  0.14337534672E+03  0.25500000000E-02 0.  1.
          2   -1    0    0  501    0  0.00000000000E+00 -0.00000000000E+00 -0.24863738553E+04  0.24863738553E+04  0.25500000000E-02 0. -1.
    8880023    1    1    2    0    0  0.25669443012E+03  0.50032108072E+02 -0.21657501964E+04  0.22787451287E+04  0.65864270000E+03 0.  0.
    8880022    1    1    2    0    0 -0.25669443012E+03 -0.50032108072E+02 -0.17724831229E+03  0.35100407336E+03  0.15294330000E+03 0.  0.
<mgrwt>
<rscale>  0 0.57303100E+03</rscale>
<asrwt>0</asrwt>
<pdfrwt beam="1">  1        2 0.38251902E+00 0.70866455E+03</pdfrwt>
<pdfrwt beam="2">  1       -2 0.22057747E-01 0.70866455E+03</pdfrwt>
<totfact> 0.66475829E+01</totfact>
</mgrwt>
</event>
<event>
 4    1  0.8468429E-007  0.6944328E+03  0.7818608E-02  0.1002113E+00
         -2   -1    0    0    0  501 -0.00000000000E+00  0.00000000000E+00  0.31476005856E+03  0.31476005857E+03  0.25500000000E-02 0.  1.
          2   -1    0    0  501    0  0.00000000000E+00 -0.00000000000E+00 -0.91470974122E+03  0.91470974122E+03  0.25500000000E-02 0. -1.
    8880023    1    1    2    0    0 -0.13048950929E+03  0.17719817277E+03 -0.65644238208E+03  0.95559066117E+03  0.65864270000E+03 0. -1.
    8880022    1    1    2    0    0  0.13048950929E+03 -0.17719817277E+03  0.56492699420E+02  0.27387913862E+03  0.15294330000E+03 0.  0.
<mgrwt>
<rscale>  0 0.54733359E+03</rscale>
<asrwt>0</asrwt>
<pdfrwt beam="1">  1        2 0.14072457E+00 0.69443280E+03</pdfrwt>
<pdfrwt beam="2">  1       -2 0.48424625E-01 0.69443280E+03</pdfrwt>
<totfact> 0.11764712E+02</totfact>
</mgrwt>
</event>
<event>
 4    1  0.8468429E-007  0.1062951E+04  0.7818608E-02  0.9303473E-01
         -2   -1    0    0    0  501 -0.00000000000E+00  0.00000000000E+00  0.85989222100E+03  0.85989222101E+03  0.25500000000E-02 0.  1.
          2   -1    0    0  501    0  0.00000000000E+00 -0.00000000000E+00 -0.17633175807E+04  0.17633175807E+04  0.25500000000E-02 0. -1.
    8880023    1    1    2    0    0 -0.39144726386E+03  0.73676524039E+03 -0.13063542876E+04  0.16841691456E+04  0.65864270000E+03 0.  0.
    8880022    1    1    2    0    0  0.39144726386E+03 -0.73676524039E+03  0.40292892796E+03  0.93904065611E+03  0.15294330000E+03 0.  0.
<mgrwt>
<rscale>  0 0.10046380E+04</rscale>
<asrwt>0</asrwt>
<pdfrwt beam="1">  1        2 0.27127963E+00 0.10629507E+04</pdfrwt>
<pdfrwt beam="2">  1       -2 0.13229111E+00 0.10629507E+04</pdfrwt>
<totfact> 0.37127526E+00</totfact>
</mgrwt>
</event>
<event>
 4    1  0.8468429E-007  0.1001818E+04  0.7818608E-02  0.9379184E-01
         -2   -1    0    0    0  501 -0.00000000000E+00  0.00000000000E+00  0.22186969817E+03  0.22186969818E+03  0.25500000000E-02 0.  1.
          2   -1    0    0  501    0  0.00000000000E+00 -0.00000000000E+00 -0.37003452877E+04  0.37003452877E+04  0.25500000000E-02 0. -1.
    8880023    1    1    2    0    0  0.75429720929E+03  0.29394574099E+02 -0.23637574733E+04  0.25672919428E+04  0.65864270000E+03 0.  0.
    8880022    1    1    2    0    0 -0.75429720929E+03 -0.29394574099E+02 -0.11147181163E+04  0.13549230431E+04  0.15294330000E+03 0.  0.
<mgrwt>
<rscale>  0 0.93808776E+03</rscale>
<asrwt>0</asrwt>
<pdfrwt beam="1">  1        2 0.56928385E+00 0.10018176E+04</pdfrwt>
<pdfrwt beam="2">  1       -2 0.34133802E-01 0.10018176E+04</pdfrwt>
<totfact> 0.48896845E+00</totfact>
</mgrwt>
</event>
<event>
 4    1  0.8468429E-007  0.7009545E+03  0.7818608E-02  0.9993264E-01
         -2   -1    0    0    0  501 -0.00000000000E+00  0.00000000000E+00  0.44545938044E+03  0.44545938045E+03  0.25500000000E-02 0.  1.
          2   -1    0    0  501    0  0.00000000000E+00 -0.00000000000E+00 -0.12167859297E+04  0.12167859297E+04  0.25500000000E-02 0. -1.
    8880023    1    1    2    0    0 -0.17815268492E+03  0.16058837043E+03 -0.10510146260E+04  0.12633166484E+04  0.65864270000E+03 0. -1.
    8880022    1    1    2    0    0  0.17815268492E+03 -0.16058837043E+03  0.27968807674E+03  0.39892866173E+03  0.15294330000E+03 0.  0.
<mgrwt>
<rscale>  0 0.55946568E+03</rscale>
<asrwt>0</asrwt>
<pdfrwt beam="1">  1        2 0.18719783E+00 0.70095450E+03</pdfrwt>
<pdfrwt beam="2">  1       -2 0.68532213E-01 0.70095450E+03</pdfrwt>
<totfact> 0.36892150E+01</totfact>
</mgrwt>
</event>
<event>
 4    1  0.8468429E-007  0.6602252E+03  0.7818608E-02  0.1023927E+00
         -2   -1    0    0    0  501 -0.00000000000E+00  0.00000000000E+00  0.13737933058E+03  0.13737933061E+03  0.25500000000E-02 0.  1.
          2   -1    0    0  501    0  0.00000000000E+00 -0.00000000000E+00 -0.17788138327E+04  0.17788138327E+04  0.25500000000E-02 0. -1.
    8880023    1    1    2    0    0  0.41175510567E+02 -0.19791221871E+02 -0.16270791899E+04  0.17559282478E+04  0.65864270000E+03 0. -1.
    8880022    1    1    2    0    0 -0.41175510567E+02  0.19791221871E+02 -0.14355312259E+02  0.16026491549E+03  0.15294330000E+03 0.  0.
<mgrwt>
<rscale>  0 0.46295777E+03</rscale>
<asrwt>0</asrwt>
<pdfrwt beam="1">  1        2 0.27366365E+00 0.66022521E+03</pdfrwt>
<pdfrwt beam="2">  1       -2 0.21135283E-01 0.66022521E+03</pdfrwt>
<totfact> 0.17649725E+02</totfact>
</mgrwt>
</event>
<event>
 4    1  0.8468429E-007  0.1075541E+04  0.7818608E-02  0.9288789E-01
         -2   -1    0    0    0  501 -0.00000000000E+00  0.00000000000E+00  0.42616947304E+03  0.42616947305E+03  0.25500000000E-02 0.  1.
          2   -1    0    0  501    0  0.00000000000E+00 -0.00000000000E+00 -0.38573995904E+04  0.38573995904E+04  0.25500000000E-02 0. -1.
    8880023    1    1    2    0    0  0.81914865591E+03 -0.22797828032E+03 -0.32190385235E+04  0.33939649142E+04  0.65864270000E+03 0. -1.
    8880022    1    1    2    0    0 -0.81914865591E+03  0.22797828032E+03 -0.21219159380E+03  0.88960414920E+03  0.15294330000E+03 0.  0.
<mgrwt>
<rscale>  0 0.10182152E+04</rscale>
<asrwt>0</asrwt>
<pdfrwt beam="1">  1        2 0.59344607E+00 0.10755412E+04</pdfrwt>
<pdfrwt beam="2">  1       -2 0.65564537E-01 0.10755412E+04</pdfrwt>
<totfact> 0.98399017E-01</totfact>
</mgrwt>
</event>
<event>
 4    1  0.8468429E-007  0.6995186E+03  0.7818608E-02  0.9999204E-01
          2   -1    0    0  501    0  0.00000000000E+00  0.00000000000E+00  0.22404053105E+04  0.22404053105E+04  0.25500000000E-02 0. -1.
         -2   -1    0    0    0  501 -0.00000000000E+00 -0.00000000000E+00 -0.12656459577E+03  0.12656459579E+03  0.25500000000E-02 0.  1.
    8880023    1    1    2    0    0 -0.22679943067E+03  0.63860365555E+02  0.18643621496E+04  0.19912741044E+04  0.65864270000E+03 0. -1.
    8880022    1    1    2    0    0  0.22679943067E+03 -0.63860365555E+02  0.24947856519E+03  0.37569580187E+03  0.15294330000E+03 0.  1.
<mgrwt>
<rscale>  0 0.55685157E+03</rscale>
<asrwt>0</asrwt>
<pdfrwt beam="1">  1        2 0.34467768E+00 0.69951864E+03</pdfrwt>
<pdfrwt beam="2">  1       -2 0.19471480E-01 0.69951864E+03</pdfrwt>
<totfact> 0.11363912E+02</totfact>
</mgrwt>
</event>
<event>
 4    1  0.8468429E-007  0.1069879E+04  0.7818608E-02  0.9295357E-01
          2   -1    0    0  501    0  0.00000000000E+00  0.00000000000E+00  0.15069470743E+04  0.15069470743E+04  0.25500000000E-02 0. -1.
         -2   -1    0    0    0  501 -0.00000000000E+00 -0.00000000000E+00 -0.77211643288E+03  0.77211643289E+03  0.25500000000E-02 0.  1.
    8880023    1    1    2    0    0  0.24828083674E+02 -0.84274260560E+03 -0.11028747852E+03  0.10755487284E+04  0.65864270000E+03 0.  0.
    8880022    1    1    2    0    0 -0.24828083674E+02  0.84274260560E+03  0.84511811993E+03  0.12035147788E+04  0.15294330000E+03 0.  0.
<mgrwt>
<rscale>  0 0.10121144E+04</rscale>
<asrwt>0</asrwt>
<pdfrwt beam="1">  1        2 0.23183801E+00 0.10698793E+04</pdfrwt>
<pdfrwt beam="2">  1       -2 0.11878714E+00 0.10698793E+04</pdfrwt>
<totfact> 0.67616556E+00</totfact>
</mgrwt>
</event>
<event>
 4    1  0.8468429E-007  0.6928343E+03  0.7818608E-02  0.1002834E+00
          2   -1    0    0  501    0  0.00000000000E+00  0.00000000000E+00  0.36912482250E+03  0.36912482251E+03  0.25500000000E-02 0. -1.
         -2   -1    0    0    0  501 -0.00000000000E+00 -0.00000000000E+00 -0.18418811658E+04  0.18418811658E+04  0.25500000000E-02 0.  1.
    8880023    1    1    2    0    0 -0.21339950734E+03  0.25880308865E+02  0.21963647989E+02  0.69318233403E+03  0.65864270000E+03 0. -1.
    8880022    1    1    2    0    0  0.21339950734E+03 -0.25880308865E+02 -0.14947199913E+04  0.15178236543E+04  0.15294330000E+03 0.  0.
<mgrwt>
<rscale>  0 0.54425046E+03</rscale>
<asrwt>0</asrwt>
<pdfrwt beam="1">  1        2 0.56788435E-01 0.69283428E+03</pdfrwt>
<pdfrwt beam="2">  1       -2 0.28336633E+00 0.69283428E+03</pdfrwt>
<totfact> 0.36525723E+00</totfact>
</mgrwt>
</event>
<event>
 4    1  0.8468429E-007  0.6991212E+03  0.7818608E-02  0.1000087E+00
          2   -1    0    0  501    0  0.00000000000E+00  0.00000000000E+00  0.15929977015E+04  0.15929977015E+04  0.25500000000E-02 0. -1.
         -2   -1    0    0    0  501 -0.00000000000E+00 -0.00000000000E+00 -0.16531335372E+03  0.16531335374E+03  0.25500000000E-02 0.  1.
    8880023    1    1    2    0    0  0.15077091717E+03 -0.17952259712E+03  0.12327920317E+04  0.14172320318E+04  0.65864270000E+03 0.  0.
    8880022    1    1    2    0    0 -0.15077091717E+03  0.17952259712E+03  0.19489231611E+03  0.34107902345E+03  0.15294330000E+03 0.  0.
<mgrwt>
<rscale>  0 0.55612258E+03</rscale>
<asrwt>0</asrwt>
<pdfrwt beam="1">  1        2 0.24507658E+00 0.69912119E+03</pdfrwt>
<pdfrwt beam="2">  1       -2 0.25432823E-01 0.69912119E+03</pdfrwt>
<totfact> 0.15972378E+02</totfact>
</mgrwt>
</event>
<event>
 4    1  0.8468429E-007  0.1081939E+04  0.7818608E-02  0.9281437E-01
          2   -1    0    0  501    0  0.00000000000E+00  0.00000000000E+00  0.49146714382E+03  0.49146714382E+03  0.25500000000E-02 0. -1.
         -2   -1    0    0    0  501 -0.00000000000E+00 -0.00000000000E+00 -0.29690291004E+04  0.29690291004E+04  0.25500000000E-02 0.  1.
    8880023    1    1    2    0    0 -0.73906744715E+03 -0.43653187256E+03 -0.31202652265E+03  0.11260335360E+04  0.65864270000E+03 0.  0.
    8880022    1    1    2    0    0  0.73906744715E+03  0.43653187256E+03 -0.21655354339E+04  0.23344627081E+04  0.15294330000E+03 0.  0.
<mgrwt>
<rscale>  0 0.10250993E+04</rscale>
<asrwt>0</asrwt>
<pdfrwt beam="1">  1        2 0.75610332E-01 0.10819385E+04</pdfrwt>
<pdfrwt beam="2">  1       -2 0.45677370E+00 0.10819385E+04</pdfrwt>
<totfact> 0.19835822E-01</totfact>
</mgrwt>
</event>
<event>
 4    1  0.9669405E-007  0.7271179E+03  0.7818608E-02  0.9899198E-01
         -2   -1    0    0    0  501 -0.00000000000E+00  0.00000000000E+00  0.12642261360E+04  0.12642261360E+04  0.25500000000E-02 0.  1.
          2   -1    0    0  501    0  0.00000000000E+00 -0.00000000000E+00 -0.16653268329E+04  0.16653268329E+04  0.25500000000E-02 0. -1.
    8880023    1    1    2    0    0  0.20579349028E+03  0.22921433856E+03 -0.15597667177E+04  0.17209220184E+04  0.65864270000E+03 0.  0.
    8880022    1    1    2    0    0 -0.20579349028E+03 -0.22921433856E+03  0.11586660208E+04  0.12086309505E+04  0.15294330000E+03 0.  0.
<mgrwt>
<rscale>  0 0.60300146E+03</rscale>
<asrwt>0</asrwt>
<pdfrwt beam="1">  1        2 0.25620413E+00 0.72711786E+03</pdfrwt>
<pdfrwt beam="2">  1       -2 0.19449633E+00 0.72711786E+03</pdfrwt>
<totfact> 0.15413385E+00</totfact>
</mgrwt>
</event>
<event>
 4    1  0.8468429E-007  0.6837051E+03  0.7818608E-02  0.1007301E+00
          2   -1    0    0  501    0  0.00000000000E+00  0.00000000000E+00  0.55419335522E+03  0.55419335523E+03  0.25500000000E-02 0. -1.
         -2   -1    0    0    0  501 -0.00000000000E+00 -0.00000000000E+00 -0.53839060965E+03  0.53839060966E+03  0.25500000000E-02 0.  1.
    8880023    1    1    2    0    0 -0.16141919667E+03  0.87099366559E+02  0.27787838207E+03  0.73801697690E+03  0.65864270000E+03 0.  0.
    8880022    1    1    2    0    0  0.16141919667E+03 -0.87099366559E+02 -0.26207563650E+03  0.35456698799E+03  0.15294330000E+03 0.  0.
<mgrwt>
<rscale>  0 0.52561584E+03</rscale>
<asrwt>0</asrwt>
<pdfrwt beam="1">  1        2 0.85260516E-01 0.68370510E+03</pdfrwt>
<pdfrwt beam="2">  1       -2 0.82829325E-01 0.68370510E+03</pdfrwt>
<totfact> 0.70837146E+01</totfact>
</mgrwt>
</event>
<event>
 4    1  0.8468429E-007  0.6608408E+03  0.7818608E-02  0.1023311E+00
          2   -1    0    0  501    0  0.00000000000E+00  0.00000000000E+00  0.79371611266E+03  0.79371611266E+03  0.25500000000E-02 0. -1.
         -2   -1    0    0    0  501 -0.00000000000E+00 -0.00000000000E+00 -0.22049450910E+03  0.22049450912E+03  0.25500000000E-02 0.  1.
    8880023    1    1    2    0    0  0.97327707670E+01 -0.52968514752E+02  0.38127395387E+03  0.76294195359E+03  0.65864270000E+03 0.  1.
    8880022    1    1    2    0    0 -0.97327707670E+01  0.52968514752E+02  0.19194764968E+03  0.25126866819E+03  0.15294330000E+03 0. -1.
<mgrwt>
<rscale>  0 0.46510466E+03</rscale>
<asrwt>0</asrwt>
<pdfrwt beam="1">  1        2 0.12211017E+00 0.66084083E+03</pdfrwt>
<pdfrwt beam="2">  1       -2 0.33922232E-01 0.66084083E+03</pdfrwt>
<totfact> 0.28640729E+02</totfact>
</mgrwt>
</event>
<event>
 4    1  0.8468429E-007  0.7317624E+03  0.7818608E-02  0.9884627E-01
         -2   -1    0    0    0  501 -0.00000000000E+00  0.00000000000E+00  0.22810219489E+03  0.22810219491E+03  0.25500000000E-02 0.  1.
          2   -1    0    0  501    0  0.00000000000E+00 -0.00000000000E+00 -0.21811408765E+04  0.21811408765E+04  0.25500000000E-02 0. -1.
    8880023    1    1    2    0    0 -0.30211870671E+03  0.10193282524E+03 -0.19192237140E+04  0.20539951033E+04  0.65864270000E+03 0. -1.
    8880022    1    1    2    0    0  0.30211870671E+03 -0.10193282524E+03 -0.33814967637E+02  0.35524796812E+03  0.15294330000E+03 0.  0.
<mgrwt>
<rscale>  0 0.61012154E+03</rscale>
<asrwt>0</asrwt>
<pdfrwt beam="1">  1        2 0.33556012E+00 0.73176241E+03</pdfrwt>
<pdfrwt beam="2">  1       -2 0.35092647E-01 0.73176241E+03</pdfrwt>
<totfact> 0.41818794E+01</totfact>
</mgrwt>
</event>
<event>
 4    1  0.8468429E-007  0.8732192E+03  0.7818608E-02  0.9570468E-01
          2   -1    0    0  501    0  0.00000000000E+00  0.00000000000E+00  0.33697601204E+04  0.33697601204E+04  0.25500000000E-02 0. -1.
         -2   -1    0    0    0  501 -0.00000000000E+00 -0.00000000000E+00 -0.26141064211E+03  0.26141064212E+03  0.25500000000E-02 0.  1.
    8880023    1    1    2    0    0  0.57091321259E+03  0.52532645397E+02  0.28557428894E+04  0.29862650974E+04  0.65864270000E+03 0.  0.
    8880022    1    1    2    0    0 -0.57091321259E+03 -0.52532645397E+02  0.25260658885E+03  0.64490566511E+03  0.15294330000E+03 0.  0.
<mgrwt>
<rscale>  0 0.79282013E+03</rscale>
<asrwt>0</asrwt>
<pdfrwt beam="1">  1        2 0.51842465E+00 0.87321921E+03</pdfrwt>
<pdfrwt beam="2">  1       -2 0.40217021E-01 0.87321921E+03</pdfrwt>
<totfact> 0.61645793E+00</totfact>
</mgrwt>
</event>
<event>
 4    1  0.8468429E-007  0.6939756E+03  0.7818608E-02  0.1002317E+00
         -2   -1    0    0    0  501 -0.00000000000E+00  0.00000000000E+00  0.12262295206E+04  0.12262295206E+04  0.25500000000E-02 0.  1.
          2   -1    0    0  501    0  0.00000000000E+00 -0.00000000000E+00 -0.19909020816E+03  0.19909020818E+03  0.25500000000E-02 0. -1.
    8880023    1    1    2    0    0 -0.97043700878E+02 -0.19589408383E+03  0.87973047073E+03  0.11205034044E+04  0.65864270000E+03 0.  0.
    8880022    1    1    2    0    0  0.97043700878E+02  0.19589408383E+03  0.14740884171E+03  0.30481632434E+03  0.15294330000E+03 0.  0.
<mgrwt>
<rscale>  0 0.54645660E+03</rscale>
<asrwt>0</asrwt>
<pdfrwt beam="1">  1        2 0.30629263E-01 0.69397563E+03</pdfrwt>
<pdfrwt beam="2">  1       -2 0.18865070E+00 0.69397563E+03</pdfrwt>
<totfact> 0.28036821E+01</totfact>
</mgrwt>
</event>
<event>
 4    1  0.8468429E-007  0.6883073E+03  0.7818608E-02  0.1004968E+00
         -2   -1    0    0    0  501 -0.00000000000E+00  0.00000000000E+00  0.12906837847E+03  0.12906837850E+03  0.25500000000E-02 0.  1.
          2   -1    0    0  501    0  0.00000000000E+00 -0.00000000000E+00 -0.18283422685E+04  0.18283422685E+04  0.25500000000E-02 0. -1.
    8880023    1    1    2    0    0  0.19546914439E+03 -0.41815949576E+02 -0.14400906815E+04  0.15961291105E+04  0.65864270000E+03 0. -1.
    8880022    1    1    2    0    0 -0.19546914439E+03  0.41815949576E+02 -0.25918320852E+03  0.36128153653E+03  0.15294330000E+03 0.  0.
<mgrwt>
<rscale>  0 0.53524640E+03</rscale>
<asrwt>0</asrwt>
<pdfrwt beam="1">  1        2 0.28128341E+00 0.68830732E+03</pdfrwt>
<pdfrwt beam="2">  1       -2 0.19856675E-01 0.68830732E+03</pdfrwt>
<totfact> 0.18456381E+02</totfact>
</mgrwt>
</event>
<event>
 4    1  0.8468429E-007  0.6832901E+03  0.7818608E-02  0.1007521E+00
         -2   -1    0    0    0  501 -0.00000000000E+00  0.00000000000E+00  0.15872467773E+04  0.15872467773E+04  0.25500000000E-02 0.  1.
          2   -1    0    0  501    0  0.00000000000E+00 -0.00000000000E+00 -0.14230781004E+03  0.14230781006E+03  0.25500000000E-02 0. -1.
    8880023    1    1    2    0    0  0.14684777611E+03 -0.10728874001E+03  0.86147179172E+03  0.10995539993E+04  0.65864270000E+03 0. -1.
    8880022    1    1    2    0    0 -0.14684777611E+03  0.10728874001E+03  0.58346717559E+03  0.63000058816E+03  0.15294330000E+03 0.  1.
<mgrwt>
<rscale>  0 0.52472044E+03</rscale>
<asrwt>0</asrwt>
<pdfrwt beam="1">  1        2 0.21893510E-01 0.68329009E+03</pdfrwt>
<pdfrwt beam="2">  1       -2 0.24419180E+00 0.68329009E+03</pdfrwt>
<totfact> 0.18390968E+01</totfact>
</mgrwt>
</event>
<event>
 4    1  0.8468429E-007  0.6612089E+03  0.7818608E-02  0.1022951E+00
          2   -1    0    0  501    0  0.00000000000E+00  0.00000000000E+00  0.21617081706E+04  0.21617081706E+04  0.25500000000E-02 0. -1.
         -2   -1    0    0    0  501 -0.00000000000E+00 -0.00000000000E+00 -0.96649373429E+02  0.96649373463E+02  0.25500000000E-02 0.  1.
    8880023    1    1    2    0    0  0.32508709120E+02  0.48271737900E+02  0.19479976503E+04  0.20571562966E+04  0.65864270000E+03 0. -1.
    8880022    1    1    2    0    0 -0.32508709120E+02 -0.48271737900E+02  0.11706114683E+03  0.20120124741E+03  0.15294330000E+03 0.  0.
<mgrwt>
<rscale>  0 0.46636672E+03</rscale>
<asrwt>0</asrwt>
<pdfrwt beam="1">  1        2 0.33257047E+00 0.66120888E+03</pdfrwt>
<pdfrwt beam="2">  1       -2 0.14869135E-01 0.66120888E+03</pdfrwt>
<totfact> 0.20010541E+02</totfact>
</mgrwt>
</event>
<event>
 4    1  0.8468429E-007  0.1082306E+04  0.7818608E-02  0.9281016E-01
         -2   -1    0    0    0  501 -0.00000000000E+00  0.00000000000E+00  0.50498285420E+03  0.50498285421E+03  0.25500000000E-02 0.  1.
          2   -1    0    0  501    0  0.00000000000E+00 -0.00000000000E+00 -0.23109085607E+04  0.23109085607E+04  0.25500000000E-02 0. -1.
    8880023    1    1    2    0    0  0.54190916880E+03  0.66626650966E+03 -0.38535752511E+03  0.11488634547E+04  0.65864270000E+03 0.  1.
    8880022    1    1    2    0    0 -0.54190916880E+03 -0.66626650966E+03 -0.14205681814E+04  0.16670279602E+04  0.15294330000E+03 0.  0.
<mgrwt>
<rscale>  0 0.10254948E+04</rscale>
<asrwt>0</asrwt>
<pdfrwt beam="1">  1        2 0.35552439E+00 0.10823062E+04</pdfrwt>
<pdfrwt beam="2">  1       -2 0.77689671E-01 0.10823062E+04</pdfrwt>
<totfact> 0.65795186E+00</totfact>
</mgrwt>
</event>
